<event>
11    1  0.7882745E-009  0.1379169E+03  0.7561462E-02  0.1109907E+00
         22   -1    0    0    0    0  0.00000000000E+00  0.00000000000E+00  0.13192540186E+04  0.13192540186E+04  0.00000000000E+00 0. -1.
         22   -1    0    0    0    0 -0.00000000000E+00 -0.00000000000E+00 -0.46334220735E+02  0.46334220735E+02  0.00000000000E+00 0.  1.
         24    2    1    2    0    0 -0.15233284119E+02  0.52499958629E+02  0.58985209273E+02  0.12242489212E+03  0.92305474896E+02 0.  0.
         25    2    1    2    0    0  0.75350082724E+02 -0.68923116880E+02  0.84245710623E+03  0.85779709148E+03  0.12511532008E+03 0.  0.
        -24    2    1    2    0    0 -0.60116798605E+02  0.16423158251E+02  0.37147748240E+03  0.38536625577E+03  0.81411802302E+02 0.  0.
        -11    1    3    3    0    0 -0.36652248076E+02  0.65766306047E+02  0.23436646848E+02  0.78853476243E+02  0.00000000000E+00 0.  1.
         12    1    3    3    0    0  0.21418963957E+02 -0.13266347418E+02  0.35548562425E+02  0.43571415874E+02  0.00000000000E+00 0. -1.
         11    1    5    5    0    0 -0.42580724595E+02  0.42158932205E+02  0.31701835996E+03  0.32263157661E+03  0.00000000000E+00 0. -1.
        -12    1    5    5    0    0 -0.17536074010E+02 -0.25735773954E+02  0.54459122437E+02  0.62734679160E+02  0.00000000000E+00 0.  1.
          5    1    4    4  501    0 -0.19765346202E+02  0.20397191672E+02  0.10401066285E+03  0.10789997556E+03  0.41800000000E+01 0.  1.
         -5    1    4    4    0  501  0.95115428926E+02 -0.89320308552E+02  0.73844644338E+03  0.74989711593E+03  0.41800000000E+01 0.  1.
</event>
<event>
11    1  0.7882745E-009  0.1312548E+03  0.7561462E-02  0.1117737E+00
         22   -1    0    0    0    0  0.00000000000E+00  0.00000000000E+00  0.65472830583E+03  0.65472830583E+03  0.00000000000E+00 0. -1.
         22   -1    0    0    0    0 -0.00000000000E+00 -0.00000000000E+00 -0.51273575828E+03  0.51273575828E+03  0.00000000000E+00 0.  1.
        -24    2    1    2    0    0  0.52270078415E+01 -0.20563179903E+02 -0.40595977671E+03  0.41438384692E+03  0.80377025985E+02 0.  0.
         25    2    1    2    0    0 -0.30815521631E+02  0.50170748470E+02 -0.51083743285E+02  0.14739077306E+03  0.12509112989E+03 0.  0.
         24    2    1    2    0    0  0.25588513789E+02 -0.29607568567E+02  0.59903606754E+03  0.60568944413E+03  0.80523986290E+02 0.  0.
        -11    1    5    5    0    0 -0.66683918792E+01  0.22378290218E+02  0.89596735192E+02  0.92589579762E+02  0.00000000000E+00 0.  1.
         12    1    5    5    0    0  0.32256905669E+02 -0.51985858784E+02  0.50943933235E+03  0.51309986437E+03  0.00000000000E+00 0. -1.
         13    1    3    3    0    0 -0.25195449898E+02  0.20036393160E+02 -0.14360919017E+03  0.14717291615E+03  0.00000000000E+00 0. -1.
        -14    1    3    3    0    0  0.30422457739E+02 -0.40599573063E+02 -0.26235058653E+03  0.26721093077E+03  0.00000000000E+00 0.  1.
          5    1    4    4  501    0  0.45789595758E+02  0.37004287219E+01 -0.45768722818E+01  0.46355155186E+02  0.41800000000E+01 0.  1.
         -5    1    4    4    0  501 -0.76605117389E+02  0.46470319748E+02 -0.46506871004E+02  0.10103561787E+03  0.41800000000E+01 0.  1.
</event>
<event>
11    1  0.7882745E-009  0.5396527E+03  0.7561462E-02  0.9309035E-01
         22   -1    0    0    0    0  0.00000000000E+00  0.00000000000E+00  0.15877977495E+04  0.15877977495E+04  0.00000000000E+00 0. -1.
         22   -1    0    0    0    0 -0.00000000000E+00 -0.00000000000E+00 -0.11264774937E+04  0.11264774937E+04  0.00000000000E+00 0. -1.
        -24    2    1    2    0    0 -0.64281941972E+03 -0.32239807440E+03 -0.69372547586E+03  0.10024277587E+04  0.80305982781E+02 0.  0.
         25    2    1    2    0    0 -0.49145674650E+02  0.40669136047E+03  0.92029959065E+02  0.43809797509E+03  0.12508861818E+03 0.  0.
         24    2    1    2    0    0  0.69196509437E+03 -0.84293286066E+02  0.10630157726E+04  0.12737495093E+04  0.80710778203E+02 0.  0.
        -13    1    5    5    0    0  0.17614804643E+03 -0.27129324489E+02  0.33829784402E+03  0.38237359451E+03  0.00000000000E+00 0.  1.
         14    1    5    5    0    0  0.51581704794E+03 -0.57163961577E+02  0.72471792858E+03  0.89137591479E+03  0.00000000000E+00 0. -1.
         13    1    3    3    0    0 -0.14874949961E+03 -0.60414667086E+02 -0.11381632342E+03  0.19680066339E+03  0.00000000000E+00 0. -1.
        -14    1    3    3    0    0 -0.49406992012E+03 -0.26198340732E+03 -0.57990915244E+03  0.80562709535E+03  0.00000000000E+00 0.  1.
          5    1    4    4  501    0 -0.69032086085E+02  0.15124865709E+03  0.14695367428E+01  0.16631661708E+03  0.41800000000E+01 0. -1.
         -5    1    4    4    0  501  0.19886411435E+02  0.25544270338E+03  0.90560422322E+02  0.27178135801E+03  0.41800000000E+01 0. -1.
</event>
<event>
11    1  0.7882745E-009  0.1465146E+03  0.7561462E-02  0.1100494E+00
         22   -1    0    0    0    0  0.00000000000E+00  0.00000000000E+00  0.34902894947E+04  0.34902894947E+04  0.00000000000E+00 0.  1.
         22   -1    0    0    0    0 -0.00000000000E+00 -0.00000000000E+00 -0.14024180868E+03  0.14024180868E+03  0.00000000000E+00 0. -1.
        -24    2    1    2    0    0 -0.14253716968E+01  0.39384188859E+02 -0.91249899068E+02  0.12820219554E+03  0.80969826752E+02 0.  0.
         25    2    1    2    0    0  0.76694307119E+02 -0.50179109808E+02  0.17422378093E+03  0.23324161056E+03  0.12509101985E+03 0.  0.
         24    2    1    2    0    0 -0.75268935422E+02  0.10794920949E+02  0.32670738042E+04  0.32690874973E+04  0.85906228904E+02 0.  0.
        -11    1    5    5    0    0 -0.33903289584E+02  0.30944208940E+02  0.26104562545E+04  0.26108597883E+04  0.00000000000E+00 0.  1.
         12    1    5    5    0    0 -0.41365645838E+02 -0.20149287991E+02  0.65661754964E+03  0.65822770904E+03  0.00000000000E+00 0. -1.
         11    1    3    3    0    0  0.13005818111E+02  0.59426513043E+02 -0.44644030350E+02  0.75456949336E+02  0.00000000000E+00 0. -1.
        -12    1    3    3    0    0 -0.14431189808E+02 -0.20042324184E+02 -0.46605868718E+02  0.52745246202E+02  0.00000000000E+00 0.  1.
          5    1    4    4  501    0  0.83549662894E+02 -0.10877094996E+02  0.17372631169E+03  0.19312472949E+03  0.41800000000E+01 0.  1.
         -5    1    4    4    0  501 -0.68553557748E+01 -0.39302014812E+02  0.49746924066E+00  0.40116881069E+02  0.41800000000E+01 0.  1.
</event>
<event>
11    1  0.7882745E-009  0.1637913E+03  0.7561462E-02  0.1083565E+00
         22   -1    0    0    0    0  0.00000000000E+00  0.00000000000E+00  0.20968412389E+04  0.20968412389E+04  0.00000000000E+00 0. -1.
         22   -1    0    0    0    0 -0.00000000000E+00 -0.00000000000E+00 -0.20730897076E+03  0.20730897076E+03  0.00000000000E+00 0. -1.
         24    2    1    2    0    0 -0.74839102012E+02  0.78024945728E+02 -0.17027583511E+03  0.21787122451E+03  0.82372489939E+02 0.  0.
         25    2    1    2    0    0  0.77928450765E+02 -0.49502271802E+01  0.46493831544E+03  0.48776250408E+03  0.12508906840E+03 0.  0.
        -24    2    1    2    0    0 -0.30893487527E+01 -0.73074718548E+02  0.15948697878E+04  0.15985164810E+04  0.79346339788E+02 0.  0.
        -13    1    3    3    0    0 -0.47981948561E+02  0.31222195179E+02 -0.24206616362E+02  0.62153464386E+02  0.00000000000E+00 0.  1.
         14    1    3    3    0    0 -0.26857153451E+02  0.46802750549E+02 -0.14606921875E+03  0.15571776012E+03  0.00000000000E+00 0. -1.
         13    1    5    5    0    0 -0.29766829096E+02 -0.69710628406E+02  0.13603664525E+04  0.13624766130E+04  0.00000000000E+00 0. -1.
        -14    1    5    5    0    0  0.26677480344E+02 -0.33640901423E+01  0.23450333528E+03  0.23603986807E+03  0.00000000000E+00 0.  1.
          5    1    4    4  501    0  0.94442335428E+02 -0.13543818791E+02  0.45737442529E+03  0.46723829794E+03  0.41800000000E+01 0.  1.
         -5    1    4    4    0  501 -0.16513884663E+02  0.85935916107E+01  0.75638901449E+01  0.20524206137E+02  0.41800000000E+01 0.  1.
</event>
<event>
11    1  0.7882745E-009  0.1436637E+03  0.7561462E-02  0.1103535E+00
         22   -1    0    0    0    0  0.00000000000E+00  0.00000000000E+00  0.61285416819E+03  0.61285416819E+03  0.00000000000E+00 0.  1.
         22   -1    0    0    0    0 -0.00000000000E+00 -0.00000000000E+00 -0.49077347418E+03  0.49077347418E+03  0.00000000000E+00 0. -1.
        -24    2    1    2    0    0  0.28654640060E+02 -0.10681517857E+02 -0.44537238789E+03  0.45373395910E+03  0.81134200710E+02 0.  0.
         25    2    1    2    0    0 -0.19671125906E+02  0.79585452734E+02  0.12433092876E+03  0.19449021380E+03  0.12508983147E+03 0.  0.
         24    2    1    2    0    0 -0.89835141539E+01 -0.68903934877E+02  0.44312215313E+03  0.45540346947E+03  0.78782114972E+02 0.  0.
        -13    1    5    5    0    0 -0.55346165238E+01 -0.65539395414E+02  0.44528906811E+03  0.45012042667E+03  0.00000000000E+00 0.  1.
         14    1    5    5    0    0 -0.34488976301E+01 -0.33645394625E+01 -0.21669149768E+01  0.52830427950E+01  0.00000000000E+00 0. -1.
         13    1    3    3    0    0  0.39672687526E+02 -0.11213003645E+01 -0.43238526884E+03  0.43420294812E+03  0.00000000000E+00 0. -1.
        -14    1    3    3    0    0 -0.11018047466E+02 -0.95602174928E+01 -0.12987119048E+02  0.19531010974E+02  0.00000000000E+00 0.  1.
          5    1    4    4  501    0 -0.23601615676E+02  0.46287439952E+02  0.14554256750E+03  0.15459519628E+03  0.41800000000E+01 0. -1.
         -5    1    4    4    0  501  0.39304897702E+01  0.33298012781E+02 -0.21211638737E+02  0.39895017520E+02  0.41800000000E+01 0. -1.
</event>
<event>
11    1  0.7882745E-009  0.1473963E+03  0.7561462E-02  0.1099569E+00
         22   -1    0    0    0    0  0.00000000000E+00  0.00000000000E+00  0.16545923047E+04  0.16545923047E+04  0.00000000000E+00 0. -1.
         22   -1    0    0    0    0 -0.00000000000E+00 -0.00000000000E+00 -0.81008271163E+03  0.81008271163E+03  0.00000000000E+00 0. -1.
        -24    2    1    2    0    0  0.19752709267E+01  0.52815165446E+02 -0.73985408808E+03  0.74571320475E+03  0.76881523751E+02 0.  0.
         25    2    1    2    0    0 -0.38464767446E+02 -0.12012036112E+03  0.55481871568E+02  0.18610227346E+03  0.12508948247E+03 0.  0.
         24    2    1    2    0    0  0.36489496519E+02  0.67305195672E+02  0.15288818096E+04  0.15328595382E+04  0.79481464584E+02 0.  0.
        -13    1    5    5    0    0  0.33233806989E+01  0.15447956900E+02  0.44859214644E+02  0.47560838618E+02  0.00000000000E+00 0.  1.
         14    1    5    5    0    0  0.33166115821E+02  0.51857238772E+02  0.14840225950E+04  0.14852986995E+04  0.00000000000E+00 0. -1.
         13    1    3    3    0    0 -0.46329115512E+01  0.56298773951E+02 -0.73413509381E+03  0.73630520287E+03  0.00000000000E+00 0. -1.
        -14    1    3    3    0    0  0.66081824779E+01 -0.34836085050E+01 -0.57189942772E+01  0.94080018824E+01  0.00000000000E+00 0.  1.
          5    1    4    4  501    0 -0.18629892399E+02  0.20054952716E+02 -0.10806283628E+02  0.29724101081E+02  0.41800000000E+01 0. -1.
         -5    1    4    4    0  501 -0.19834875047E+02 -0.14017531383E+03  0.66288155196E+02  0.15637817238E+03  0.41800000000E+01 0. -1.
</event>
<event>
11    1  0.7882745E-009  0.3414509E+03  0.7561462E-02  0.9840298E-01
         22   -1    0    0    0    0  0.00000000000E+00  0.00000000000E+00  0.24371906575E+04  0.24371906575E+04  0.00000000000E+00 0.  1.
         22   -1    0    0    0    0 -0.00000000000E+00 -0.00000000000E+00 -0.38863071813E+03  0.38863071813E+03  0.00000000000E+00 0.  1.
        -24    2    1    2    0    0  0.24373852748E+03  0.20567499861E+03 -0.28093242778E+03  0.43274269319E+03  0.81440375087E+02 0.  0.
         25    2    1    2    0    0 -0.22726567530E+03 -0.20160155997E+03  0.84866747281E+03  0.91004220087E+03  0.12508977497E+03 0.  0.
         24    2    1    2    0    0 -0.16472852182E+02 -0.40734386362E+01  0.14808248943E+04  0.14830364816E+04  0.79163692585E+02 0.  0.
        -11    1    5    5    0    0  0.17890668571E+02 -0.18260187532E+02  0.11219306695E+04  0.11222218754E+04  0.00000000000E+00 0.  1.
         12    1    5    5    0    0 -0.34363520754E+02  0.14186748895E+02  0.35889422486E+03  0.36081460619E+03  0.00000000000E+00 0. -1.
         13    1    3    3    0    0  0.18588557807E+02 -0.33267360928E+01 -0.32790382474E+02  0.37839276383E+02  0.00000000000E+00 0. -1.
        -14    1    3    3    0    0  0.22514996968E+03  0.20900173470E+03 -0.24814204531E+03  0.39490341680E+03  0.00000000000E+00 0.  1.
          5    1    4    4  501    0 -0.39656270532E+02 -0.10499864640E+03  0.22214710029E+03  0.24892597716E+03  0.41800000000E+01 0.  1.
         -5    1    4    4    0  501 -0.18760940477E+03 -0.96602913577E+02  0.62652037252E+03  0.66111622371E+03  0.41800000000E+01 0.  1.
</event>
<event>
11    1  0.7882745E-009  0.2682870E+03  0.7561462E-02  0.1014585E+00
         22   -1    0    0    0    0  0.00000000000E+00  0.00000000000E+00  0.12303679220E+04  0.12303679220E+04  0.00000000000E+00 0. -1.
         22   -1    0    0    0    0 -0.00000000000E+00 -0.00000000000E+00 -0.54169306765E+03  0.54169306765E+03  0.00000000000E+00 0.  1.
         24    2    1    2    0    0  0.45894807538E+02 -0.10027178908E+03 -0.46746776052E+03  0.48712344423E+03  0.81255016763E+02 0.  0.
         25    2    1    2    0    0  0.11134124618E+03 -0.12164138659E+03  0.20102721793E+03  0.28854053350E+03  0.12510074777E+03 0.  0.
        -24    2    1    2    0    0 -0.15723605372E+03  0.22191317567E+03  0.95511539696E+03  0.99639701192E+03  0.81196981118E+02 0.  0.
        -11    1    3    3    0    0  0.67681648117E+02 -0.59138001069E+02 -0.28663279852E+03  0.30039385787E+03  0.00000000000E+00 0.  1.
         12    1    3    3    0    0 -0.21786840579E+02 -0.41133788016E+02 -0.18083496200E+03  0.18672958636E+03  0.00000000000E+00 0. -1.
         11    1    5    5    0    0 -0.13848675200E+03  0.19792220406E+03  0.72284874739E+03  0.76214309086E+03  0.00000000000E+00 0. -1.
        -12    1    5    5    0    0 -0.18749301712E+02  0.23990971613E+02  0.23226664957E+03  0.23425392107E+03  0.00000000000E+00 0.  1.
          5    1    4    4  501    0 -0.44279708081E+01 -0.84728519338E+02  0.73335318196E+02  0.11222330511E+03  0.41800000000E+01 0.  1.
         -5    1    4    4    0  501  0.11576921699E+03 -0.36912867252E+02  0.12769189973E+03  0.17631722839E+03  0.41800000000E+01 0.  1.
</event>
<event>
11    1  0.7882745E-009  0.1562875E+03  0.7561462E-02  0.1090622E+00
         22   -1    0    0    0    0  0.00000000000E+00  0.00000000000E+00  0.16019310894E+03  0.16019310894E+03  0.00000000000E+00 0.  1.
         22   -1    0    0    0    0 -0.00000000000E+00 -0.00000000000E+00 -0.36447167089E+03  0.36447167089E+03  0.00000000000E+00 0.  1.
        -24    2    1    2    0    0  0.34514082213E+02 -0.83395929066E+02 -0.23481641856E+03  0.26578340455E+03  0.85766921657E+02 0.  0.
         25    2    1    2    0    0 -0.38771445089E+02  0.10465216161E+03 -0.71552340141E+01  0.16778975482E+03  0.12508758758E+03 0.  0.
         24    2    1    2    0    0  0.42573628765E+01 -0.21256232544E+02  0.37693090627E+02  0.91091620454E+02  0.80043498644E+02 0.  0.
        -13    1    5    5    0    0  0.46078584215E+01 -0.46350326211E+02  0.45191505732E+02  0.64898823483E+02  0.00000000000E+00 0.  1.
         14    1    5    5    0    0 -0.35049554502E+00  0.25094093667E+02 -0.74984151046E+01  0.26192796971E+02  0.00000000000E+00 0. -1.
         11    1    3    3    0    0  0.17769468615E+02 -0.28500195087E+02 -0.19005400704E+03  0.19299881017E+03  0.00000000000E+00 0. -1.
        -12    1    3    3    0    0  0.16744613598E+02 -0.54895733979E+02 -0.44762411525E+02  0.72784594381E+02  0.00000000000E+00 0.  1.
          5    1    4    4  501    0 -0.36259565480E+02  0.72603626055E+02  0.54698169991E+02  0.97956137151E+02  0.41800000000E+01 0. -1.
         -5    1    4    4    0  501 -0.25118796095E+01  0.32048535555E+02 -0.61853404005E+02  0.69833617674E+02  0.41800000000E+01 0. -1.
</event>
<event>
11    1  0.7882745E-009  0.1643198E+03  0.7561462E-02  0.1083083E+00
         22   -1    0    0    0    0  0.00000000000E+00  0.00000000000E+00  0.53252912006E+03  0.53252912006E+03  0.00000000000E+00 0. -1.
         22   -1    0    0    0    0 -0.00000000000E+00 -0.00000000000E+00 -0.88037034954E+02  0.88037034954E+02  0.00000000000E+00 0.  1.
         24    2    1    2    0    0  0.80011724596E+02  0.51542012238E+02  0.53143520055E+02  0.13388537668E+03  0.77734196255E+02 0.  0.
         25    2    1    2    0    0 -0.95600111273E+02 -0.99424479692E+02  0.20128968692E+03  0.27419881455E+03  0.12507135326E+03 0.  0.
        -24    2    1    2    0    0  0.15588386677E+02  0.47882467453E+02  0.19005887813E+03  0.21248196377E+03  0.80563510877E+02 0.  0.
        -13    1    3    3    0    0  0.53518729678E+02  0.64154186678E+02  0.13602153398E+02  0.84646516005E+02  0.00000000000E+00 0.  1.
         14    1    3    3    0    0  0.26492994918E+02 -0.12612174440E+02  0.39541366656E+02  0.49238860678E+02  0.00000000000E+00 0. -1.
         11    1    5    5    0    0  0.28538054430E+02  0.59309283876E+02  0.18178217205E+03  0.19333072642E+03  0.00000000000E+00 0. -1.
        -12    1    5    5    0    0 -0.12949667753E+02 -0.11426816422E+02  0.82767060772E+01  0.19151237348E+02  0.00000000000E+00 0.  1.
          5    1    4    4  501    0 -0.12319862105E+03 -0.99196400538E+02  0.16874274155E+03  0.23132101360E+03  0.41800000000E+01 0.  1.
         -5    1    4    4    0  501  0.27598509773E+02 -0.22807915335E+00  0.32546945371E+02  0.42877800955E+02  0.41800000000E+01 0.  1.
</event>
<event>
11    1  0.7882745E-009  0.1506111E+03  0.7561462E-02  0.1096256E+00
         22   -1    0    0    0    0  0.00000000000E+00  0.00000000000E+00  0.58603716990E+03  0.58603716990E+03  0.00000000000E+00 0.  1.
         22   -1    0    0    0    0 -0.00000000000E+00 -0.00000000000E+00 -0.94445555989E+03  0.94445555989E+03  0.00000000000E+00 0.  1.
         24    2    1    2    0    0 -0.25121655206E+02 -0.75140548774E+02 -0.74875210791E+03  0.75695016850E+03  0.77888631154E+02 0.  0.
         25    2    1    2    0    0  0.45780443149E+02  0.12755495158E+03 -0.14164198339E+03  0.23254215922E+03  0.12508912706E+03 0.  0.
        -24    2    1    2    0    0 -0.20658787943E+02 -0.52414402807E+02  0.53197570131E+03  0.54100040207E+03  0.80679818513E+02 0.  0.
        -13    1    3    3    0    0 -0.46080613902E+02 -0.37197082484E+02 -0.56773758901E+03  0.57081784826E+03  0.00000000000E+00 0.  1.
         14    1    3    3    0    0  0.20958958696E+02 -0.37943466290E+02 -0.18101451890E+03  0.18613232023E+03  0.00000000000E+00 0. -1.
         13    1    5    5    0    0  0.19385762009E+02  0.10578289451E+02  0.84310223941E+02  0.87154585865E+02  0.00000000000E+00 0. -1.
        -14    1    5    5    0    0 -0.40044549952E+02 -0.62992692259E+02  0.44766547737E+03  0.45384581621E+03  0.00000000000E+00 0.  1.
          5    1    4    4  501    0  0.86745867239E+02  0.89816506808E+02 -0.11812306063E+03  0.17193714035E+03  0.41800000000E+01 0. -1.
         -5    1    4    4    0  501 -0.40965424090E+02  0.37738444773E+02 -0.23518922762E+02  0.60605018874E+02  0.41800000000E+01 0. -1.
</event>
<event>
11    1  0.7882745E-009  0.1521738E+03  0.7561462E-02  0.1094678E+00
         22   -1    0    0    0    0  0.00000000000E+00  0.00000000000E+00  0.21822184080E+03  0.21822184080E+03  0.00000000000E+00 0.  1.
         22   -1    0    0    0    0 -0.00000000000E+00 -0.00000000000E+00 -0.88664212761E+03  0.88664212761E+03  0.00000000000E+00 0.  1.
        -24    2    1    2    0    0  0.90883727410E+01  0.82266908902E+02 -0.69088468550E+03  0.70039697375E+03  0.79898869584E+02 0.  0.
         25    2    1    2    0    0 -0.34224877974E+01 -0.12135577876E+03 -0.13828402367E+03  0.22250740019E+03  0.12509249968E+03 0.  0.
         24    2    1    2    0    0 -0.56658849435E+01  0.39088869857E+02  0.16074842236E+03  0.18195959447E+03  0.75559226635E+02 0.  0.
        -13    1    5    5    0    0 -0.31235032605E+00 -0.26265169502E+01  0.12959158374E+03  0.12961857402E+03  0.00000000000E+00 0.  1.
         14    1    5    5    0    0 -0.53535346175E+01  0.41715386807E+02  0.31156838623E+02  0.52341020456E+02  0.00000000000E+00 0. -1.
         13    1    3    3    0    0 -0.21059051210E+02  0.69738482622E+02 -0.32528671179E+03  0.33334424319E+03  0.00000000000E+00 0. -1.
        -14    1    3    3    0    0  0.30147423950E+02  0.12528426280E+02 -0.36559797371E+03  0.36705273056E+03  0.00000000000E+00 0.  1.
          5    1    4    4  501    0  0.51134143976E+02 -0.10500658769E+03 -0.99345100775E+02  0.15338841412E+03  0.41800000000E+01 0.  1.
         -5    1    4    4    0  501 -0.54556631773E+02 -0.16349191066E+02 -0.38938922895E+02  0.69118986069E+02  0.41800000000E+01 0.  1.
</event>
<event>
11    1  0.7882745E-009  0.1398099E+03  0.7561462E-02  0.1107771E+00
         22   -1    0    0    0    0  0.00000000000E+00  0.00000000000E+00  0.24033287758E+03  0.24033287758E+03  0.00000000000E+00 0. -1.
         22   -1    0    0    0    0 -0.00000000000E+00 -0.00000000000E+00 -0.14911635366E+04  0.14911635366E+04  0.00000000000E+00 0. -1.
         24    2    1    2    0    0 -0.12672887863E+02  0.34658804421E+00 -0.13125846542E+04  0.13152716132E+04  0.83067561840E+02 0.  0.
         25    2    1    2    0    0  0.69921563697E+02 -0.23036572228E+02 -0.13240788028E+03  0.19646719435E+03  0.12509117861E+03 0.  0.
        -24    2    1    2    0    0 -0.57248675833E+02  0.22689984183E+02  0.19416187545E+03  0.21975760665E+03  0.82476211931E+02 0.  0.
        -11    1    3    3    0    0 -0.45958934596E+02  0.13602121632E+02 -0.69822645160E+03  0.69986957292E+03  0.00000000000E+00 0.  1.
         12    1    3    3    0    0  0.33286046733E+02 -0.13255533588E+02 -0.61435820257E+03  0.61540204025E+03  0.00000000000E+00 0. -1.
         13    1    5    5    0    0 -0.58460759564E+02  0.15600068187E+02  0.20095352494E+03  0.20986505598E+03  0.00000000000E+00 0. -1.
        -14    1    5    5    0    0  0.12120837309E+01  0.70899159961E+01 -0.67916494928E+01  0.98925506638E+01  0.00000000000E+00 0.  1.
          5    1    4    4  501    0  0.65415688140E+02 -0.25469271570E+02 -0.67621212002E+01  0.70647680304E+02  0.41800000000E+01 0. -1.
         -5    1    4    4    0  501  0.45058755564E+01  0.24326993422E+01 -0.12564575908E+03  0.12581951404E+03  0.41800000000E+01 0. -1.
</event>
<event>
11    1  0.7882745E-009  0.1342696E+03  0.7561462E-02  0.1114132E+00
         22   -1    0    0    0    0  0.00000000000E+00  0.00000000000E+00  0.34967742478E+03  0.34967742478E+03  0.00000000000E+00 0.  1.
         22   -1    0    0    0    0 -0.00000000000E+00 -0.00000000000E+00 -0.10319472897E+04  0.10319472897E+04  0.00000000000E+00 0. -1.
        -24    2    1    2    0    0 -0.25479513283E+01 -0.10073987723E+02 -0.69979349037E+03  0.70449014608E+03  0.80544766906E+02 0.  0.
         25    2    1    2    0    0  0.25794437676E+02  0.52754747442E+02 -0.30874096781E+03  0.33825571546E+03  0.12509007731E+03 0.  0.
         24    2    1    2    0    0 -0.23246486348E+02 -0.42680759719E+02  0.32626459324E+03  0.33887885295E+03  0.77641778661E+02 0.  0.
        -13    1    5    5    0    0 -0.21935810344E+01 -0.37099452301E+02  0.30861658651E+03  0.31084622988E+03  0.00000000000E+00 0.  1.
         14    1    5    5    0    0 -0.21052905313E+02 -0.55813074175E+01  0.17648006731E+02  0.28032623070E+02  0.00000000000E+00 0. -1.
         11    1    3    3    0    0  0.25745539746E+02 -0.34666198396E+02 -0.41487267592E+03  0.41711379186E+03  0.00000000000E+00 0. -1.
        -12    1    3    3    0    0 -0.28293491075E+02  0.24592210672E+02 -0.28492081444E+03  0.28737635422E+03  0.00000000000E+00 0.  1.
          5    1    4    4  501    0  0.83304627132E+01 -0.41316133799E+02 -0.99483269288E+02  0.10812406203E+03  0.41800000000E+01 0. -1.
         -5    1    4    4    0  501  0.17463974963E+02  0.94070881241E+02 -0.20925769852E+03  0.23013165343E+03  0.41800000000E+01 0. -1.
</event>
<event>
11    1  0.7882745E-009  0.1557802E+03  0.7561462E-02  0.1091115E+00
         22   -1    0    0    0    0  0.00000000000E+00  0.00000000000E+00  0.77459324582E+02  0.77459324582E+02  0.00000000000E+00 0. -1.
         22   -1    0    0    0    0 -0.00000000000E+00 -0.00000000000E+00 -0.39602218352E+04  0.39602218352E+04  0.00000000000E+00 0.  1.
        -24    2    1    2    0    0  0.77930743462E+02 -0.56478117142E+02 -0.28725197365E+04  0.28752839916E+04  0.81396665895E+02 0.  0.
         25    2    1    2    0    0 -0.73354233763E+02  0.34574496274E+02 -0.10566579387E+04  0.10671227264E+04  0.12509466159E+03 0.  0.
         24    2    1    2    0    0 -0.45765096990E+01  0.21903620868E+02  0.46415164540E+02  0.95274441842E+02  0.80138247553E+02 0.  0.
        -11    1    5    5    0    0 -0.40089375171E+02  0.17315256821E+01  0.12047117429E+02  0.41896171915E+02  0.00000000000E+00 0.  1.
         12    1    5    5    0    0  0.35512865472E+02  0.20172095186E+02  0.34368047111E+02  0.53378269927E+02  0.00000000000E+00 0. -1.
         11    1    3    3    0    0  0.10780753063E+02 -0.11013173107E+02 -0.73914211835E+02  0.75503810034E+02  0.00000000000E+00 0. -1.
        -12    1    3    3    0    0  0.67149990399E+02 -0.45464944035E+02 -0.27986055246E+04  0.27997801815E+04  0.00000000000E+00 0.  1.
          5    1    4    4  501    0 -0.88449595174E+02  0.65678409191E+02 -0.68243419141E+03  0.69128205699E+03  0.41800000000E+01 0. -1.
         -5    1    4    4    0  501  0.15095361412E+02 -0.31103912917E+02 -0.37422374729E+03  0.37584066940E+03  0.41800000000E+01 0. -1.
</event>
<event>
11    1  0.7882745E-009  0.1463337E+03  0.7561462E-02  0.1100685E+00
         22   -1    0    0    0    0  0.00000000000E+00  0.00000000000E+00  0.15623725082E+03  0.15623725082E+03  0.00000000000E+00 0. -1.
         22   -1    0    0    0    0 -0.00000000000E+00 -0.00000000000E+00 -0.13452963190E+04  0.13452963190E+04  0.00000000000E+00 0. -1.
        -24    2    1    2    0    0  0.65647332241E+02  0.20405142244E+01 -0.59291725729E+03  0.60205783625E+03  0.81295930202E+02 0.  0.
         25    2    1    2    0    0 -0.93843979556E+02 -0.17264805447E+02 -0.72709518316E+03  0.74392186108E+03  0.12509022351E+03 0.  0.
         24    2    1    2    0    0  0.28196647315E+02  0.15224291223E+02  0.13095337230E+03  0.15555387245E+03  0.77597625950E+02 0.  0.
        -11    1    5    5    0    0 -0.25805411601E+02  0.12350984876E+02  0.58736130285E+02  0.65332986279E+02  0.00000000000E+00 0.  1.
         12    1    5    5    0    0  0.54002058916E+02  0.28733063465E+01  0.72217242020E+02  0.90220886171E+02  0.00000000000E+00 0. -1.
         11    1    3    3    0    0  0.29244625322E+02  0.26156349165E+00 -0.51719321861E+03  0.51801944163E+03  0.00000000000E+00 0. -1.
        -12    1    3    3    0    0  0.36402706919E+02  0.17789507328E+01 -0.75724038673E+02  0.84038394617E+02  0.00000000000E+00 0.  1.
          5    1    4    4  501    0 -0.21675536750E+02 -0.18524462317E+02 -0.57282927597E+03  0.57355369096E+03  0.41800000000E+01 0.  1.
         -5    1    4    4    0  501 -0.72168442806E+02  0.12596568701E+01 -0.15426590718E+03  0.17036817012E+03  0.41800000000E+01 0.  1.
</event>
<event>
11    1  0.7882745E-009  0.1394782E+03  0.7561462E-02  0.1108142E+00
         22   -1    0    0    0    0  0.00000000000E+00  0.00000000000E+00  0.20536080779E+04  0.20536080779E+04  0.00000000000E+00 0.  1.
         22   -1    0    0    0    0 -0.00000000000E+00 -0.00000000000E+00 -0.45306150433E+03  0.45306150433E+03  0.00000000000E+00 0. -1.
         24    2    1    2    0    0  0.53852357536E+01  0.42841755279E+02 -0.43524590947E+03  0.44404599239E+03  0.76638273021E+02 0.  0.
         25    2    1    2    0    0  0.55612713693E+02 -0.50526704817E+02  0.43827192417E+03  0.46192646227E+03  0.12509218686E+03 0.  0.
        -24    2    1    2    0    0 -0.60997949447E+02  0.76849495381E+01  0.15975205589E+04  0.16006971276E+04  0.79872084426E+02 0.  0.
        -13    1    3    3    0    0 -0.23863291657E+02 -0.85758456845E+01 -0.80423531332E+02  0.84326426521E+02  0.00000000000E+00 0.  1.
         14    1    3    3    0    0  0.29248527411E+02  0.51417600963E+02 -0.35482237813E+03  0.35971956587E+03  0.00000000000E+00 0. -1.
         11    1    5    5    0    0 -0.87178319546E+01 -0.43919428579E+01  0.19909056647E+02  0.22173414095E+02  0.00000000000E+00 0. -1.
        -12    1    5    5    0    0 -0.52280117492E+02  0.12076892396E+02  0.15776115023E+04  0.15785237135E+04  0.00000000000E+00 0.  1.
          5    1    4    4  501    0 -0.25707053976E+02 -0.14770957746E+02  0.26949343092E+03  0.27115164673E+03  0.41800000000E+01 0. -1.
         -5    1    4    4    0  501  0.81319767669E+02 -0.35755747071E+02  0.16877849325E+03  0.19077481554E+03  0.41800000000E+01 0. -1.
</event>
<event>
11    1  0.7882745E-009  0.2405177E+03  0.7561462E-02  0.1029075E+00
         22   -1    0    0    0    0  0.00000000000E+00  0.00000000000E+00  0.45015259790E+03  0.45015259790E+03  0.00000000000E+00 0.  1.
         22   -1    0    0    0    0 -0.00000000000E+00 -0.00000000000E+00 -0.22743777580E+03  0.22743777580E+03  0.00000000000E+00 0. -1.
         24    2    1    2    0    0  0.30845260096E+02 -0.44097672919E+02 -0.61377861804E+02  0.11447588450E+03  0.80258653026E+02 0.  0.
         25    2    1    2    0    0 -0.22309947581E+03  0.64368610215E+02  0.92841523366E+02  0.27961313842E+03  0.12508902681E+03 0.  0.
        -24    2    1    2    0    0  0.19225421572E+03 -0.20270937296E+02  0.19125116054E+03  0.28350135079E+03  0.80146210958E+02 0.  0.
        -13    1    3    3    0    0 -0.20771831336E+02 -0.54062988235E+01  0.48695613438E+01  0.22009308751E+02  0.00000000000E+00 0.  1.
         14    1    3    3    0    0  0.51617091432E+02 -0.38691374096E+02 -0.66247423148E+02  0.92466575751E+02  0.00000000000E+00 0. -1.
         11    1    5    5    0    0  0.57127326707E+02  0.27479812999E+02  0.39100630596E+02  0.74481748719E+02  0.00000000000E+00 0. -1.
        -12    1    5    5    0    0  0.13512688901E+03 -0.47750750294E+02  0.15215052994E+03  0.20901960207E+03  0.00000000000E+00 0.  1.
          5    1    4    4  501    0 -0.81009227977E+02 -0.20344987010E+02 -0.10849727645E+02  0.84330317822E+02  0.41800000000E+01 0. -1.
         -5    1    4    4    0  501 -0.14209024784E+03  0.84713597225E+02  0.10369125101E+03  0.19528282060E+03  0.41800000000E+01 0. -1.
</event>
<event>
11    1  0.7882745E-009  0.1481274E+03  0.7561462E-02  0.1098808E+00
         22   -1    0    0    0    0  0.00000000000E+00  0.00000000000E+00  0.26805849919E+03  0.26805849919E+03  0.00000000000E+00 0.  1.
         22   -1    0    0    0    0 -0.00000000000E+00 -0.00000000000E+00 -0.13119447330E+04  0.13119447330E+04  0.00000000000E+00 0.  1.
         24    2    1    2    0    0 -0.52883765942E+02 -0.62414731329E+02 -0.11166907966E+04  0.11221703763E+04  0.74670789353E+02 0.  0.
         25    2    1    2    0    0  0.26655014931E+02  0.50661313513E+02 -0.15920626877E+03  0.21041714607E+03  0.12510667782E+03 0.  0.
        -24    2    1    2    0    0  0.26228751011E+02  0.11753417816E+02  0.23201083154E+03  0.24741570988E+03  0.80990229865E+02 0.  0.
        -13    1    3    3    0    0 -0.54568527780E+02 -0.64183181291E+02 -0.11165501495E+04  0.11197238237E+04  0.00000000000E+00 0.  1.
         14    1    3    3    0    0  0.16847618378E+01  0.17684499626E+01 -0.14064705249E+00  0.24465525365E+01  0.00000000000E+00 0. -1.
         13    1    5    5    0    0 -0.27788878505E+02  0.10344590836E+02  0.11092542174E+03  0.11482021388E+03  0.00000000000E+00 0. -1.
        -14    1    5    5    0    0  0.54017629517E+02  0.14088269800E+01  0.12108540980E+03  0.13259549599E+03  0.00000000000E+00 0.  1.
          5    1    4    4  501    0  0.19831839021E+02  0.89769700675E+02 -0.80940300504E+02  0.12255898843E+03  0.41800000000E+01 0.  1.
         -5    1    4    4    0  501  0.68231759103E+01 -0.39108387162E+02 -0.78265968264E+02  0.87858157642E+02  0.41800000000E+01 0.  1.
</event>
<event>
11    1  0.7882745E-009  0.1338680E+03  0.7561462E-02  0.1114606E+00
         22   -1    0    0    0    0  0.00000000000E+00  0.00000000000E+00  0.78761825826E+03  0.78761825826E+03  0.00000000000E+00 0. -1.
         22   -1    0    0    0    0 -0.00000000000E+00 -0.00000000000E+00 -0.29285355131E+03  0.29285355131E+03  0.00000000000E+00 0.  1.
        -24    2    1    2    0    0 -0.21187806475E+02 -0.11937103428E+02 -0.26528274003E+03  0.27798636061E+03  0.79435929832E+02 0.  0.
         25    2    1    2    0    0  0.64701207075E+02  0.95854296543E+01  0.27510338706E+03  0.30920490719E+03  0.12509066471E+03 0.  0.
         24    2    1    2    0    0 -0.43513400600E+02  0.23516737737E+01  0.48494405991E+03  0.49328054176E+03  0.79094912844E+02 0.  0.
        -13    1    5    5    0    0 -0.29257153131E+02 -0.34621099556E+02  0.17340177952E+03  0.17922828650E+03  0.00000000000E+00 0.  1.
         14    1    5    5    0    0 -0.14256247469E+02  0.36972773330E+02  0.31154228040E+03  0.31405225526E+03  0.00000000000E+00 0. -1.
         11    1    3    3    0    0 -0.11302405123E+02 -0.22009516382E+02 -0.18734620323E+02  0.31034644699E+02  0.00000000000E+00 0. -1.
        -12    1    3    3    0    0 -0.98854013519E+01  0.10072412954E+02 -0.24654811970E+03  0.24695171591E+03  0.00000000000E+00 0.  1.
          5    1    4    4  501    0  0.10230328055E+03  0.17431793764E+01  0.19401249163E+03  0.21937939555E+03  0.41800000000E+01 0.  1.
         -5    1    4    4    0  501 -0.37602073470E+02  0.78422502780E+01  0.81090895436E+02  0.89825511639E+02  0.41800000000E+01 0.  1.
</event>
<event>
11    1  0.7882745E-009  0.1479639E+03  0.7561462E-02  0.1098978E+00
         22   -1    0    0    0    0  0.00000000000E+00  0.00000000000E+00  0.23387200270E+03  0.23387200270E+03  0.00000000000E+00 0. -1.
         22   -1    0    0    0    0 -0.00000000000E+00 -0.00000000000E+00 -0.53451763010E+03  0.53451763010E+03  0.00000000000E+00 0. -1.
         24    2    1    2    0    0  0.70378391268E+02 -0.26010091323E+02 -0.24970400754E+03  0.27263385966E+03  0.79671119239E+02 0.  0.
         25    2    1    2    0    0 -0.69421418852E+02  0.10343194648E+03 -0.22684329285E+03  0.28744227954E+03  0.12509070152E+03 0.  0.
        -24    2    1    2    0    0 -0.95697241650E+00 -0.77421855158E+02  0.17590167299E+03  0.20831349362E+03  0.80362015964E+02 0.  0.
        -13    1    3    3    0    0  0.18615632912E+02  0.28626680204E+02 -0.75018266831E+02  0.82424322664E+02  0.00000000000E+00 0.  1.
         14    1    3    3    0    0  0.51762758356E+02 -0.54636771527E+02 -0.17468574071E+03  0.19020953699E+03  0.00000000000E+00 0. -1.
         13    1    5    5    0    0 -0.38246259087E+02 -0.53839745194E+02  0.12131191115E+03  0.13812340238E+03  0.00000000000E+00 0. -1.
        -14    1    5    5    0    0  0.37289286670E+02 -0.23582109964E+02  0.54589761836E+02  0.70190091238E+02  0.00000000000E+00 0.  1.
          5    1    4    4  501    0 -0.30812868383E+02  0.29854042898E+02  0.27954249096E+01  0.43197031562E+02  0.41800000000E+01 0.  1.
         -5    1    4    4    0  501 -0.38608550469E+02  0.73577903583E+02 -0.22963871776E+03  0.24424524798E+03  0.41800000000E+01 0.  1.
</event>
<event>
11    1  0.7882745E-009  0.3158092E+03  0.7561462E-02  0.9937139E-01
         22   -1    0    0    0    0  0.00000000000E+00  0.00000000000E+00  0.58158356782E+02  0.58158356782E+02  0.00000000000E+00 0.  1.
         22   -1    0    0    0    0 -0.00000000000E+00 -0.00000000000E+00 -0.22113771146E+04  0.22113771146E+04  0.00000000000E+00 0.  1.
         24    2    1    2    0    0  0.55426337789E+02  0.12110718728E+03 -0.11682950384E+04  0.11785777157E+04  0.79956897326E+02 0.  0.
         25    2    1    2    0    0  0.82189935478E+02  0.34638152615E+02 -0.75493784824E+03  0.77041180688E+03  0.12509280700E+03 0.  0.
        -24    2    1    2    0    0 -0.13761627327E+03 -0.15574533989E+03 -0.22998587118E+03  0.32054594882E+03  0.81617123180E+02 0.  0.
        -11    1    3    3    0    0  0.41172117140E+02  0.30244896475E+02 -0.22098300231E+03  0.22681134077E+03  0.00000000000E+00 0.  1.
         12    1    3    3    0    0  0.14254220649E+02  0.90862290802E+02 -0.94731203613E+03  0.95176637496E+03  0.00000000000E+00 0. -1.
         13    1    5    5    0    0 -0.29731219220E-01  0.41823284359E+01  0.37956651195E+01  0.56479933419E+01  0.00000000000E+00 0. -1.
        -14    1    5    5    0    0 -0.13758654205E+03 -0.15992766833E+03 -0.23378153630E+03  0.31489795548E+03  0.00000000000E+00 0.  1.
          5    1    4    4  501    0  0.42407906043E+02 -0.15584852038E+01 -0.65874941253E+03  0.66012810899E+03  0.41800000000E+01 0. -1.
         -5    1    4    4    0  501  0.39782029436E+02  0.36196637819E+02 -0.96188435704E+02  0.11028369788E+03  0.41800000000E+01 0. -1.
</event>
<event>
11    1  0.7882745E-009  0.1435451E+03  0.7561462E-02  0.1103663E+00
         22   -1    0    0    0    0  0.00000000000E+00  0.00000000000E+00  0.12366145151E+04  0.12366145151E+04  0.00000000000E+00 0.  1.
         22   -1    0    0    0    0 -0.00000000000E+00 -0.00000000000E+00 -0.25409703934E+03  0.25409703934E+03  0.00000000000E+00 0.  1.
         24    2    1    2    0    0 -0.22964881905E+02  0.44363894036E+02 -0.18105084364E+03  0.20487014586E+03  0.81834148059E+02 0.  0.
         25    2    1    2    0    0 -0.40380573004E+01  0.22843884092E+02  0.10324289512E+02  0.12763959065E+03  0.12508846950E+03 0.  0.
        -24    2    1    2    0    0  0.27002939205E+02 -0.67207778128E+02  0.11532440299E+04  0.11582018179E+04  0.78826482758E+02 0.  0.
        -11    1    3    3    0    0 -0.32236954828E+02  0.29323157065E+02 -0.18203029546E+03  0.18717397592E+03  0.00000000000E+00 0.  1.
         12    1    3    3    0    0  0.92720729227E+01  0.15040736971E+02  0.97945181606E+00  0.17696169947E+02  0.00000000000E+00 0. -1.
         13    1    5    5    0    0  0.31522068156E+02 -0.17040579999E+01  0.18013742662E+03  0.18288257725E+03  0.00000000000E+00 0. -1.
        -14    1    5    5    0    0 -0.45191289504E+01 -0.65503720128E+02  0.97310660329E+03  0.97531924068E+03  0.00000000000E+00 0.  1.
          5    1    4    4  501    0  0.38501516888E+02 -0.20166613955E+02 -0.31617920137E+02  0.53909409150E+02  0.41800000000E+01 0. -1.
         -5    1    4    4    0  501 -0.42539574188E+02  0.43010498048E+02  0.41942209649E+02  0.73730181504E+02  0.41800000000E+01 0. -1.
</event>
<event>
11    1  0.7882745E-009  0.1656288E+03  0.7561462E-02  0.1081900E+00
         22   -1    0    0    0    0  0.00000000000E+00  0.00000000000E+00  0.18994205651E+03  0.18994205651E+03  0.00000000000E+00 0. -1.
         22   -1    0    0    0    0 -0.00000000000E+00 -0.00000000000E+00 -0.72978545008E+03  0.72978545008E+03  0.00000000000E+00 0.  1.
         24    2    1    2    0    0  0.67549026066E+01  0.10754586944E+03 -0.62260573158E+03  0.63691291209E+03  0.80052594297E+02 0.  0.
         25    2    1    2    0    0 -0.34895717811E+01 -0.11841799356E+03  0.35845380118E+01  0.17232436240E+03  0.12509132126E+03 0.  0.
        -24    2    1    2    0    0 -0.32653308255E+01  0.10872124114E+02  0.79177799989E+02  0.11049023210E+03  0.76224024494E+02 0.  0.
        -13    1    3    3    0    0  0.29250334897E+01  0.11301607690E+03 -0.61916357719E+03  0.62940028978E+03  0.00000000000E+00 0.  1.
         14    1    3    3    0    0  0.38298691169E+01 -0.54702074615E+01 -0.34421543848E+01  0.75126223074E+01  0.00000000000E+00 0. -1.
         13    1    5    5    0    0  0.23830324039E+02  0.32994378447E+02  0.32077490648E+02  0.51821605139E+02  0.00000000000E+00 0. -1.
        -14    1    5    5    0    0 -0.27095654865E+02 -0.22122254333E+02  0.47100309341E+02  0.58668626960E+02  0.00000000000E+00 0.  1.
          5    1    4    4  501    0  0.36446017753E+02 -0.31720087539E+02 -0.44092345046E+02  0.65544515066E+02  0.41800000000E+01 0.  1.
         -5    1    4    4    0  501 -0.39935589534E+02 -0.86697906016E+02  0.47676883058E+02  0.10677984734E+03  0.41800000000E+01 0.  1.
</event>
<event>
11    1  0.7882745E-009  0.1590578E+03  0.7561462E-02  0.1087967E+00
         22   -1    0    0    0    0  0.00000000000E+00  0.00000000000E+00  0.65048400358E+03  0.65048400358E+03  0.00000000000E+00 0. -1.
         22   -1    0    0    0    0 -0.00000000000E+00 -0.00000000000E+00 -0.58938218591E+03  0.58938218591E+03  0.00000000000E+00 0. -1.
         24    2    1    2    0    0 -0.99325952642E+02  0.12109334476E+02 -0.54064097513E+03  0.55609466123E+03  0.83284616875E+02 0.  0.
         25    2    1    2    0    0  0.59378969411E+02 -0.42554310620E+02  0.10725843089E+03  0.18024657622E+03  0.12509087049E+03 0.  0.
        -24    2    1    2    0    0  0.39946983232E+02  0.30444976143E+02  0.49448436190E+03  0.50352495205E+03  0.80622175138E+02 0.  0.
        -13    1    3    3    0    0 -0.42771167950E+02 -0.16684408749E+02 -0.90266323439E+02  0.10127068406E+03  0.00000000000E+00 0.  1.
         14    1    3    3    0    0 -0.56554784692E+02  0.28793743225E+02 -0.45037465169E+03  0.45482397717E+03  0.00000000000E+00 0. -1.
         13    1    5    5    0    0  0.15179963294E+01  0.32686343515E+02  0.40226800235E+03  0.40359663909E+03  0.00000000000E+00 0. -1.
        -14    1    5    5    0    0  0.38428986902E+02 -0.22413673714E+01  0.92216359548E+02  0.99928312957E+02  0.00000000000E+00 0.  1.
          5    1    4    4  501    0  0.73749296946E+02 -0.60277809430E+02  0.30562659884E+02  0.10011953700E+03  0.41800000000E+01 0. -1.
         -5    1    4    4    0  501 -0.14370327536E+02  0.17723498811E+02  0.76695771010E+02  0.80127039222E+02  0.41800000000E+01 0. -1.
</event>
<event>
11    1  0.7882745E-009  0.1483747E+03  0.7561462E-02  0.1098551E+00
         22   -1    0    0    0    0  0.00000000000E+00  0.00000000000E+00  0.88061098410E+03  0.88061098410E+03  0.00000000000E+00 0.  1.
         22   -1    0    0    0    0 -0.00000000000E+00 -0.00000000000E+00 -0.91518742050E+03  0.91518742050E+03  0.00000000000E+00 0. -1.
        -24    2    1    2    0    0 -0.69548257996E+02  0.17591168673E+02 -0.72183000705E+03  0.72985130672E+03  0.80609933856E+02 0.  0.
         25    2    1    2    0    0  0.14100996702E+03  0.15358559829E+02 -0.13743208567E+03  0.23378289421E+03  0.12508863775E+03 0.  0.
         24    2    1    2    0    0 -0.71461709028E+02 -0.32949728502E+02  0.82468565632E+03  0.83216420367E+03  0.78729725489E+02 0.  0.
        -11    1    5    5    0    0 -0.21907453446E+02 -0.36283041388E+01  0.59352720615E+03  0.59394245979E+03  0.00000000000E+00 0.  1.
         12    1    5    5    0    0 -0.49554255582E+02 -0.29321424363E+02  0.23115845017E+03  0.23822174388E+03  0.00000000000E+00 0. -1.
         13    1    3    3    0    0 -0.22557453732E+02  0.16625209438E+02 -0.57499505440E+03  0.57567746950E+03  0.00000000000E+00 0. -1.
        -14    1    3    3    0    0 -0.46990804264E+02  0.96595923417E+00 -0.14683495265E+03  0.15417383722E+03  0.00000000000E+00 0.  1.
          5    1    4    4  501    0  0.68708250460E+02 -0.37938089662E+02 -0.12088951075E+02  0.79521930727E+02  0.41800000000E+01 0. -1.
         -5    1    4    4    0  501  0.72301716564E+02  0.53296649491E+02 -0.12534313460E+03  0.15426096349E+03  0.41800000000E+01 0. -1.
</event>
<event>
11    1  0.7882745E-009  0.1477756E+03  0.7561462E-02  0.1099174E+00
         22   -1    0    0    0    0  0.00000000000E+00  0.00000000000E+00  0.17185940967E+04  0.17185940967E+04  0.00000000000E+00 0.  1.
         22   -1    0    0    0    0 -0.00000000000E+00 -0.00000000000E+00 -0.75787857988E+02  0.75787857988E+02  0.00000000000E+00 0.  1.
        -24    2    1    2    0    0  0.39826672706E+02 -0.68805879060E+02 -0.14086038683E+02  0.11341735202E+03  0.79653414249E+02 0.  0.
         25    2    1    2    0    0  0.15123609712E+02  0.86361983496E+02  0.58938278788E+03  0.60885714484E+03  0.12509131231E+03 0.  0.
         24    2    1    2    0    0 -0.54950282417E+02 -0.17556104436E+02  0.10675094895E+04  0.10721074578E+04  0.80685442155E+02 0.  0.
        -11    1    5    5    0    0 -0.60105299981E+02  0.21909962956E+01  0.99398434455E+03  0.99580235226E+03  0.00000000000E+00 0.  1.
         12    1    5    5    0    0  0.51550175638E+01 -0.19747100732E+02  0.73525144967E+02  0.76305105569E+02  0.00000000000E+00 0. -1.
         11    1    3    3    0    0  0.61210516850E+01  0.16837882521E+02  0.65836031756E+01  0.19087309719E+02  0.00000000000E+00 0. -1.
        -12    1    3    3    0    0  0.33705621021E+02 -0.85643761580E+02 -0.20669641859E+02  0.94330042302E+02  0.00000000000E+00 0.  1.
          5    1    4    4  501    0  0.14905392750E+02 -0.11869348848E+02  0.11446914401E+02  0.22617613146E+02  0.41800000000E+01 0.  1.
         -5    1    4    4    0  501  0.21821696140E+00  0.98231332344E+02  0.57793587348E+03  0.58623953170E+03  0.41800000000E+01 0.  1.
</event>
<event>
11    1  0.7882745E-009  0.1343490E+03  0.7561462E-02  0.1114038E+00
         22   -1    0    0    0    0  0.00000000000E+00  0.00000000000E+00  0.95520549987E+03  0.95520549987E+03  0.00000000000E+00 0.  1.
         22   -1    0    0    0    0 -0.00000000000E+00 -0.00000000000E+00 -0.73741362418E+03  0.73741362418E+03  0.00000000000E+00 0.  1.
         24    2    1    2    0    0  0.16861664041E+02  0.47184363654E+02 -0.68057630622E+03  0.68707422006E+03  0.79851082643E+02 0.  0.
         25    2    1    2    0    0  0.13369486393E+02 -0.27492334479E+02  0.29171106724E+02  0.13203805485E+03  0.12509405597E+03 0.  0.
        -24    2    1    2    0    0 -0.30231150434E+02 -0.19692029175E+02  0.86919707518E+03  0.87350684914E+03  0.78796963901E+02 0.  0.
        -13    1    3    3    0    0  0.50036574994E+01  0.25666387042E+02 -0.63289710325E+03  0.63343708710E+03  0.00000000000E+00 0.  1.
         14    1    3    3    0    0  0.11858006541E+02  0.21517976612E+02 -0.47679202973E+02  0.53637132965E+02  0.00000000000E+00 0. -1.
         13    1    5    5    0    0 -0.42444561868E+01 -0.25804924273E+02  0.86789205601E+02  0.90643674539E+02  0.00000000000E+00 0. -1.
        -14    1    5    5    0    0 -0.25986694247E+02  0.61128950980E+01  0.78240786958E+03  0.78286317460E+03  0.00000000000E+00 0.  1.
          5    1    4    4  501    0 -0.27692616396E+02  0.34030156903E+02  0.36994316076E+02  0.57541154001E+02  0.41800000000E+01 0.  1.
         -5    1    4    4    0  501  0.41062102790E+02 -0.61522491383E+02 -0.78232093523E+01  0.74496900848E+02  0.41800000000E+01 0.  1.
</event>
<event>
11    1  0.7882745E-009  0.1497607E+03  0.7561462E-02  0.1097124E+00
         22   -1    0    0    0    0  0.00000000000E+00  0.00000000000E+00  0.23499332475E+03  0.23499332475E+03  0.00000000000E+00 0. -1.
         22   -1    0    0    0    0 -0.00000000000E+00 -0.00000000000E+00 -0.52755298582E+03  0.52755298582E+03  0.00000000000E+00 0.  1.
        -24    2    1    2    0    0  0.36872298952E+02 -0.29827876057E+02 -0.41594742308E+03  0.42602350393E+03  0.78958840604E+02 0.  0.
         25    2    1    2    0    0  0.19626584626E+02  0.89976282158E+02 -0.14755805465E+02  0.15602263042E+03  0.12507754887E+03 0.  0.
         24    2    1    2    0    0 -0.56498883578E+02 -0.60148406101E+02  0.13814356748E+03  0.18050017624E+03  0.81772328960E+02 0.  0.
        -11    1    5    5    0    0  0.99283153063E+01 -0.46416035444E+02  0.67954208879E+02  0.82890254527E+02  0.00000000000E+00 0.  1.
         12    1    5    5    0    0 -0.66427198884E+02 -0.13732370657E+02  0.70189358599E+02  0.97609921709E+02  0.00000000000E+00 0. -1.
         11    1    3    3    0    0 -0.56160050947E+00 -0.75826802996E+01  0.19803122833E+00  0.76060273485E+01  0.00000000000E+00 0. -1.
        -12    1    3    3    0    0  0.37433899461E+02 -0.22245195757E+02 -0.41614545431E+03  0.41841747658E+03  0.00000000000E+00 0.  1.
          5    1    4    4  501    0 -0.15982421983E+01  0.44130543271E+01 -0.57582815115E+02  0.57924799725E+02  0.41800000000E+01 0.  1.
         -5    1    4    4    0  501  0.21224826825E+02  0.85563227831E+02  0.42827009650E+02  0.98097830690E+02  0.41800000000E+01 0.  1.
</event>
<event>
11    1  0.7882745E-009  0.2447738E+03  0.7561462E-02  0.1026721E+00
         22   -1    0    0    0    0  0.00000000000E+00  0.00000000000E+00  0.60627562096E+02  0.60627562096E+02  0.00000000000E+00 0. -1.
         22   -1    0    0    0    0 -0.00000000000E+00 -0.00000000000E+00 -0.27924421294E+04  0.27924421294E+04  0.00000000000E+00 0. -1.
        -24    2    1    2    0    0 -0.91642272844E+02 -0.18901556696E+03 -0.22645954428E+04  0.22758116140E+04  0.82466915222E+02 0.  0.
         25    2    1    2    0    0  0.67803709829E+02  0.20315909946E+03 -0.37747270831E+03  0.45166804907E+03  0.12508964092E+03 0.  0.
         24    2    1    2    0    0  0.23838563016E+02 -0.14143532507E+02 -0.89746416141E+02  0.12559002839E+03  0.83367376244E+02 0.  0.
        -11    1    5    5    0    0  0.37872371755E+02 -0.57523505915E+01 -0.99452644659E+02  0.10657501869E+03  0.00000000000E+00 0.  1.
         12    1    5    5    0    0 -0.14033808739E+02 -0.83911819153E+01  0.97062285180E+01  0.19015009695E+02  0.00000000000E+00 0. -1.
         11    1    3    3    0    0 -0.51529171091E+01 -0.61954366086E+02 -0.99605838168E+03  0.99799659105E+03  0.00000000000E+00 0. -1.
        -12    1    3    3    0    0 -0.86489355735E+02 -0.12706120087E+03 -0.12685370612E+04  0.12778150230E+04  0.00000000000E+00 0.  1.
          5    1    4    4  501    0  0.21121226229E+02 -0.16229314431E+01 -0.10719947032E+03  0.10935236139E+03  0.41800000000E+01 0.  1.
         -5    1    4    4    0  501  0.46682483599E+02  0.20478203091E+03 -0.27027323799E+03  0.34231568768E+03  0.41800000000E+01 0.  1.
</event>
<event>
11    1  0.7882745E-009  0.1495405E+03  0.7561462E-02  0.1097349E+00
         22   -1    0    0    0    0  0.00000000000E+00  0.00000000000E+00  0.73412541881E+03  0.73412541881E+03  0.00000000000E+00 0.  1.
         22   -1    0    0    0    0 -0.00000000000E+00 -0.00000000000E+00 -0.10420127136E+04  0.10420127136E+04  0.00000000000E+00 0.  1.
         24    2    1    2    0    0  0.74432194833E+02 -0.25130455378E+02 -0.89621742109E+03  0.90353254356E+03  0.83628344382E+02 0.  0.
         25    2    1    2    0    0 -0.12767022025E+03  0.72107954071E+02 -0.70694368125E+02  0.20529001127E+03  0.12508818034E+03 0.  0.
        -24    2    1    2    0    0  0.53238025421E+02 -0.46977498693E+02  0.65902449444E+03  0.66731557757E+03  0.77172683405E+02 0.  0.
        -13    1    3    3    0    0  0.21395193304E+02 -0.17635512655E+02 -0.68726008366E+03  0.68781915370E+03  0.00000000000E+00 0.  1.
         14    1    3    3    0    0  0.53037001529E+02 -0.74949427228E+01 -0.20895733743E+03  0.21571338986E+03  0.00000000000E+00 0. -1.
         13    1    5    5    0    0  0.12125472095E+02 -0.52262340162E+02  0.22463784963E+03  0.23095571602E+03  0.00000000000E+00 0. -1.
        -14    1    5    5    0    0  0.41112553326E+02  0.52848414688E+01  0.43438664481E+03  0.43635986156E+03  0.00000000000E+00 0.  1.
          5    1    4    4  501    0 -0.10348843389E+03  0.10585905418E+03 -0.69365621173E+02  0.16353916075E+03  0.41800000000E+01 0. -1.
         -5    1    4    4    0  501 -0.24181786367E+02 -0.33751100104E+02 -0.13287469523E+01  0.41750850514E+02  0.41800000000E+01 0. -1.
</event>
<event>
11    1  0.7882745E-009  0.2425967E+03  0.7561462E-02  0.1027919E+00
         22   -1    0    0    0    0  0.00000000000E+00  0.00000000000E+00  0.17032337696E+03  0.17032337696E+03  0.00000000000E+00 0. -1.
         22   -1    0    0    0    0 -0.00000000000E+00 -0.00000000000E+00 -0.13531653442E+04  0.13531653442E+04  0.00000000000E+00 0. -1.
        -24    2    1    2    0    0  0.15755160255E+03  0.14641881542E+03 -0.10685047811E+04  0.10928538673E+04  0.79788038707E+02 0.  0.
         25    2    1    2    0    0 -0.13379165187E+03 -0.12036287922E+03 -0.20826486054E+03  0.30234001559E+03  0.12509118308E+03 0.  0.
         24    2    1    2    0    0 -0.23759950680E+02 -0.26055936204E+02  0.93927674369E+02  0.12829483828E+03  0.79960680652E+02 0.  0.
        -11    1    5    5    0    0  0.17612166635E+01 -0.10316661204E+02 -0.13316970873E+02  0.16937446553E+02  0.00000000000E+00 0.  1.
         12    1    5    5    0    0 -0.25521167343E+02 -0.15739275000E+02  0.10724464524E+03  0.11135739173E+03  0.00000000000E+00 0. -1.
         11    1    3    3    0    0  0.12543689912E+03  0.97267996856E+02 -0.91175996426E+03  0.92547377667E+03  0.00000000000E+00 0. -1.
        -12    1    3    3    0    0  0.32114703424E+02  0.49150818566E+02 -0.15674481681E+03  0.16738009062E+03  0.00000000000E+00 0.  1.
          5    1    4    4  501    0 -0.12084528234E+03 -0.12433138556E+03 -0.22259627322E+03  0.28218513240E+03  0.41800000000E+01 0.  1.
         -5    1    4    4    0  501 -0.12946369532E+02  0.39685063466E+01  0.14331412679E+02  0.20154883181E+02  0.41800000000E+01 0.  1.
</event>
<event>
11    1  0.7882745E-009  0.1701739E+03  0.7561462E-02  0.1077880E+00
         22   -1    0    0    0    0  0.00000000000E+00  0.00000000000E+00  0.14236820198E+03  0.14236820198E+03  0.00000000000E+00 0.  1.
         22   -1    0    0    0    0 -0.00000000000E+00 -0.00000000000E+00 -0.13210935993E+04  0.13210935993E+04  0.00000000000E+00 0. -1.
         24    2    1    2    0    0 -0.75419717608E+02 -0.26980457822E+02 -0.10376592401E+04  0.10438812038E+04  0.80840523250E+02 0.  0.
         25    2    1    2    0    0  0.84228962115E+02 -0.91007822008E+02 -0.19752561685E+03  0.26465176588E+03  0.12508895293E+03 0.  0.
        -24    2    1    2    0    0 -0.88092445067E+01  0.11798827983E+03  0.56459459566E+02  0.15492883165E+03  0.82561706225E+02 0.  0.
        -13    1    3    3    0    0  0.93366353656E+01 -0.25611664728E+02 -0.34000329531E+03  0.34109437250E+03  0.00000000000E+00 0.  1.
         14    1    3    3    0    0 -0.84756352974E+02 -0.13687930940E+01 -0.69765594475E+03  0.70278683127E+03  0.00000000000E+00 0. -1.
         11    1    5    5    0    0  0.26202364503E+02  0.59202336742E+02 -0.22360860957E+01  0.64780249014E+02  0.00000000000E+00 0. -1.
        -12    1    5    5    0    0 -0.35011609009E+02  0.58785943088E+02  0.58695545661E+02  0.90148582633E+02  0.00000000000E+00 0.  1.
          5    1    4    4  501    0 -0.12191751173E+02  0.12765603548E+02  0.37175330369E+01  0.18517340049E+02  0.41800000000E+01 0. -1.
         -5    1    4    4    0  501  0.96420713288E+02 -0.10377342556E+03 -0.20124314989E+03  0.24613442583E+03  0.41800000000E+01 0. -1.
</event>
<event>
11    1  0.7882745E-009  0.1623730E+03  0.7561462E-02  0.1084866E+00
         22   -1    0    0    0    0  0.00000000000E+00  0.00000000000E+00  0.38444060227E+03  0.38444060227E+03  0.00000000000E+00 0.  1.
         22   -1    0    0    0    0 -0.00000000000E+00 -0.00000000000E+00 -0.24245308832E+04  0.24245308832E+04  0.00000000000E+00 0. -1.
        -24    2    1    2    0    0  0.14157941022E+02  0.54431930243E+02 -0.23607516344E+04  0.23628233727E+04  0.81380150685E+02 0.  0.
         25    2    1    2    0    0 -0.13804367140E+01  0.66696348785E+02  0.77308851688E+02  0.16147663138E+03  0.12509090849E+03 0.  0.
         24    2    1    2    0    0 -0.12777504308E+02 -0.12112827903E+03  0.24335250180E+03  0.28467148138E+03  0.83558886896E+02 0.  0.
        -11    1    5    5    0    0  0.55252832549E+01 -0.12468932632E+03  0.18304923472E+03  0.22155130147E+03  0.00000000000E+00 0.  1.
         12    1    5    5    0    0 -0.18302787563E+02  0.35610472895E+01  0.60303267083E+02  0.63120179905E+02  0.00000000000E+00 0. -1.
         13    1    3    3    0    0  0.38875068727E+02  0.61428339446E+02 -0.16297505271E+04  0.16313710469E+04  0.00000000000E+00 0. -1.
        -14    1    3    3    0    0 -0.24717127705E+02 -0.69964092022E+01 -0.73100110731E+03  0.73145232588E+03  0.00000000000E+00 0.  1.
          5    1    4    4  501    0  0.27327954365E+01 -0.12903285985E+02 -0.26878553882E+02  0.30230647014E+02  0.41800000000E+01 0.  1.
         -5    1    4    4    0  501 -0.41132321505E+01  0.79599634769E+02  0.10418740557E+03  0.13124598437E+03  0.41800000000E+01 0.  1.
</event>
<event>
11    1  0.7882745E-009  0.1641184E+03  0.7561462E-02  0.1083267E+00
         22   -1    0    0    0    0  0.00000000000E+00  0.00000000000E+00  0.10336503433E+04  0.10336503433E+04  0.00000000000E+00 0. -1.
         22   -1    0    0    0    0 -0.00000000000E+00 -0.00000000000E+00 -0.36208146330E+03  0.36208146330E+03  0.00000000000E+00 0.  1.
         24    2    1    2    0    0 -0.61661953037E+02  0.86775061130E+02 -0.32111390791E+03  0.34749604335E+03  0.79418200714E+02 0.  0.
         25    2    1    2    0    0  0.94874166257E+02 -0.56970644252E+02  0.25214411344E+03  0.30244162453E+03  0.12509004987E+03 0.  0.
        -24    2    1    2    0    0 -0.33212213220E+02 -0.29804416879E+02  0.74053867443E+03  0.74579413868E+03  0.76289020140E+02 0.  0.
        -11    1    3    3    0    0 -0.84248164866E+01  0.39710540111E+02 -0.22118045934E+03  0.22487485436E+03  0.00000000000E+00 0.  1.
         12    1    3    3    0    0 -0.53237136550E+02  0.47064521019E+02 -0.99933448569E+02  0.12262118899E+03  0.00000000000E+00 0. -1.
         13    1    5    5    0    0 -0.51467933847E+02 -0.13097059288E+02  0.64209863121E+03  0.64429118679E+03  0.00000000000E+00 0. -1.
        -14    1    5    5    0    0  0.18255720626E+02 -0.16707357590E+02  0.98440043220E+02  0.10150295189E+03  0.00000000000E+00 0.  1.
          5    1    4    4  501    0  0.93305440395E+01  0.46302999170E+01 -0.12943792036E+02  0.17132217651E+02  0.41800000000E+01 0. -1.
         -5    1    4    4    0  501  0.85543622218E+02 -0.61600944169E+02  0.26508790548E+03  0.28530940688E+03  0.41800000000E+01 0. -1.
</event>
<event>
11    1  0.7882745E-009  0.1831460E+03  0.7561462E-02  0.1067126E+00
         22   -1    0    0    0    0  0.00000000000E+00  0.00000000000E+00  0.69515965532E+03  0.69515965532E+03  0.00000000000E+00 0. -1.
         22   -1    0    0    0    0 -0.00000000000E+00 -0.00000000000E+00 -0.79315992786E+03  0.79315992786E+03  0.00000000000E+00 0.  1.
         24    2    1    2    0    0  0.11630882560E+03 -0.71002139701E+02 -0.67497118457E+03  0.69341414819E+03  0.81658031795E+02 0.  0.
         25    2    1    2    0    0 -0.54090653791E+02  0.12190209923E+03 -0.22880477033E+02  0.18427663035E+03  0.12509372342E+03 0.  0.
        -24    2    1    2    0    0 -0.62218171807E+02 -0.50899959529E+02  0.59985138906E+03  0.61062880464E+03  0.81141489426E+02 0.  0.
        -13    1    3    3    0    0  0.57650667898E+02 -0.77157856960E+02 -0.48601258752E+03  0.49546459978E+03  0.00000000000E+00 0.  1.
         14    1    3    3    0    0  0.58658157700E+02  0.61557172591E+01 -0.18895859705E+03  0.19794954842E+03  0.00000000000E+00 0. -1.
         13    1    5    5    0    0 -0.84346682856E+01 -0.40397431431E+02  0.43402185572E+03  0.43597943453E+03  0.00000000000E+00 0. -1.
        -14    1    5    5    0    0 -0.53783503522E+02 -0.10502528098E+02  0.16582953335E+03  0.17464937010E+03  0.00000000000E+00 0.  1.
          5    1    4    4  501    0 -0.76762242083E+02  0.21773704259E+02 -0.57103767555E+01  0.80103787735E+02  0.41800000000E+01 0. -1.
         -5    1    4    4    0  501  0.22671588292E+02  0.10012839497E+03 -0.17170100278E+02  0.10417284262E+03  0.41800000000E+01 0. -1.
</event>
<event>
11    1  0.7882745E-009  0.1595657E+03  0.7561462E-02  0.1087486E+00
         22   -1    0    0    0    0  0.00000000000E+00  0.00000000000E+00  0.65794297164E+03  0.65794297164E+03  0.00000000000E+00 0.  1.
         22   -1    0    0    0    0 -0.00000000000E+00 -0.00000000000E+00 -0.28032006089E+03  0.28032006089E+03  0.00000000000E+00 0. -1.
        -24    2    1    2    0    0  0.96491655417E+02 -0.19144438813E+02 -0.24039582892E+03  0.27208438642E+03  0.81009935624E+02 0.  0.
         25    2    1    2    0    0 -0.11493914480E+03  0.19559264405E+02  0.38202172827E+03  0.41854700733E+03  0.12508966644E+03 0.  0.
         24    2    1    2    0    0  0.18447489379E+02 -0.41482559182E+00  0.23599701140E+03  0.24763163877E+03  0.72707339278E+02 0.  0.
        -13    1    5    5    0    0  0.43735756762E+02 -0.14448255751E+02  0.14150537113E+03  0.14881309947E+03  0.00000000000E+00 0.  1.
         14    1    5    5    0    0 -0.25288267382E+02  0.14033430159E+02  0.94491640269E+02  0.98818539303E+02  0.00000000000E+00 0. -1.
         11    1    3    3    0    0  0.11124013812E+03 -0.17002786098E+02 -0.21217788832E+03  0.24017268653E+03  0.00000000000E+00 0. -1.
        -12    1    3    3    0    0 -0.14748482699E+02 -0.21416527148E+01 -0.28217940594E+02  0.31911699887E+02  0.00000000000E+00 0.  1.
          5    1    4    4  501    0 -0.40985064510E+02  0.52067347313E+02  0.28300317944E+03  0.29068721359E+03  0.41800000000E+01 0.  1.
         -5    1    4    4    0  501 -0.73954080287E+02 -0.32508082908E+02  0.99018548825E+02  0.12785979375E+03  0.41800000000E+01 0.  1.
</event>
<event>
11    1  0.7882745E-009  0.1312137E+03  0.7561462E-02  0.1117787E+00
         22   -1    0    0    0    0  0.00000000000E+00  0.00000000000E+00  0.28440841623E+04  0.28440841623E+04  0.00000000000E+00 0. -1.
         22   -1    0    0    0    0 -0.00000000000E+00 -0.00000000000E+00 -0.14033765682E+03  0.14033765682E+03  0.00000000000E+00 0.  1.
        -24    2    1    2    0    0  0.36575521934E+02 -0.14515922401E+02 -0.10606024815E+03  0.13874261678E+03  0.80325940173E+02 0.  0.
         25    2    1    2    0    0 -0.44627442249E+02  0.65984723886E+01  0.23882222132E+03  0.27334547343E+03  0.12508615436E+03 0.  0.
         24    2    1    2    0    0  0.80519203154E+01  0.79174500127E+01  0.25709845323E+04  0.25723337289E+04  0.82533799710E+02 0.  0.
        -13    1    5    5    0    0  0.30022615732E+01  0.41612405728E+02  0.19243546909E+04  0.19248068948E+04  0.00000000000E+00 0.  1.
         14    1    5    5    0    0  0.50496587421E+01 -0.33694955715E+02  0.64662984145E+03  0.64752683415E+03  0.00000000000E+00 0. -1.
         11    1    3    3    0    0 -0.21517550677E+02  0.11454026399E+02 -0.19001446281E+02  0.30907194448E+02  0.00000000000E+00 0. -1.
        -12    1    3    3    0    0  0.58093072611E+02 -0.25969948801E+02 -0.87058801867E+02  0.10783542233E+03  0.00000000000E+00 0.  1.
          5    1    4    4  501    0 -0.24285290943E+02 -0.58885591602E+02  0.12616559182E+03  0.14139489812E+03  0.41800000000E+01 0.  1.
         -5    1    4    4    0  501 -0.20342151305E+02  0.65484063990E+02  0.11265662950E+03  0.13195057532E+03  0.41800000000E+01 0.  1.
</event>
<event>
11    1  0.7882745E-009  0.1326305E+03  0.7561462E-02  0.1116079E+00
         22   -1    0    0    0    0  0.00000000000E+00  0.00000000000E+00  0.12324623979E+03  0.12324623979E+03  0.00000000000E+00 0.  1.
         22   -1    0    0    0    0 -0.00000000000E+00 -0.00000000000E+00 -0.15199504122E+04  0.15199504122E+04  0.00000000000E+00 0. -1.
         24    2    1    2    0    0  0.16592692327E+02 -0.92024041332E+01 -0.12223027228E+04  0.12251100021E+04  0.80688100370E+02 0.  0.
         25    2    1    2    0    0 -0.40290722965E+02  0.45044481771E+02 -0.25919996445E+03  0.29408212493E+03  0.12508927587E+03 0.  0.
        -24    2    1    2    0    0  0.23698030638E+02 -0.35842077638E+02  0.84798514820E+02  0.12400452493E+03  0.79624637535E+02 0.  0.
        -11    1    3    3    0    0  0.15659416083E+02  0.18186032385E+02 -0.11544536506E+03  0.11791344877E+03  0.00000000000E+00 0.  1.
         12    1    3    3    0    0  0.93327624449E+00 -0.27388436519E+02 -0.11068573577E+04  0.11071965534E+04  0.00000000000E+00 0. -1.
         13    1    5    5    0    0  0.14578886366E+02  0.44745154618E+01 -0.11571864076E+02  0.19143491178E+02  0.00000000000E+00 0. -1.
        -14    1    5    5    0    0  0.91191442718E+01 -0.40316593100E+02  0.96370378896E+02  0.10486103375E+03  0.00000000000E+00 0.  1.
          5    1    4    4  501    0 -0.85002490091E+02  0.19754045609E+02 -0.16079707182E+03  0.18299949821E+03  0.41800000000E+01 0.  1.
         -5    1    4    4    0  501  0.44711767126E+02  0.25290436162E+02 -0.98402892632E+02  0.11108262672E+03  0.41800000000E+01 0.  1.
</event>
<event>
11    1  0.9216186E-009  0.1975076E+03  0.7561462E-02  0.1056300E+00
         22   -1    0    0    0    0  0.00000000000E+00  0.00000000000E+00  0.27391134519E+04  0.27391134519E+04  0.00000000000E+00 0.  1.
         22   -1    0    0    0    0 -0.00000000000E+00 -0.00000000000E+00 -0.63345795611E+03  0.63345795611E+03  0.00000000000E+00 0. -1.
         24    2    1    2    0    0  0.80669003860E+02 -0.58948681626E+02 -0.54061235191E+03  0.55554490602E+03  0.79912404012E+02 0.  0.
         25    2    1    2    0    0 -0.19728560524E+03  0.15242382852E+03  0.15333742656E+03  0.31830028097E+03  0.12509224176E+03 0.  0.
        -24    2    1    2    0    0  0.11661660138E+03 -0.93475146894E+02  0.24929304212E+04  0.24987262210E+04  0.81201035428E+02 0.  0.
        -13    1    3    3    0    0 -0.14032441055E+02 -0.12646974441E+02 -0.44271225290E+02  0.48133114933E+02  0.00000000000E+00 0.  1.
         14    1    3    3    0    0  0.94701444915E+02 -0.46301707185E+02 -0.49634112662E+03  0.50741179109E+03  0.00000000000E+00 0. -1.
         13    1    5    5    0    0  0.48560906183E+02  0.66136985274E+01  0.69236067520E+03  0.69409308250E+03  0.00000000000E+00 0. -1.
        -14    1    5    5    0    0  0.68055695193E+02 -0.10008884542E+03  0.18005697460E+04  0.18046331385E+04  0.00000000000E+00 0.  1.
          5    1    4    4  501    0 -0.25327829577E+02  0.81804549390E+02  0.83491844145E+02  0.11967390564E+03  0.41800000000E+01 0. -1.
         -5    1    4    4    0  501 -0.17195777566E+03  0.70619279130E+02  0.69845582412E+02  0.19862637533E+03  0.41800000000E+01 0. -1.
</event>
<event>
11    1  0.7882745E-009  0.1786851E+03  0.7561462E-02  0.1070711E+00
         22   -1    0    0    0    0  0.00000000000E+00  0.00000000000E+00  0.42551854884E+03  0.42551854884E+03  0.00000000000E+00 0.  1.
         22   -1    0    0    0    0 -0.00000000000E+00 -0.00000000000E+00 -0.23502618857E+03  0.23502618857E+03  0.00000000000E+00 0. -1.
         24    2    1    2    0    0 -0.22464804664E+02  0.72257990431E+01 -0.13701717556E+03  0.16203185596E+03  0.83208991861E+02 0.  0.
         25    2    1    2    0    0  0.23923043903E+02  0.12427442220E+03  0.28349077839E+03  0.33470800243E+03  0.12508389751E+03 0.  0.
        -24    2    1    2    0    0 -0.14582392388E+01 -0.13150022124E+03  0.44018757440E+02  0.16380487902E+03  0.87177707804E+02 0.  0.
        -11    1    3    3    0    0 -0.26586971625E+02  0.18959113704E+02 -0.96381294297E+01  0.34047152473E+02  0.00000000000E+00 0.  1.
         12    1    3    3    0    0  0.41221669604E+01 -0.11733314661E+02 -0.12737904613E+03  0.12798470348E+03  0.00000000000E+00 0. -1.
         13    1    5    5    0    0  0.29247883966E+02 -0.11928303420E+02  0.21775686458E+02  0.38365396644E+02  0.00000000000E+00 0. -1.
        -14    1    5    5    0    0 -0.30706123204E+02 -0.11957191782E+03  0.22243070982E+02  0.12543948238E+03  0.00000000000E+00 0.  1.
          5    1    4    4  501    0 -0.31180137198E+02  0.15208767580E+02  0.14859232193E+03  0.15264553090E+03  0.41800000000E+01 0.  1.
         -5    1    4    4    0  501  0.55103181101E+02  0.10906565462E+03  0.13489845646E+03  0.18206247153E+03  0.41800000000E+01 0.  1.
</event>
<event>
11    1  0.7882745E-009  0.1375544E+03  0.7561462E-02  0.1110320E+00
         22   -1    0    0    0    0  0.00000000000E+00  0.00000000000E+00  0.71949401419E+02  0.71949401419E+02  0.00000000000E+00 0. -1.
         22   -1    0    0    0    0 -0.00000000000E+00 -0.00000000000E+00 -0.19785967301E+04  0.19785967301E+04  0.00000000000E+00 0. -1.
         24    2    1    2    0    0  0.48275439335E+01 -0.73956334189E+01 -0.13746765215E+04  0.13775008429E+04  0.87721336271E+02 0.  0.
         25    2    1    2    0    0  0.30281751177E+02  0.52340283524E+02 -0.55228116887E+03  0.56948803022E+03  0.12508252214E+03 0.  0.
        -24    2    1    2    0    0 -0.35109295111E+02 -0.44944650106E+02  0.20310361624E+02  0.10355725847E+03  0.84017324496E+02 0.  0.
        -13    1    3    3    0    0  0.22473771657E+02  0.34674362012E+02 -0.76847900763E+03  0.76958908968E+03  0.00000000000E+00 0.  1.
         14    1    3    3    0    0 -0.17646227723E+02 -0.42069995431E+02 -0.60619751385E+03  0.60791175319E+03  0.00000000000E+00 0. -1.
         11    1    5    5    0    0 -0.34481519113E+02 -0.55737454616E+02  0.43024732234E+02  0.78401317535E+02  0.00000000000E+00 0. -1.
        -12    1    5    5    0    0 -0.62777599713E+00  0.10792804510E+02 -0.22714370610E+02  0.25155940931E+02  0.00000000000E+00 0.  1.
          5    1    4    4  501    0  0.72384912099E+02  0.22290478118E+01 -0.25925559708E+03  0.26921270618E+03  0.41800000000E+01 0. -1.
         -5    1    4    4    0  501 -0.42103160922E+02  0.50111235713E+02 -0.29302557179E+03  0.30027532404E+03  0.41800000000E+01 0. -1.
</event>
<event>
11    1  0.7882745E-009  0.1321410E+03  0.7561462E-02  0.1116666E+00
         22   -1    0    0    0    0  0.00000000000E+00  0.00000000000E+00  0.23377312562E+02  0.23377312562E+02  0.00000000000E+00 0.  1.
         22   -1    0    0    0    0 -0.00000000000E+00 -0.00000000000E+00 -0.33033026769E+04  0.33033026769E+04  0.00000000000E+00 0. -1.
         24    2    1    2    0    0  0.39213952046E+02  0.18286316530E+02 -0.26459231085E+04  0.26475287381E+04  0.81407615606E+02 0.  0.
         25    2    1    2    0    0 -0.18553953914E+02 -0.41774831956E+02 -0.51455462457E+03  0.53151058761E+03  0.12509059628E+03 0.  0.
        -24    2    1    2    0    0 -0.20659998132E+02  0.23488515427E+02 -0.11944763127E+03  0.14764066370E+03  0.80941232275E+02 0.  0.
        -11    1    3    3    0    0 -0.24949504138E+02  0.10379612227E+02 -0.65783029866E+03  0.65838508181E+03  0.00000000000E+00 0.  1.
         12    1    3    3    0    0  0.64163456184E+02  0.79067043021E+01 -0.19880928098E+04  0.19891436563E+04  0.00000000000E+00 0. -1.
         11    1    5    5    0    0 -0.47514012111E+02  0.15639737075E+02 -0.10465069380E+03  0.11599116534E+03  0.00000000000E+00 0. -1.
        -12    1    5    5    0    0  0.26854013979E+02  0.78487783517E+01 -0.14796937471E+02  0.31649498367E+02  0.00000000000E+00 0.  1.
          5    1    4    4  501    0  0.47971416885E+02 -0.14911203762E+01 -0.11938402199E+03  0.12873809609E+03  0.41800000000E+01 0.  1.
         -5    1    4    4    0  501 -0.66525370799E+02 -0.40283711580E+02 -0.39517060258E+03  0.40277249152E+03  0.41800000000E+01 0.  1.
</event>
<event>
11    1  0.7882745E-009  0.1436147E+03  0.7561462E-02  0.1103588E+00
         22   -1    0    0    0    0  0.00000000000E+00  0.00000000000E+00  0.93239749295E+02  0.93239749295E+02  0.00000000000E+00 0. -1.
         22   -1    0    0    0    0 -0.00000000000E+00 -0.00000000000E+00 -0.94352086890E+03  0.94352086890E+03  0.00000000000E+00 0.  1.
        -24    2    1    2    0    0  0.36715887465E+02 -0.21339940499E+01 -0.64568639660E+03  0.65179502466E+03  0.81075403813E+02 0.  0.
         25    2    1    2    0    0 -0.68937160361E+02 -0.58020933568E+02 -0.23004990991E+03  0.27692612586E+03  0.12508540013E+03 0.  0.
         24    2    1    2    0    0  0.32221272896E+02  0.60154927618E+02  0.25455186893E+02  0.10803946767E+03  0.79798084512E+02 0.  0.
        -11    1    5    5    0    0  0.32168935909E+02  0.18374709381E+02 -0.23351622282E+02  0.43792335466E+02  0.00000000000E+00 0.  1.
         12    1    5    5    0    0  0.52336986978E-01  0.41780218237E+02  0.48806809175E+02  0.64247132208E+02  0.00000000000E+00 0. -1.
         11    1    3    3    0    0 -0.26541745402E+01  0.17647053133E+02 -0.32913152689E+02  0.37439801638E+02  0.00000000000E+00 0. -1.
        -12    1    3    3    0    0  0.39370062005E+02 -0.19781047182E+02 -0.61277324391E+03  0.61435522303E+03  0.00000000000E+00 0.  1.
          5    1    4    4  501    0 -0.41186188367E+02 -0.87137190968E+02 -0.92865364947E+02  0.13390534182E+03  0.41800000000E+01 0.  1.
         -5    1    4    4    0  501 -0.27750971994E+02  0.29116257400E+02 -0.13718454496E+03  0.14302078404E+03  0.41800000000E+01 0.  1.
</event>
<event>
11    1  0.7882745E-009  0.2320102E+03  0.7561462E-02  0.1033944E+00
         22   -1    0    0    0    0  0.00000000000E+00  0.00000000000E+00  0.20551443717E+03  0.20551443717E+03  0.00000000000E+00 0.  1.
         22   -1    0    0    0    0 -0.00000000000E+00 -0.00000000000E+00 -0.12594015290E+04  0.12594015290E+04  0.00000000000E+00 0.  1.
        -24    2    1    2    0    0  0.18476136778E+01  0.23899845784E+02 -0.85226877191E+03  0.85655132393E+03  0.82118783779E+02 0.  0.
         25    2    1    2    0    0 -0.25683065839E+01  0.17555228018E+03 -0.30168353145E+03  0.37079197755E+03  0.12509411733E+03 0.  0.
         24    2    1    2    0    0  0.72069290619E+00 -0.19945212597E+03  0.10006521148E+03  0.23757266473E+03  0.81523337319E+02 0.  0.
        -13    1    5    5    0    0  0.14091848666E+02 -0.12570449796E+03  0.20284111627E+02  0.12810794742E+03  0.00000000000E+00 0.  1.
         14    1    5    5    0    0 -0.13371155760E+02 -0.73747628003E+02  0.79781099855E+02  0.10946471731E+03  0.00000000000E+00 0. -1.
         11    1    3    3    0    0  0.14043081053E+02  0.33375114336E+02 -0.15740972247E+03  0.16152067084E+03  0.00000000000E+00 0. -1.
        -12    1    3    3    0    0 -0.12195467376E+02 -0.94752685518E+01 -0.69485904944E+03  0.69503065309E+03  0.00000000000E+00 0.  1.
          5    1    4    4  501    0  0.42067984724E+02  0.14577937092E+03 -0.16656506275E+03  0.22535024485E+03  0.41800000000E+01 0. -1.
         -5    1    4    4    0  501 -0.44636291308E+02  0.29772909266E+02 -0.13511846870E+03  0.14544173270E+03  0.41800000000E+01 0. -1.
</event>
<event>
11    1  0.7882745E-009  0.1517855E+03  0.7561462E-02  0.1095068E+00
         22   -1    0    0    0    0  0.00000000000E+00  0.00000000000E+00  0.12144826680E+04  0.12144826680E+04  0.00000000000E+00 0.  1.
         22   -1    0    0    0    0 -0.00000000000E+00 -0.00000000000E+00 -0.31122482334E+03  0.31122482334E+03  0.00000000000E+00 0.  1.
         24    2    1    2    0    0 -0.68478009100E+01 -0.28368059100E+02 -0.19723903514E+03  0.21499103087E+03  0.80413103519E+02 0.  0.
         25    2    1    2    0    0  0.60425553800E+02  0.94688952873E+02 -0.32896210900E+02  0.17128749212E+03  0.12505998127E+03 0.  0.
        -24    2    1    2    0    0 -0.53577752890E+02 -0.66320893773E+02  0.11333930907E+04  0.11394289683E+04  0.80308401127E+02 0.  0.
        -11    1    3    3    0    0 -0.25955926175E+02 -0.11158248154E+02 -0.18383171203E+03  0.18599009370E+03  0.00000000000E+00 0.  1.
         12    1    3    3    0    0  0.19108125266E+02 -0.17209810946E+02 -0.13407323109E+02  0.29000937173E+02  0.00000000000E+00 0. -1.
         11    1    5    5    0    0 -0.71000779908E+02 -0.65091045520E+02  0.83751436934E+03  0.84303515573E+03  0.00000000000E+00 0. -1.
        -12    1    5    5    0    0  0.17423027018E+02 -0.12298482527E+01  0.29587872132E+03  0.29639381257E+03  0.00000000000E+00 0.  1.
          5    1    4    4  501    0  0.66843636870E+02  0.90640177543E+02  0.22748391628E+02  0.11497249800E+03  0.41800000000E+01 0. -1.
         -5    1    4    4    0  501 -0.64180830698E+01  0.40487753303E+01 -0.55644602528E+02  0.56314994117E+02  0.41800000000E+01 0. -1.
</event>
<event>
11    1  0.7882745E-009  0.1859775E+03  0.7561462E-02  0.1064908E+00
         22   -1    0    0    0    0  0.00000000000E+00  0.00000000000E+00  0.45017719799E+03  0.45017719799E+03  0.00000000000E+00 0.  1.
         22   -1    0    0    0    0 -0.00000000000E+00 -0.00000000000E+00 -0.41675234323E+03  0.41675234323E+03  0.00000000000E+00 0. -1.
         24    2    1    2    0    0 -0.11647611917E+03  0.63346613194E+02 -0.31341812733E+03  0.34970282030E+03  0.80508758797E+02 0.  0.
         25    2    1    2    0    0  0.17832208502E+03 -0.61350041177E+02  0.10241437378E+03  0.24839288855E+03  0.12509088523E+03 0.  0.
        -24    2    1    2    0    0 -0.61845965846E+02 -0.19965720173E+01  0.24442860831E+03  0.26883383238E+03  0.93259718407E+02 0.  0.
        -11    1    3    3    0    0 -0.29070129382E+01  0.10275192318E+02 -0.11167789270E+03  0.11218726318E+03  0.00000000000E+00 0.  1.
         12    1    3    3    0    0 -0.11356910623E+03  0.53071420876E+02 -0.20174023463E+03  0.23751555712E+03  0.00000000000E+00 0. -1.
         11    1    5    5    0    0  0.58399276554E+01  0.42851326558E+01 -0.59610554682E+01  0.93809007666E+01  0.00000000000E+00 0. -1.
        -12    1    5    5    0    0 -0.67685893501E+02 -0.62817046731E+01  0.25038966378E+03  0.25945293161E+03  0.00000000000E+00 0.  1.
          5    1    4    4  501    0  0.12249964581E+03 -0.79810799446E+02  0.11742351350E+03  0.18756780335E+03  0.41800000000E+01 0.  1.
         -5    1    4    4    0  501  0.55822439209E+02  0.18460758269E+02 -0.15009139713E+02  0.60825085204E+02  0.41800000000E+01 0.  1.
</event>
<event>
11    1  0.7882745E-009  0.1301707E+03  0.7561462E-02  0.1119059E+00
         22   -1    0    0    0    0  0.00000000000E+00  0.00000000000E+00  0.34614603885E+03  0.34614603885E+03  0.00000000000E+00 0. -1.
         22   -1    0    0    0    0 -0.00000000000E+00 -0.00000000000E+00 -0.59216445401E+03  0.59216445401E+03  0.00000000000E+00 0.  1.
         24    2    1    2    0    0  0.36396286488E+02  0.19436324715E+01 -0.52437583901E+03  0.53166137637E+03  0.79783025794E+02 0.  0.
         25    2    1    2    0    0 -0.27927709807E+02  0.23151168572E+01  0.12492147628E+02  0.12879496505E+03  0.12508705980E+03 0.  0.
        -24    2    1    2    0    0 -0.84685766813E+01 -0.42587493287E+01  0.26586527622E+03  0.27785415145E+03  0.80179365423E+02 0.  0.
        -11    1    3    3    0    0 -0.76801430439E+01 -0.56702571116E+01 -0.38840655231E+03  0.38852385550E+03  0.00000000000E+00 0.  1.
         12    1    3    3    0    0  0.44076429532E+02  0.76138895832E+01 -0.13596928670E+03  0.14313752087E+03  0.00000000000E+00 0. -1.
         11    1    5    5    0    0 -0.59452914810E+01  0.24155527182E+02  0.23304756862E+03  0.23437151112E+03  0.00000000000E+00 0. -1.
        -12    1    5    5    0    0 -0.25232852003E+01 -0.28414276511E+02  0.32817707601E+02  0.43482640330E+02  0.00000000000E+00 0.  1.
          5    1    4    4  501    0 -0.62676807527E+02  0.18943319639E+02 -0.29254327293E+02  0.71836756790E+02  0.41800000000E+01 0. -1.
         -5    1    4    4    0  501  0.34749097720E+02 -0.16628202781E+02  0.41746474921E+02  0.56958208262E+02  0.41800000000E+01 0. -1.
</event>
<event>
11    1  0.7882745E-009  0.1455141E+03  0.7561462E-02  0.1101553E+00
         22   -1    0    0    0    0  0.00000000000E+00  0.00000000000E+00  0.11578779812E+03  0.11578779812E+03  0.00000000000E+00 0. -1.
         22   -1    0    0    0    0 -0.00000000000E+00 -0.00000000000E+00 -0.70873866055E+03  0.70873866055E+03  0.00000000000E+00 0. -1.
         24    2    1    2    0    0 -0.75554109498E+02  0.29784256413E+02 -0.58102586634E+03  0.59197203218E+03  0.79020909513E+02 0.  0.
         25    2    1    2    0    0 -0.64261487391E+01 -0.30637888548E+02 -0.21592320142E+02  0.13074266207E+03  0.12508972698E+03 0.  0.
        -24    2    1    2    0    0  0.81980258237E+02  0.85363213499E+00  0.96673240550E+01  0.10181176441E+03  0.59587639578E+02 0.  0.
        -11    1    3    3    0    0 -0.15177147332E+02  0.15132227484E+02 -0.26994110882E+02  0.34467551872E+02  0.00000000000E+00 0.  1.
         12    1    3    3    0    0 -0.60376962166E+02  0.14652028929E+02 -0.55403175545E+03  0.55750448031E+03  0.00000000000E+00 0. -1.
         11    1    5    5    0    0  0.20073826741E+02 -0.67140019450E+01  0.29552716138E+02  0.36351057388E+02  0.00000000000E+00 0. -1.
        -12    1    5    5    0    0  0.61906431496E+02  0.75676340800E+01 -0.19885392083E+02  0.65460707026E+02  0.00000000000E+00 0.  1.
          5    1    4    4  501    0 -0.90380838159E+01  0.39126340541E+02  0.24271355376E+02  0.47107627567E+02  0.41800000000E+01 0.  1.
         -5    1    4    4    0  501  0.26119350767E+01 -0.69764229089E+02 -0.45863675518E+02  0.83635034508E+02  0.41800000000E+01 0.  1.
</event>
<event>
11    1  0.7882745E-009  0.1991395E+03  0.7561462E-02  0.1055134E+00
         22   -1    0    0    0    0  0.00000000000E+00  0.00000000000E+00  0.39720696750E+03  0.39720696750E+03  0.00000000000E+00 0.  1.
         22   -1    0    0    0    0 -0.00000000000E+00 -0.00000000000E+00 -0.62238264807E+03  0.62238264807E+03  0.00000000000E+00 0. -1.
        -24    2    1    2    0    0 -0.54718926859E+02  0.16567745655E+03 -0.46564955965E+03  0.50366446196E+03  0.80032476369E+02 0.  0.
         25    2    1    2    0    0  0.77935249460E+02 -0.76093413440E+02 -0.71569798912E+02  0.18067033097E+03  0.12512162763E+03 0.  0.
         24    2    1    2    0    0 -0.23216322601E+02 -0.89584043113E+02  0.31204367799E+03  0.33525482264E+03  0.80375622620E+02 0.  0.
        -11    1    5    5    0    0 -0.11533373366E+02  0.76960047535E+00  0.14089092201E+03  0.14136429143E+03  0.00000000000E+00 0.  1.
         12    1    5    5    0    0 -0.11682949235E+02 -0.90353643589E+02  0.17115275598E+03  0.19389053121E+03  0.00000000000E+00 0. -1.
         13    1    3    3    0    0 -0.37538117750E+02  0.16594219398E+03 -0.44711288154E+03  0.47838880722E+03  0.00000000000E+00 0. -1.
        -14    1    3    3    0    0 -0.17180809109E+02 -0.26473742765E+00 -0.18536678104E+02  0.25275654742E+02  0.00000000000E+00 0.  1.
          5    1    4    4  501    0  0.86580597937E+02 -0.67294478732E+02 -0.10058820343E+03  0.14886304402E+03  0.41800000000E+01 0. -1.
         -5    1    4    4    0  501 -0.86453484769E+01 -0.87989347083E+01  0.29018404519E+02  0.31807286950E+02  0.41800000000E+01 0. -1.
</event>
<event>
11    1  0.1801548E-008  0.1744229E+03  0.7561462E-02  0.1074246E+00
         22   -1    0    0    0    0  0.00000000000E+00  0.00000000000E+00  0.99590199936E+03  0.99590199936E+03  0.00000000000E+00 0.  1.
         22   -1    0    0    0    0 -0.00000000000E+00 -0.00000000000E+00 -0.11659381247E+04  0.11659381247E+04  0.00000000000E+00 0.  1.
        -24    2    1    2    0    0  0.37948363022E+01  0.40605733194E+02 -0.69008306232E+03  0.69548695756E+03  0.76316766788E+02 0.  0.
         25    2    1    2    0    0  0.11298974863E+03 -0.73979688834E+02 -0.44922354389E+03  0.48547888409E+03  0.12509307278E+03 0.  0.
         24    2    1    2    0    0 -0.11678458493E+03  0.33373955640E+02  0.96927048091E+03  0.98087428237E+03  0.88750394109E+02 0.  0.
        -11    1    5    5    0    0 -0.11933723894E+03  0.52593598145E+02  0.87104549026E+03  0.88075405719E+03  0.00000000000E+00 0.  1.
         12    1    5    5    0    0  0.25526540064E+01 -0.19219642505E+02  0.98224990653E+02  0.10012022518E+03  0.00000000000E+00 0. -1.
         11    1    3    3    0    0 -0.24443702472E+02 -0.11516199644E+02 -0.19325888080E+03  0.19513870055E+03  0.00000000000E+00 0. -1.
        -12    1    3    3    0    0  0.28238538774E+02  0.52121932838E+02 -0.49682418152E+03  0.50034825701E+03  0.00000000000E+00 0.  1.
          5    1    4    4  501    0  0.11301958992E+02  0.89058395373E+01  0.23943216127E+01  0.15174103957E+02  0.41800000000E+01 0.  1.
         -5    1    4    4    0  501  0.10168778964E+03 -0.82885528371E+02 -0.45161786550E+03  0.47030478014E+03  0.41800000000E+01 0.  1.
</event>
<event>
11    1  0.8771432E-009  0.1982079E+03  0.7561462E-02  0.1055798E+00
         22   -1    0    0    0    0  0.00000000000E+00  0.00000000000E+00  0.21578052601E+04  0.21578052601E+04  0.00000000000E+00 0.  1.
         22   -1    0    0    0    0 -0.00000000000E+00 -0.00000000000E+00 -0.70758393141E+03  0.70758393141E+03  0.00000000000E+00 0. -1.
        -24    2    1    2    0    0 -0.22078288862E+02 -0.39844340255E+01 -0.58408165410E+03  0.58989568585E+03  0.79512357344E+02 0.  0.
         25    2    1    2    0    0 -0.59475180988E+02 -0.12688424716E+03 -0.41546962104E+02  0.19238293009E+03  0.12509249537E+03 0.  0.
         24    2    1    2    0    0  0.81553469851E+02  0.13086868118E+03  0.20758499449E+04  0.20831105756E+04  0.80119262320E+02 0.  0.
        -11    1    5    5    0    0  0.89886366435E+02  0.13662570667E+03  0.19704161691E+04  0.19771914480E+04  0.00000000000E+00 0.  1.
         12    1    5    5    0    0 -0.83328965842E+01 -0.57570254879E+01  0.10543377586E+03  0.10591912764E+03  0.00000000000E+00 0. -1.
         11    1    3    3    0    0 -0.42580313313E+02  0.20159848571E+02 -0.43128587063E+03  0.43385136254E+03  0.00000000000E+00 0. -1.
        -12    1    3    3    0    0  0.20502024451E+02 -0.24144282597E+02 -0.15279578348E+03  0.15604432331E+03  0.00000000000E+00 0.  1.
          5    1    4    4  501    0 -0.68020956050E+02 -0.62469642955E+02 -0.75122691075E+02  0.11912261694E+03  0.41800000000E+01 0.  1.
         -5    1    4    4    0  501  0.85457750611E+01 -0.64414604204E+02  0.33575728971E+02  0.73260313145E+02  0.41800000000E+01 0.  1.
</event>
<event>
11    1  0.7882745E-009  0.1398851E+03  0.7561462E-02  0.1107687E+00
         22   -1    0    0    0    0  0.00000000000E+00  0.00000000000E+00  0.13981170435E+04  0.13981170435E+04  0.00000000000E+00 0. -1.
         22   -1    0    0    0    0 -0.00000000000E+00 -0.00000000000E+00 -0.59078445707E+03  0.59078445707E+03  0.00000000000E+00 0. -1.
         24    2    1    2    0    0 -0.50655989460E+02  0.34061473968E+02 -0.55451588731E+03  0.56351757505E+03  0.79611398839E+02 0.  0.
         25    2    1    2    0    0  0.26656804387E+01 -0.75747745643E+02  0.15106388389E+03  0.21026810783E+03  0.12509018080E+03 0.  0.
        -24    2    1    2    0    0  0.47990309022E+02  0.41686271675E+02  0.12107845899E+04  0.12151158177E+04  0.80413384268E+02 0.  0.
        -13    1    3    3    0    0 -0.84023091196E+01 -0.22241898804E+02 -0.70307843279E+02  0.74219227209E+02  0.00000000000E+00 0.  1.
         14    1    3    3    0    0 -0.42253680341E+02  0.56303372772E+02 -0.48420804403E+03  0.48929834784E+03  0.00000000000E+00 0. -1.
         11    1    5    5    0    0  0.70810714459E+02  0.30772759344E+02  0.91088673082E+03  0.91415302678E+03  0.00000000000E+00 0. -1.
        -12    1    5    5    0    0 -0.22820405437E+02  0.10913512331E+02  0.29989785906E+03  0.30096279093E+03  0.00000000000E+00 0.  1.
          5    1    4    4  501    0 -0.13921926897E+02 -0.25172570602E+02  0.15407542258E+03  0.15679345204E+03  0.41800000000E+01 0. -1.
         -5    1    4    4    0  501  0.16587607335E+02 -0.50575175041E+02 -0.30115386811E+01  0.53474655799E+02  0.41800000000E+01 0. -1.
</event>
<event>
11    1  0.7882745E-009  0.1613309E+03  0.7561462E-02  0.1085832E+00
         22   -1    0    0    0    0  0.00000000000E+00  0.00000000000E+00  0.10161724226E+04  0.10161724226E+04  0.00000000000E+00 0.  1.
         22   -1    0    0    0    0 -0.00000000000E+00 -0.00000000000E+00 -0.39106938629E+03  0.39106938629E+03  0.00000000000E+00 0. -1.
         24    2    1    2    0    0 -0.54365436528E+02  0.66675750137E+02 -0.34869720927E+03  0.37021738945E+03  0.89832707595E+02 0.  0.
         25    2    1    2    0    0  0.13345569702E+03 -0.53716711206E+01  0.30391748301E+03  0.35475645041E+03  0.12508806783E+03 0.  0.
        -24    2    1    2    0    0 -0.79090260494E+02 -0.61304079016E+02  0.66988276256E+03  0.68226796902E+03  0.82056118337E+02 0.  0.
        -13    1    3    3    0    0 -0.13739200942E+02 -0.14723977269E+02 -0.15403454604E+03  0.15534542968E+03  0.00000000000E+00 0.  1.
         14    1    3    3    0    0 -0.40626235586E+02  0.81399727406E+02 -0.19466266324E+03  0.21487195978E+03  0.00000000000E+00 0. -1.
         11    1    5    5    0    0 -0.59507641942E+01 -0.47690633256E+02  0.16243763889E+03  0.16939833123E+03  0.00000000000E+00 0. -1.
        -12    1    5    5    0    0 -0.73139496300E+02 -0.13613445761E+02  0.50744512367E+03  0.51286963779E+03  0.00000000000E+00 0.  1.
          5    1    4    4  501    0  0.39758144241E+01 -0.44864840078E+02  0.10253154583E+03  0.11206628068E+03  0.41800000000E+01 0. -1.
         -5    1    4    4    0  501  0.12947988260E+03  0.39493168958E+02  0.20138593718E+03  0.24269016973E+03  0.41800000000E+01 0. -1.
</event>
<event>
11    1  0.7882745E-009  0.1490563E+03  0.7561462E-02  0.1097847E+00
         22   -1    0    0    0    0  0.00000000000E+00  0.00000000000E+00  0.23427123309E+03  0.23427123309E+03  0.00000000000E+00 0. -1.
         22   -1    0    0    0    0 -0.00000000000E+00 -0.00000000000E+00 -0.35252413007E+03  0.35252413007E+03  0.00000000000E+00 0.  1.
        -24    2    1    2    0    0  0.70431012455E+02 -0.66035394785E+01 -0.19700038879E+03  0.22435245039E+03  0.80751065384E+02 0.  0.
         25    2    1    2    0    0 -0.14164957494E+03  0.90718391161E+01 -0.48923465933E+02  0.19541620502E+03  0.12508831808E+03 0.  0.
         24    2    1    2    0    0  0.71218562484E+02 -0.24682996376E+01  0.12767095775E+03  0.16702670776E+03  0.80745721297E+02 0.  0.
        -13    1    5    5    0    0  0.16410180281E+02 -0.18396840932E+02  0.10111202888E+03  0.10407391680E+03  0.00000000000E+00 0.  1.
         14    1    5    5    0    0  0.54808382203E+02  0.15928541294E+02  0.26558928867E+02  0.62952790963E+02  0.00000000000E+00 0. -1.
         13    1    3    3    0    0  0.31327175908E+02  0.37198720025E+02 -0.88314741991E+02  0.10081979158E+03  0.00000000000E+00 0. -1.
        -14    1    3    3    0    0  0.39103836546E+02 -0.43802259503E+02 -0.10868564680E+03  0.12353265880E+03  0.00000000000E+00 0.  1.
          5    1    4    4  501    0 -0.49459314050E+02 -0.21549511167E+02  0.37086812708E+02  0.65601137602E+02  0.41800000000E+01 0.  1.
         -5    1    4    4    0  501 -0.92190260889E+02  0.30621350284E+02 -0.86010278641E+02  0.12981506741E+03  0.41800000000E+01 0.  1.
</event>
<event>
11    1  0.7882745E-009  0.1458397E+03  0.7561462E-02  0.1101207E+00
         22   -1    0    0    0    0  0.00000000000E+00  0.00000000000E+00  0.22755574064E+04  0.22755574064E+04  0.00000000000E+00 0.  1.
         22   -1    0    0    0    0 -0.00000000000E+00 -0.00000000000E+00 -0.35865530497E+03  0.35865530497E+03  0.00000000000E+00 0.  1.
         24    2    1    2    0    0  0.34485754410E+02  0.74786171813E+02 -0.28231019962E+03  0.30483377669E+03  0.80264212762E+02 0.  0.
         25    2    1    2    0    0 -0.19047379264E+02 -0.26704654678E+02  0.11910991337E+01  0.12932227674E+03  0.12508753458E+03 0.  0.
        -24    2    1    2    0    0 -0.15438375145E+02 -0.48081517135E+02  0.21980212019E+04  0.22000566579E+04  0.80011988849E+02 0.  0.
        -13    1    3    3    0    0  0.79702955172E+01  0.75989212653E+02 -0.25715047613E+03  0.26826153922E+03  0.00000000000E+00 0.  1.
         14    1    3    3    0    0  0.26515458892E+02 -0.12030408404E+01 -0.25159723488E+02  0.36572237470E+02  0.00000000000E+00 0. -1.
         13    1    5    5    0    0 -0.14669577174E+02 -0.39220059649E+02  0.43450965814E+03  0.43652268279E+03  0.00000000000E+00 0. -1.
        -14    1    5    5    0    0 -0.76879797118E+00 -0.88614574858E+01  0.17635115438E+04  0.17635339751E+04  0.00000000000E+00 0.  1.
          5    1    4    4  501    0 -0.33636656941E+02 -0.72219521271E+02 -0.89664717520E+01  0.80280470592E+02  0.41800000000E+01 0. -1.
         -5    1    4    4    0  501  0.14589277677E+02  0.45514866593E+02  0.10157570886E+02  0.49041806150E+02  0.41800000000E+01 0. -1.
</event>
<event>
11    1  0.7882745E-009  0.1385536E+03  0.7561462E-02  0.1109184E+00
         22   -1    0    0    0    0  0.00000000000E+00  0.00000000000E+00  0.89522866011E+03  0.89522866011E+03  0.00000000000E+00 0. -1.
         22   -1    0    0    0    0 -0.00000000000E+00 -0.00000000000E+00 -0.23851511498E+03  0.23851511498E+03  0.00000000000E+00 0. -1.
        -24    2    1    2    0    0  0.53807873603E+01 -0.20790596479E+02 -0.20134046938E+03  0.21770048344E+03  0.79964455277E+02 0.  0.
         25    2    1    2    0    0  0.52724120398E+02  0.34038977749E+02  0.16710503139E+03  0.21796824687E+03  0.12509028838E+03 0.  0.
         24    2    1    2    0    0 -0.58104907759E+02 -0.13248381270E+02  0.69094898311E+03  0.69807504478E+03  0.79665368705E+02 0.  0.
        -13    1    5    5    0    0 -0.25029010333E+02 -0.32023734976E+02  0.13908591434E+03  0.14490294175E+03  0.00000000000E+00 0.  1.
         14    1    5    5    0    0 -0.33075897426E+02  0.18775353706E+02  0.55186306878E+03  0.55317210304E+03  0.00000000000E+00 0. -1.
         13    1    3    3    0    0  0.38081090936E+02  0.11890023619E+01 -0.13749544115E+03  0.14267648563E+03  0.00000000000E+00 0. -1.
        -14    1    3    3    0    0 -0.32700303575E+02 -0.21979598841E+02 -0.63845028224E+02  0.75023997815E+02  0.00000000000E+00 0.  1.
          5    1    4    4  501    0 -0.21127613419E+02 -0.14812936766E+02  0.10873070768E+03  0.11182861144E+03  0.41800000000E+01 0.  1.
         -5    1    4    4    0  501  0.73851733818E+02  0.48851914515E+02  0.58374323716E+02  0.10613963543E+03  0.41800000000E+01 0.  1.
</event>
<event>
11    1  0.7882745E-009  0.1342386E+03  0.7561462E-02  0.1114168E+00
         22   -1    0    0    0    0  0.00000000000E+00  0.00000000000E+00  0.11148591149E+03  0.11148591149E+03  0.00000000000E+00 0.  1.
         22   -1    0    0    0    0 -0.00000000000E+00 -0.00000000000E+00 -0.12691519039E+04  0.12691519039E+04  0.00000000000E+00 0.  1.
        -24    2    1    2    0    0 -0.19949339204E+02 -0.21151978841E+02 -0.10564928698E+04  0.10598052899E+04  0.78515515833E+02 0.  0.
         25    2    1    2    0    0  0.60190787381E+02  0.42027353121E+02 -0.15666723049E+03  0.21349521330E+03  0.12508539361E+03 0.  0.
         24    2    1    2    0    0 -0.40241448177E+02 -0.20875374280E+02  0.55494107848E+02  0.10733731222E+03  0.79915875680E+02 0.  0.
        -11    1    5    5    0    0 -0.40360893929E+02  0.30747767108E+01  0.68885096805E+02  0.79897512930E+02  0.00000000000E+00 0.  1.
         12    1    5    5    0    0  0.11944575174E+00 -0.23950150991E+02 -0.13390988957E+02  0.27439799289E+02  0.00000000000E+00 0. -1.
         13    1    3    3    0    0  0.13082170163E+01 -0.24808067097E+02 -0.98994928467E+02  0.10206442812E+03  0.00000000000E+00 0. -1.
        -14    1    3    3    0    0 -0.21257556220E+02  0.36560882562E+01 -0.95749794129E+03  0.95774086174E+03  0.00000000000E+00 0.  1.
          5    1    4    4  501    0 -0.86889781609E+01  0.68325407931E+02 -0.94211107682E+02  0.11677784431E+03  0.41800000000E+01 0.  1.
         -5    1    4    4    0  501  0.68879765541E+02 -0.26298054810E+02 -0.62456122811E+02  0.96717368990E+02  0.41800000000E+01 0.  1.
</event>
<event>
11    1  0.7882745E-009  0.1508187E+03  0.7561462E-02  0.1096045E+00
         22   -1    0    0    0    0  0.00000000000E+00  0.00000000000E+00  0.27027646460E+04  0.27027646460E+04  0.00000000000E+00 0. -1.
         22   -1    0    0    0    0 -0.00000000000E+00 -0.00000000000E+00 -0.22152893070E+04  0.22152893070E+04  0.00000000000E+00 0. -1.
        -24    2    1    2    0    0 -0.44582658768E+02  0.71676595510E+02 -0.21831523165E+04  0.21862319078E+04  0.79566132514E+02 0.  0.
         25    2    1    2    0    0  0.50867512187E+01 -0.73855682515E+02  0.14763825243E+03  0.20718646861E+03  0.12509453352E+03 0.  0.
         24    2    1    2    0    0  0.39495907549E+02  0.21790870046E+01  0.25229894031E+04  0.25246355766E+04  0.82125460791E+02 0.  0.
        -11    1    5    5    0    0  0.36416491860E+02 -0.83712980489E+01  0.43084747480E+03  0.43246478013E+03  0.00000000000E+00 0.  1.
         12    1    5    5    0    0  0.30794156894E+01  0.10550385053E+02  0.20921419283E+04  0.20921707965E+04  0.00000000000E+00 0. -1.
         11    1    3    3    0    0 -0.24817092330E+02  0.60859986740E+02 -0.20591821744E+04  0.20602308253E+04  0.00000000000E+00 0. -1.
        -12    1    3    3    0    0 -0.19765566438E+02  0.10816608770E+02 -0.12397014212E+03  0.12600108246E+03  0.00000000000E+00 0.  1.
          5    1    4    4  501    0 -0.12566728896E+02  0.16708991018E+02 -0.10717114436E+02  0.23862983842E+02  0.41800000000E+01 0.  1.
         -5    1    4    4    0  501  0.17653480115E+02 -0.90564673533E+02  0.15835536687E+03  0.18332348477E+03  0.41800000000E+01 0.  1.
</event>
<event>
11    1  0.7882745E-009  0.1319611E+03  0.7561462E-02  0.1116883E+00
         22   -1    0    0    0    0  0.00000000000E+00  0.00000000000E+00  0.21506867447E+03  0.21506867447E+03  0.00000000000E+00 0.  1.
         22   -1    0    0    0    0 -0.00000000000E+00 -0.00000000000E+00 -0.47190474278E+03  0.47190474278E+03  0.00000000000E+00 0.  1.
        -24    2    1    2    0    0 -0.42555118452E+02  0.20347752609E+01 -0.40764751421E+03  0.41757236446E+03  0.79844256538E+02 0.  0.
         25    2    1    2    0    0  0.27266635621E+02 -0.34829704044E+02  0.70315683898E+02  0.15015790913E+03  0.12508606865E+03 0.  0.
         24    2    1    2    0    0  0.15288482831E+02  0.32794928783E+02  0.80495761997E+02  0.11924314366E+03  0.80187995049E+02 0.  0.
        -11    1    5    5    0    0 -0.83073239333E+01  0.60747861740E+01  0.82879721885E+02  0.83516243676E+02  0.00000000000E+00 0.  1.
         12    1    5    5    0    0  0.23595806765E+02  0.26720142609E+02 -0.23839598882E+01  0.35726899987E+02  0.00000000000E+00 0. -1.
         11    1    3    3    0    0 -0.50175551331E+01 -0.12450881913E+02 -0.74408033338E+01  0.15348155400E+02  0.00000000000E+00 0. -1.
        -12    1    3    3    0    0 -0.37537563319E+02  0.14485657174E+02 -0.40020671087E+03  0.40222420906E+03  0.00000000000E+00 0.  1.
          5    1    4    4  501    0 -0.23047668846E+02 -0.46679355051E+02 -0.11323253943E+02  0.53440113277E+02  0.41800000000E+01 0.  1.
         -5    1    4    4    0  501  0.50314304467E+02  0.11849651007E+02  0.81638937841E+02  0.96717795853E+02  0.41800000000E+01 0.  1.
</event>
<event>
11    1  0.7882745E-009  0.1839217E+03  0.7561462E-02  0.1066514E+00
         22   -1    0    0    0    0  0.00000000000E+00  0.00000000000E+00  0.55196054947E+03  0.55196054947E+03  0.00000000000E+00 0.  1.
         22   -1    0    0    0    0 -0.00000000000E+00 -0.00000000000E+00 -0.26288238084E+03  0.26288238084E+03  0.00000000000E+00 0.  1.
        -24    2    1    2    0    0 -0.36240735279E+02 -0.25608804813E+02 -0.18614002733E+03  0.21892765122E+03  0.10635790950E+03 0.  0.
         25    2    1    2    0    0 -0.63095575880E+02  0.12051061642E+03  0.34148180819E+03  0.38827947939E+03  0.12508904198E+03 0.  0.
         24    2    1    2    0    0  0.99336311158E+02 -0.94901811605E+02  0.13373638777E+03  0.20763579970E+03  0.79706632973E+02 0.  0.
        -11    1    5    5    0    0  0.32084895611E+02 -0.84886059046E+02  0.79905177361E+02  0.12091286497E+03  0.00000000000E+00 0.  1.
         12    1    5    5    0    0  0.67251415547E+02 -0.10015752559E+02  0.53831210413E+02  0.86722934723E+02  0.00000000000E+00 0. -1.
         11    1    3    3    0    0 -0.25298460165E+02  0.32869779563E+02 -0.28206574972E+02  0.50160197038E+02  0.00000000000E+00 0. -1.
        -12    1    3    3    0    0 -0.10942275114E+02 -0.58478584376E+02 -0.15793345236E+03  0.16876745418E+03  0.00000000000E+00 0.  1.
          5    1    4    4  501    0 -0.10179974384E+02  0.14644037026E+02 -0.74672211453E+01  0.19781594742E+02  0.41800000000E+01 0.  1.
         -5    1    4    4    0  501 -0.52915601495E+02  0.10586657939E+03  0.34894902934E+03  0.36849788465E+03  0.41800000000E+01 0.  1.
</event>
<event>
11    1  0.7882745E-009  0.2478509E+03  0.7561462E-02  0.1025050E+00
         22   -1    0    0    0    0  0.00000000000E+00  0.00000000000E+00  0.32478403831E+03  0.32478403831E+03  0.00000000000E+00 0.  1.
         22   -1    0    0    0    0 -0.00000000000E+00 -0.00000000000E+00 -0.26376056433E+04  0.26376056433E+04  0.00000000000E+00 0. -1.
         24    2    1    2    0    0  0.29469636353E+02  0.76225274499E+02 -0.19454075224E+04  0.19487772939E+04  0.80273041954E+02 0.  0.
         25    2    1    2    0    0 -0.20417103856E+03 -0.19217715304E+03 -0.60990044364E+03  0.68282141707E+03  0.12509462547E+03 0.  0.
        -24    2    1    2    0    0  0.17470140221E+03  0.11595187854E+03  0.24248636107E+03  0.33079097056E+03  0.81594196020E+02 0.  0.
        -11    1    3    3    0    0  0.19406513733E+02  0.81188083876E+02 -0.10544055972E+04  0.10577047230E+04  0.00000000000E+00 0.  1.
         12    1    3    3    0    0  0.10063122620E+02 -0.49628093774E+01 -0.89100192524E+03  0.89107257095E+03  0.00000000000E+00 0. -1.
         13    1    5    5    0    0  0.26461102305E+02  0.70569808393E+01  0.12301532670E+01  0.27413576761E+02  0.00000000000E+00 0. -1.
        -14    1    5    5    0    0  0.14824029990E+03  0.10889489770E+03  0.24125620781E+03  0.30337739379E+03  0.00000000000E+00 0.  1.
          5    1    4    4  501    0 -0.19744738201E+03 -0.11343678921E+03 -0.44348808276E+03  0.49855042449E+03  0.41800000000E+01 0. -1.
         -5    1    4    4    0  501 -0.67236565478E+01 -0.78740363824E+02 -0.16641236088E+03  0.18427099258E+03  0.41800000000E+01 0. -1.
</event>
<event>
11    1  0.7882745E-009  0.3030223E+03  0.7561462E-02  0.9989202E-01
         22   -1    0    0    0    0  0.00000000000E+00  0.00000000000E+00  0.60974340682E+03  0.60974340682E+03  0.00000000000E+00 0.  1.
         22   -1    0    0    0    0 -0.00000000000E+00 -0.00000000000E+00 -0.11784796037E+04  0.11784796037E+04  0.00000000000E+00 0.  1.
         24    2    1    2    0    0 -0.39819830888E+02  0.13733576838E+02 -0.10317684234E+04  0.10357565910E+04  0.80445051043E+02 0.  0.
         25    2    1    2    0    0 -0.53326330789E+02 -0.27297906121E+03  0.24619624209E+03  0.39194688079E+03  0.12509397396E+03 0.  0.
        -24    2    1    2    0    0  0.93146161677E+02  0.25924548437E+03  0.21683598445E+03  0.36051953870E+03  0.84095570793E+02 0.  0.
        -11    1    3    3    0    0  0.17698585617E+01  0.34363413836E+02 -0.68897984969E+03  0.68983853900E+03  0.00000000000E+00 0.  1.
         12    1    3    3    0    0 -0.41589689450E+02 -0.20629836998E+02 -0.34278857373E+03  0.34591805203E+03  0.00000000000E+00 0. -1.
         11    1    5    5    0    0 -0.11969260568E+01  0.17163785982E+02  0.47175498207E+02  0.50215095463E+02  0.00000000000E+00 0. -1.
        -12    1    5    5    0    0  0.94343087734E+02  0.24208169839E+03  0.16966048625E+03  0.31030444324E+03  0.00000000000E+00 0.  1.
          5    1    4    4  501    0 -0.76275533042E+02 -0.20160185719E+03  0.22977557177E+03  0.31508023033E+03  0.41800000000E+01 0.  1.
         -5    1    4    4    0  501  0.22949202253E+02 -0.71377204024E+02  0.16420670324E+02  0.76866650455E+02  0.41800000000E+01 0.  1.
</event>
<event>
11    1  0.7882745E-009  0.2216059E+03  0.7561462E-02  0.1040216E+00
         22   -1    0    0    0    0  0.00000000000E+00  0.00000000000E+00  0.13010442350E+04  0.13010442350E+04  0.00000000000E+00 0. -1.
         22   -1    0    0    0    0 -0.00000000000E+00 -0.00000000000E+00 -0.32684771569E+03  0.32684771569E+03  0.00000000000E+00 0.  1.
         24    2    1    2    0    0  0.15455770161E+02  0.74394705422E+02 -0.23640627235E+03  0.26104925333E+03  0.80531571649E+02 0.  0.
         25    2    1    2    0    0 -0.19608085566E+03 -0.52243287545E+02  0.13679295647E+03  0.27484146277E+03  0.12509377948E+03 0.  0.
        -24    2    1    2    0    0  0.18062508550E+03 -0.22151417877E+02  0.10738098352E+04  0.10920012346E+04  0.79265549636E+02 0.  0.
        -13    1    3    3    0    0  0.38472132520E+02  0.75486842996E+02 -0.20716188369E+03  0.22381781542E+03  0.00000000000E+00 0.  1.
         14    1    3    3    0    0 -0.23016362359E+02 -0.10921375739E+01 -0.29244388661E+02  0.37231437910E+02  0.00000000000E+00 0. -1.
         13    1    5    5    0    0  0.94624388760E+02 -0.50047718852E+02  0.63716482300E+03  0.64609408044E+03  0.00000000000E+00 0. -1.
        -14    1    5    5    0    0  0.86000696739E+02  0.27896300975E+02  0.43664501218E+03  0.44590715413E+03  0.00000000000E+00 0.  1.
          5    1    4    4  501    0 -0.14672474541E+03  0.20432841395E+02  0.10366844721E+03  0.18085981110E+03  0.41800000000E+01 0.  1.
         -5    1    4    4    0  501 -0.49356110250E+02 -0.72676128940E+02  0.33124509264E+02  0.93981651670E+02  0.41800000000E+01 0.  1.
</event>
<event>
11    1  0.7882745E-009  0.1386168E+03  0.7561462E-02  0.1109113E+00
         22   -1    0    0    0    0  0.00000000000E+00  0.00000000000E+00  0.84013275627E+03  0.84013275627E+03  0.00000000000E+00 0.  1.
         22   -1    0    0    0    0 -0.00000000000E+00 -0.00000000000E+00 -0.42614503463E+03  0.42614503463E+03  0.00000000000E+00 0.  1.
         24    2    1    2    0    0 -0.35035421118E+02 -0.47626802552E+02 -0.35866615963E+03  0.37340656447E+03  0.85412266543E+02 0.  0.
         25    2    1    2    0    0  0.39554487100E+02  0.53867314202E+02  0.28902683253E+02  0.14473695065E+03  0.12508866773E+03 0.  0.
        -24    2    1    2    0    0 -0.45190659821E+01 -0.62405116502E+01  0.74375119802E+03  0.74813427578E+03  0.80496485007E+02 0.  0.
        -11    1    3    3    0    0  0.51352990190E+01 -0.46119836042E+02 -0.29118397775E+03  0.29485847363E+03  0.00000000000E+00 0.  1.
         12    1    3    3    0    0 -0.40170720137E+02 -0.15069665095E+01 -0.67482181874E+02  0.78548090841E+02  0.00000000000E+00 0. -1.
         13    1    5    5    0    0 -0.42025671944E+02  0.69207799884E+00  0.34086509658E+03  0.34344672096E+03  0.00000000000E+00 0. -1.
        -14    1    5    5    0    0  0.37506605962E+02 -0.69325896491E+01  0.40288610144E+03  0.40468755482E+03  0.00000000000E+00 0.  1.
          5    1    4    4  501    0  0.57591995361E+02 -0.14987815508E+02  0.41040018052E+02  0.72410137585E+02  0.41800000000E+01 0.  1.
         -5    1    4    4    0  501 -0.18037508261E+02  0.68855129710E+02 -0.12137334799E+02  0.72326813062E+02  0.41800000000E+01 0.  1.
</event>
<event>
11    1  0.7882745E-009  0.1486793E+03  0.7561462E-02  0.1098236E+00
         22   -1    0    0    0    0  0.00000000000E+00  0.00000000000E+00  0.20585929149E+04  0.20585929149E+04  0.00000000000E+00 0. -1.
         22   -1    0    0    0    0 -0.00000000000E+00 -0.00000000000E+00 -0.62968699355E+03  0.62968699355E+03  0.00000000000E+00 0.  1.
        -24    2    1    2    0    0  0.19068864291E+02  0.73765454940E+02 -0.54677708502E+03  0.55795769663E+03  0.80911350301E+02 0.  0.
         25    2    1    2    0    0  0.24673352308E+02 -0.13986219622E+03  0.42705990782E+02  0.19401143514E+03  0.12508567892E+03 0.  0.
         24    2    1    2    0    0 -0.43742216599E+02  0.66096741281E+02  0.19329770156E+04  0.19363107767E+04  0.81345684301E+02 0.  0.
        -13    1    5    5    0    0  0.10687958326E+02 -0.12681374662E+02  0.19793861175E+03  0.19863218203E+03  0.00000000000E+00 0.  1.
         14    1    5    5    0    0 -0.54430174925E+02  0.78778115943E+02  0.17350384038E+04  0.17376785946E+04  0.00000000000E+00 0. -1.
         11    1    3    3    0    0  0.75351806371E+01 -0.83318485216E+01 -0.10720479718E+02  0.15528275255E+02  0.00000000000E+00 0. -1.
        -12    1    3    3    0    0  0.11533683654E+02  0.82097303461E+02 -0.53605660530E+03  0.54242942138E+03  0.00000000000E+00 0.  1.
          5    1    4    4  501    0 -0.48931185210E+02 -0.80867506018E+02  0.16700378495E+02  0.96073875000E+02  0.41800000000E+01 0. -1.
         -5    1    4    4    0  501  0.73604537518E+02 -0.58994690203E+02  0.26005612287E+02  0.97937560138E+02  0.41800000000E+01 0. -1.
</event>
<event>
11    1  0.7882745E-009  0.1420843E+03  0.7561462E-02  0.1105253E+00
         22   -1    0    0    0    0  0.00000000000E+00  0.00000000000E+00  0.19319952930E+04  0.19319952930E+04  0.00000000000E+00 0. -1.
         22   -1    0    0    0    0 -0.00000000000E+00 -0.00000000000E+00 -0.26195168602E+03  0.26195168602E+03  0.00000000000E+00 0.  1.
         24    2    1    2    0    0  0.11162976555E+02  0.96742012204E+01 -0.24061922157E+03  0.25453458505E+03  0.81682574530E+02 0.  0.
         25    2    1    2    0    0 -0.49624169667E+02 -0.62692609582E+02  0.42846880221E+03  0.45346012595E+03  0.12509056658E+03 0.  0.
        -24    2    1    2    0    0  0.38461193112E+02  0.53018408361E+02  0.14821940263E+04  0.14859522680E+04  0.82854065367E+02 0.  0.
        -13    1    3    3    0    0 -0.26942237305E+01  0.43144725561E+02 -0.93320202781E+02  0.10284642158E+03  0.00000000000E+00 0.  1.
         14    1    3    3    0    0  0.13857200286E+02 -0.33470524341E+02 -0.14729901879E+03  0.15168816346E+03  0.00000000000E+00 0. -1.
         13    1    5    5    0    0  0.12442124895E+02 -0.13974698010E+02  0.75138723358E+03  0.75162016567E+03  0.00000000000E+00 0. -1.
        -14    1    5    5    0    0  0.26019068217E+02  0.66993106371E+02  0.73080679273E+03  0.73433210233E+03  0.00000000000E+00 0.  1.
          5    1    4    4  501    0  0.19812753410E+02  0.21831436490E+02  0.40024394188E+02  0.49885682786E+02  0.41800000000E+01 0. -1.
         -5    1    4    4    0  501 -0.69436923078E+02 -0.84524046072E+02  0.38844440802E+03  0.40357444316E+03  0.41800000000E+01 0. -1.
</event>
<event>
11    1  0.7882745E-009  0.2201200E+03  0.7561462E-02  0.1041142E+00
         22   -1    0    0    0    0  0.00000000000E+00  0.00000000000E+00  0.76695266100E+03  0.76695266100E+03  0.00000000000E+00 0. -1.
         22   -1    0    0    0    0 -0.00000000000E+00 -0.00000000000E+00 -0.18307724251E+03  0.18307724251E+03  0.00000000000E+00 0.  1.
        -24    2    1    2    0    0  0.20980459858E+02  0.76769675493E+01 -0.93411188483E+02  0.13660209175E+03  0.97135811164E+02 0.  0.
         25    2    1    2    0    0  0.16612265775E+03  0.66993801936E+01  0.18108873904E+03  0.27582927436E+03  0.12508812124E+03 0.  0.
         24    2    1    2    0    0 -0.18710311760E+03 -0.14376347743E+02  0.49619786793E+03  0.53759853740E+03  0.87095391865E+02 0.  0.
        -13    1    5    5    0    0 -0.35855194445E+02  0.60682582813E+01  0.30284994895E+02  0.47324408534E+02  0.00000000000E+00 0.  1.
         14    1    5    5    0    0 -0.15124792316E+03 -0.20444606024E+02  0.46591287303E+03  0.49027412886E+03  0.00000000000E+00 0. -1.
         13    1    3    3    0    0  0.31506668033E+02  0.16692413443E+02  0.60628832623E+01  0.36167186102E+02  0.00000000000E+00 0. -1.
        -14    1    3    3    0    0 -0.10526208175E+02 -0.90154458937E+01 -0.99474071745E+02  0.10043490565E+03  0.00000000000E+00 0.  1.
          5    1    4    4  501    0  0.78795447083E+01  0.40702568487E+02  0.62579482174E+02  0.75182779248E+02  0.41800000000E+01 0. -1.
         -5    1    4    4    0  501  0.15824311304E+03 -0.34003188294E+02  0.11850925687E+03  0.20064649511E+03  0.41800000000E+01 0. -1.
</event>
<event>
11    1  0.7882745E-009  0.1580358E+03  0.7561462E-02  0.1088939E+00
         22   -1    0    0    0    0  0.00000000000E+00  0.00000000000E+00  0.15088866707E+03  0.15088866707E+03  0.00000000000E+00 0.  1.
         22   -1    0    0    0    0 -0.00000000000E+00 -0.00000000000E+00 -0.11512657113E+04  0.11512657113E+04  0.00000000000E+00 0.  1.
        -24    2    1    2    0    0  0.16136953337E+02 -0.22337416160E+02 -0.87036132646E+03  0.87378612996E+03  0.72208038889E+02 0.  0.
         25    2    1    2    0    0 -0.10646922826E+03 -0.90240039249E+01 -0.21982654772E+03  0.27457092856E+03  0.12509338316E+03 0.  0.
         24    2    1    2    0    0  0.90332274924E+02  0.31361420085E+02  0.89810829991E+02  0.15379731981E+03  0.80275599253E+02 0.  0.
        -11    1    5    5    0    0  0.85823059692E+02  0.42864240987E+02  0.99411480908E+02  0.13815058185E+03  0.00000000000E+00 0.  1.
         12    1    5    5    0    0  0.45092152318E+01 -0.11502820903E+02 -0.96006509170E+01  0.15646737959E+02  0.00000000000E+00 0. -1.
         11    1    3    3    0    0  0.34000838309E+02 -0.18057327984E+02 -0.23292007319E+03  0.23608025033E+03  0.00000000000E+00 0. -1.
        -12    1    3    3    0    0 -0.17863884972E+02 -0.42800881758E+01 -0.63744125327E+03  0.63770587963E+03  0.00000000000E+00 0.  1.
          5    1    4    4  501    0 -0.41334459446E+02 -0.51544544554E+02 -0.16913995252E+03  0.18163472561E+03  0.41800000000E+01 0.  1.
         -5    1    4    4    0  501 -0.65134768815E+02  0.42520540629E+02 -0.50686595204E+02  0.92936202942E+02  0.41800000000E+01 0.  1.
</event>
<event>
11    1  0.7882745E-009  0.1256296E+03  0.7561462E-02  0.1124759E+00
         22   -1    0    0    0    0  0.00000000000E+00  0.00000000000E+00  0.10665282336E+04  0.10665282336E+04  0.00000000000E+00 0. -1.
         22   -1    0    0    0    0 -0.00000000000E+00 -0.00000000000E+00 -0.11528382128E+03  0.11528382128E+03  0.00000000000E+00 0. -1.
         24    2    1    2    0    0  0.73296471005E+01  0.12107883341E+01 -0.53851667300E+02  0.97298316935E+02  0.80695543076E+02 0.  0.
         25    2    1    2    0    0 -0.14055127828E+02  0.81342549014E+01  0.66973771581E+02  0.14281418062E+03  0.12508673545E+03 0.  0.
        -24    2    1    2    0    0  0.67254807278E+01 -0.93450432355E+01  0.93812230804E+03  0.94169955733E+03  0.81191314262E+02 0.  0.
        -13    1    3    3    0    0 -0.94395052230E+01  0.36121804522E+02 -0.97144160751E+01  0.38577958739E+02  0.00000000000E+00 0.  1.
         14    1    3    3    0    0  0.16769152323E+02 -0.34911016188E+02 -0.44137251225E+02  0.58720358195E+02  0.00000000000E+00 0. -1.
         11    1    5    5    0    0 -0.10881705686E+02  0.14920099360E+02  0.80628418571E+03  0.80649563484E+03  0.00000000000E+00 0. -1.
        -12    1    5    5    0    0  0.17607186414E+02 -0.24265142596E+02  0.13183812233E+03  0.13520392250E+03  0.00000000000E+00 0.  1.
          5    1    4    4  501    0  0.52424266086E+02  0.18702435986E+02  0.45566083091E+02  0.72054320583E+02  0.41800000000E+01 0.  1.
         -5    1    4    4    0  501 -0.66479393914E+02 -0.10568181084E+02  0.21407688490E+02  0.70759860041E+02  0.41800000000E+01 0.  1.
</event>
<event>
11    1  0.7882745E-009  0.1351269E+03  0.7561462E-02  0.1113125E+00
         22   -1    0    0    0    0  0.00000000000E+00  0.00000000000E+00  0.26603979950E+03  0.26603979950E+03  0.00000000000E+00 0.  1.
         22   -1    0    0    0    0 -0.00000000000E+00 -0.00000000000E+00 -0.83250262253E+03  0.83250262253E+03  0.00000000000E+00 0.  1.
         24    2    1    2    0    0  0.21469661519E+02  0.45171639730E+02 -0.72464057779E+03  0.73032493474E+03  0.75954722816E+02 0.  0.
         25    2    1    2    0    0 -0.50597957857E+02 -0.55699588537E+02 -0.40223056739E+02  0.15142320994E+03  0.12509395155E+03 0.  0.
        -24    2    1    2    0    0  0.29128296338E+02  0.10527948806E+02  0.19840081150E+03  0.21679427734E+03  0.81716469134E+02 0.  0.
        -13    1    3    3    0    0  0.99530691848E+01  0.64123368483E+02 -0.61834553209E+03  0.62174115758E+03  0.00000000000E+00 0.  1.
         14    1    3    3    0    0  0.11516592334E+02 -0.18951728753E+02 -0.10629504571E+03  0.10858377717E+03  0.00000000000E+00 0. -1.
         11    1    5    5    0    0 -0.55975679378E+01 -0.90224414234E+01 -0.33590469774E+01  0.11136445243E+02  0.00000000000E+00 0. -1.
        -12    1    5    5    0    0  0.34725864276E+02  0.19550390230E+02  0.20175985848E+03  0.20565783209E+03  0.00000000000E+00 0.  1.
          5    1    4    4  501    0 -0.11274605552E+02 -0.62667494798E+02  0.30015070100E+02  0.70517433785E+02  0.41800000000E+01 0. -1.
         -5    1    4    4    0  501 -0.39323352306E+02  0.69679062608E+01 -0.70238126839E+02  0.80905776160E+02  0.41800000000E+01 0. -1.
</event>
<event>
11    1  0.7882745E-009  0.1682744E+03  0.7561462E-02  0.1079543E+00
         22   -1    0    0    0    0  0.00000000000E+00  0.00000000000E+00  0.17008850649E+04  0.17008850649E+04  0.00000000000E+00 0. -1.
         22   -1    0    0    0    0 -0.00000000000E+00 -0.00000000000E+00 -0.53114590597E+03  0.53114590597E+03  0.00000000000E+00 0.  1.
         24    2    1    2    0    0 -0.92127067524E+02  0.58752656249E+02 -0.45073276721E+03  0.47074343662E+03  0.80623101534E+02 0.  0.
         25    2    1    2    0    0  0.16658574870E+03 -0.49734720241E+02  0.99068556759E+02  0.23597580644E+03  0.12508256561E+03 0.  0.
        -24    2    1    2    0    0 -0.74458681172E+02 -0.90179360074E+01  0.15214033693E+04  0.15253117278E+04  0.79260559492E+02 0.  0.
        -13    1    3    3    0    0 -0.67224393067E+02  0.77547772028E+02 -0.30828828366E+03  0.32492220886E+03  0.00000000000E+00 0.  1.
         14    1    3    3    0    0 -0.24902674456E+02 -0.18795115779E+02 -0.14244448355E+03  0.14582122776E+03  0.00000000000E+00 0. -1.
         13    1    5    5    0    0 -0.65482564145E+02 -0.26179995274E+02  0.14363875453E+04  0.14381177068E+04  0.00000000000E+00 0. -1.
        -14    1    5    5    0    0 -0.89761170270E+01  0.17162059266E+02  0.85015824096E+02  0.87194021022E+02  0.00000000000E+00 0.  1.
          5    1    4    4  501    0  0.66993610279E+02 -0.48285248862E+02 -0.15478864669E+02  0.84122985725E+02  0.41800000000E+01 0.  1.
         -5    1    4    4    0  501  0.99592138417E+02 -0.14494713790E+01  0.11454742143E+03  0.15185282071E+03  0.41800000000E+01 0.  1.
</event>
<event>
11    1  0.7882745E-009  0.2041308E+03  0.7561462E-02  0.1051640E+00
         22   -1    0    0    0    0  0.00000000000E+00  0.00000000000E+00  0.35504088129E+03  0.35504088129E+03  0.00000000000E+00 0. -1.
         22   -1    0    0    0    0 -0.00000000000E+00 -0.00000000000E+00 -0.35581810194E+03  0.35581810194E+03  0.00000000000E+00 0. -1.
         24    2    1    2    0    0 -0.13711298323E+03 -0.69878089447E+02 -0.24153834803E+02  0.17535391792E+03  0.80515037349E+02 0.  0.
         25    2    1    2    0    0  0.11861229032E+03  0.11998732890E+03 -0.20192254565E+03  0.29135194163E+03  0.12508958764E+03 0.  0.
        -24    2    1    2    0    0  0.18500692908E+02 -0.50109239453E+02  0.22529915980E+03  0.24415312368E+03  0.77445625320E+02 0.  0.
        -13    1    3    3    0    0 -0.14012476134E+01  0.59736551529E+01 -0.18816412713E+02  0.19791549665E+02  0.00000000000E+00 0.  1.
         14    1    3    3    0    0 -0.13571173561E+03 -0.75851744600E+02 -0.53374220905E+01  0.15556236825E+03  0.00000000000E+00 0. -1.
         13    1    5    5    0    0  0.20726102876E+02 -0.46432017150E+01  0.17511910705E+03  0.17640247253E+03  0.00000000000E+00 0. -1.
        -14    1    5    5    0    0 -0.22254099686E+01 -0.45466037738E+02  0.50180052753E+02  0.67750651152E+02  0.00000000000E+00 0.  1.
          5    1    4    4  501    0 -0.13742326835E+01  0.77642394280E+02 -0.47135846565E+02  0.90936738100E+02  0.41800000000E+01 0. -1.
         -5    1    4    4    0  501  0.11998652300E+03  0.42344934621E+02 -0.15478669909E+03  0.20041520353E+03  0.41800000000E+01 0. -1.
</event>
<event>
11    1  0.7882745E-009  0.1268557E+03  0.7561462E-02  0.1123194E+00
         22   -1    0    0    0    0  0.00000000000E+00  0.00000000000E+00  0.20752632407E+04  0.20752632407E+04  0.00000000000E+00 0. -1.
         22   -1    0    0    0    0 -0.00000000000E+00 -0.00000000000E+00 -0.12056279069E+03  0.12056279069E+03  0.00000000000E+00 0. -1.
         24    2    1    2    0    0 -0.11594246603E+02  0.16810423084E+02 -0.83407316008E+02  0.13636789677E+03  0.10593585808E+03 0.  0.
         25    2    1    2    0    0 -0.26310981848E+02 -0.57635252017E+02  0.52355329819E+03  0.54200293475E+03  0.12508011509E+03 0.  0.
        -24    2    1    2    0    0  0.37905228451E+02  0.40824828933E+02  0.15145544678E+04  0.15174551999E+04  0.75442525013E+02 0.  0.
        -13    1    3    3    0    0  0.10076866243E+02  0.31491027243E+02  0.13703474159E+02  0.35791245216E+02  0.00000000000E+00 0.  1.
         14    1    3    3    0    0 -0.21671112846E+02 -0.14680604159E+02 -0.97110790167E+02  0.10057665155E+03  0.00000000000E+00 0. -1.
         11    1    5    5    0    0  0.57433544789E+02  0.44333223736E+02  0.12841648389E+04  0.12862128052E+04  0.00000000000E+00 0. -1.
        -12    1    5    5    0    0 -0.19528316338E+02 -0.35083948028E+01  0.23038962896E+03  0.23124239470E+03  0.00000000000E+00 0.  1.
          5    1    4    4  501    0 -0.11422019720E+02  0.10603034402E+02  0.25662157991E+01  0.16338443516E+02  0.41800000000E+01 0.  1.
         -5    1    4    4    0  501 -0.14888962128E+02 -0.68238286419E+02  0.52098708239E+03  0.52566449124E+03  0.41800000000E+01 0.  1.
</event>
<event>
11    1  0.7882745E-009  0.1730885E+03  0.7561462E-02  0.1075375E+00
         22   -1    0    0    0    0  0.00000000000E+00  0.00000000000E+00  0.81958304274E+03  0.81958304274E+03  0.00000000000E+00 0. -1.
         22   -1    0    0    0    0 -0.00000000000E+00 -0.00000000000E+00 -0.12522793697E+04  0.12522793697E+04  0.00000000000E+00 0.  1.
        -24    2    1    2    0    0  0.18646819769E+02 -0.59515273663E+02 -0.12015350759E+04  0.12058043992E+04  0.79924580776E+02 0.  0.
         25    2    1    2    0    0  0.55490167598E+02  0.14527831811E+03  0.20972639740E+03  0.28951415091E+03  0.12509329875E+03 0.  0.
         24    2    1    2    0    0 -0.74136987368E+02 -0.85763044448E+02  0.55911235156E+03  0.57654386241E+03  0.83334332218E+02 0.  0.
        -13    1    5    5    0    0 -0.43486997957E+02 -0.15371806160E+02  0.89386060362E+02  0.10058468672E+03  0.00000000000E+00 0.  1.
         14    1    5    5    0    0 -0.30649989411E+02 -0.70391238288E+02  0.46972629120E+03  0.47595917569E+03  0.00000000000E+00 0. -1.
         11    1    3    3    0    0  0.43634129111E+02 -0.21931781745E+02 -0.39498167161E+03  0.39798927270E+03  0.00000000000E+00 0. -1.
        -12    1    3    3    0    0 -0.24987309342E+02 -0.37583491918E+02 -0.80655340433E+03  0.80781512646E+03  0.00000000000E+00 0.  1.
          5    1    4    4  501    0  0.70619513874E+02  0.68337578846E+02  0.47385234424E+02  0.10917863007E+03  0.41800000000E+01 0. -1.
         -5    1    4    4    0  501 -0.15129346276E+02  0.76940739266E+02  0.16234116298E+03  0.18033552084E+03  0.41800000000E+01 0. -1.
</event>
<event>
11    1  0.7882745E-009  0.1325278E+03  0.7561462E-02  0.1116202E+00
         22   -1    0    0    0    0  0.00000000000E+00  0.00000000000E+00  0.11661985702E+04  0.11661985702E+04  0.00000000000E+00 0.  1.
         22   -1    0    0    0    0 -0.00000000000E+00 -0.00000000000E+00 -0.22441949790E+03  0.22441949790E+03  0.00000000000E+00 0. -1.
         24    2    1    2    0    0  0.22405011927E+02 -0.77806649143E+01 -0.19737488283E+03  0.21487529942E+03  0.81559957224E+02 0.  0.
         25    2    1    2    0    0  0.10168583940E+02  0.38972838479E+02  0.25587325270E+03  0.28764819208E+03  0.12509228080E+03 0.  0.
        -24    2    1    2    0    0 -0.32573595867E+02 -0.31192173565E+02  0.88328070241E+03  0.88809457658E+03  0.80580313093E+02 0.  0.
        -11    1    3    3    0    0 -0.90364650362E+01  0.30761346084E+02 -0.10720318174E+03  0.11189477329E+03  0.00000000000E+00 0.  1.
         12    1    3    3    0    0  0.31441476963E+02 -0.38542010999E+02 -0.90171701090E+02  0.10298052613E+03  0.00000000000E+00 0. -1.
         13    1    5    5    0    0 -0.23855658817E+02  0.16888123522E+02  0.13065986388E+03  0.13388913773E+03  0.00000000000E+00 0. -1.
        -14    1    5    5    0    0 -0.87179370499E+01 -0.48080297086E+02  0.75262083853E+03  0.75420543884E+03  0.00000000000E+00 0.  1.
          5    1    4    4  501    0  0.35179224673E+02 -0.34525304307E+02  0.13650703505E+03  0.14519372405E+03  0.41800000000E+01 0.  1.
         -5    1    4    4    0  501 -0.25010640733E+02  0.73498142786E+02  0.11936621766E+03  0.14245446803E+03  0.41800000000E+01 0.  1.
</event>
<event>
11    1  0.7882745E-009  0.1422977E+03  0.7561462E-02  0.1105019E+00
         22   -1    0    0    0    0  0.00000000000E+00  0.00000000000E+00  0.15284389875E+04  0.15284389875E+04  0.00000000000E+00 0.  1.
         22   -1    0    0    0    0 -0.00000000000E+00 -0.00000000000E+00 -0.17846812791E+03  0.17846812791E+03  0.00000000000E+00 0. -1.
         24    2    1    2    0    0  0.66532651341E+01 -0.19415188218E+02 -0.19771963667E+02  0.88889750011E+02  0.84197634404E+02 0.  0.
         25    2    1    2    0    0 -0.61958897974E+02  0.58254948026E+02 -0.75417400634E+02  0.16901747927E+03  0.12508629011E+03 0.  0.
        -24    2    1    2    0    0  0.55305632840E+02 -0.38839759809E+02  0.14451602239E+04  0.14489998861E+04  0.80903382464E+02 0.  0.
        -13    1    3    3    0    0 -0.32854634216E+02 -0.13323675624E+01  0.12064327621E+02  0.35024993844E+02  0.00000000000E+00 0.  1.
         14    1    3    3    0    0  0.39507899350E+02 -0.18082820655E+02 -0.31836291289E+02  0.53864756167E+02  0.00000000000E+00 0. -1.
         11    1    5    5    0    0  0.33034638217E+02  0.36769677927E+01  0.18744691090E+03  0.19037108977E+03  0.00000000000E+00 0. -1.
        -12    1    5    5    0    0  0.22270994623E+02 -0.42516727601E+02  0.12577133130E+04  0.12586287963E+04  0.00000000000E+00 0.  1.
          5    1    4    4  501    0  0.13232170685E+02  0.76425091810E+01  0.27547817568E+02  0.31778183403E+02  0.41800000000E+01 0.  1.
         -5    1    4    4    0  501 -0.75191068659E+02  0.50612438845E+02 -0.10296521820E+03  0.13723929587E+03  0.41800000000E+01 0.  1.
</event>
<event>
11    1  0.7882745E-009  0.2261157E+03  0.7561462E-02  0.1037453E+00
         22   -1    0    0    0    0  0.00000000000E+00  0.00000000000E+00  0.80345580313E+03  0.80345580313E+03  0.00000000000E+00 0.  1.
         22   -1    0    0    0    0 -0.00000000000E+00 -0.00000000000E+00 -0.53956394493E+03  0.53956394493E+03  0.00000000000E+00 0. -1.
         24    2    1    2    0    0  0.89083960049E+02  0.16002130386E+03 -0.44211830204E+03  0.48688614614E+03  0.89703716038E+02 0.  0.
         25    2    1    2    0    0 -0.13892114078E+03 -0.21940151058E+03  0.23544254608E+03  0.37217348932E+03  0.12507520715E+03 0.  0.
        -24    2    1    2    0    0  0.49837180733E+02  0.59380206720E+02  0.47056761417E+03  0.48396011260E+03  0.82302840481E+02 0.  0.
        -11    1    3    3    0    0  0.60158751830E+00 -0.10533290222E+02 -0.13202606993E+02  0.16900323721E+02  0.00000000000E+00 0.  1.
         12    1    3    3    0    0  0.88482372530E+02  0.17055459409E+03 -0.42891569505E+03  0.46998582242E+03  0.00000000000E+00 0. -1.
         11    1    5    5    0    0  0.67560117019E+02  0.21455369073E+02  0.27799894104E+03  0.28689390634E+03  0.00000000000E+00 0. -1.
        -12    1    5    5    0    0 -0.17722936286E+02  0.37924837646E+02  0.19256867313E+03  0.19706620627E+03  0.00000000000E+00 0.  1.
          5    1    4    4  501    0 -0.68943592275E+02 -0.20295698043E+03  0.15723588650E+03  0.26586716838E+03  0.41800000000E+01 0.  1.
         -5    1    4    4    0  501 -0.69977548507E+02 -0.16444530151E+02  0.78206659583E+02  0.10630632093E+03  0.41800000000E+01 0.  1.
</event>
<event>
11    1  0.7882745E-009  0.1415795E+03  0.7561462E-02  0.1105807E+00
         22   -1    0    0    0    0  0.00000000000E+00  0.00000000000E+00  0.23935567615E+03  0.23935567615E+03  0.00000000000E+00 0.  1.
         22   -1    0    0    0    0 -0.00000000000E+00 -0.00000000000E+00 -0.34536830772E+04  0.34536830772E+04  0.00000000000E+00 0.  1.
        -24    2    1    2    0    0  0.45543081200E+02  0.38178336691E+02 -0.31145162426E+04  0.31161308595E+04  0.80798210480E+02 0.  0.
         25    2    1    2    0    0  0.25462664360E+01  0.10737259952E+02 -0.31318096086E+03  0.33741885234E+03  0.12508954972E+03 0.  0.
         24    2    1    2    0    0 -0.48089347636E+02 -0.48915596643E+02  0.21336980242E+03  0.23948904144E+03  0.84397911305E+02 0.  0.
        -13    1    5    5    0    0 -0.42443524790E+02 -0.61951266641E+02  0.21236055889E+03  0.22524746216E+03  0.00000000000E+00 0.  1.
         14    1    5    5    0    0 -0.56458228460E+01  0.13035669998E+02  0.10092435276E+01  0.14241579280E+02  0.00000000000E+00 0. -1.
         13    1    3    3    0    0  0.53831435707E+02 -0.48059084955E+01 -0.13703437369E+04  0.13714090847E+04  0.00000000000E+00 0. -1.
        -14    1    3    3    0    0 -0.82883545070E+01  0.42984245187E+02 -0.17441725057E+04  0.17447217749E+04  0.00000000000E+00 0.  1.
          5    1    4    4  501    0 -0.11370212430E+02 -0.29794862313E+02 -0.13869970026E+02  0.35026618727E+02  0.41800000000E+01 0.  1.
         -5    1    4    4    0  501  0.13916478866E+02  0.40532122265E+02 -0.29931099083E+03  0.30239223362E+03  0.41800000000E+01 0.  1.
</event>
<event>
11    1  0.7882745E-009  0.2225316E+03  0.7561462E-02  0.1039643E+00
         22   -1    0    0    0    0  0.00000000000E+00  0.00000000000E+00  0.27317670568E+04  0.27317670568E+04  0.00000000000E+00 0.  1.
         22   -1    0    0    0    0 -0.00000000000E+00 -0.00000000000E+00 -0.41038173301E+03  0.41038173301E+03  0.00000000000E+00 0.  1.
        -24    2    1    2    0    0 -0.18562852582E+03 -0.64230018407E+01 -0.36684839771E+03  0.42139026988E+03  0.92156432756E+02 0.  0.
         25    2    1    2    0    0  0.14621851607E+03 -0.25737118456E+02  0.60630376745E+03  0.63662821778E+03  0.12509586540E+03 0.  0.
         24    2    1    2    0    0  0.39410009749E+02  0.32160120297E+02  0.20819299541E+04  0.20841303021E+04  0.81113257415E+02 0.  0.
        -11    1    5    5    0    0  0.58076509178E+02  0.54723712119E+01  0.16220465150E+04  0.16230951064E+04  0.00000000000E+00 0.  1.
         12    1    5    5    0    0 -0.18666499429E+02  0.26687749085E+02  0.45988343910E+03  0.46103519574E+03  0.00000000000E+00 0. -1.
         11    1    3    3    0    0 -0.48218062416E+02  0.16535610891E+01 -0.28311574400E+02  0.55939798466E+02  0.00000000000E+00 0. -1.
        -12    1    3    3    0    0 -0.13741046341E+03 -0.80765629298E+01 -0.33853682331E+03  0.36545047142E+03  0.00000000000E+00 0.  1.
          5    1    4    4  501    0  0.90130964129E+02 -0.28523719547E+02  0.54592325993E+03  0.55406395967E+03  0.41800000000E+01 0. -1.
         -5    1    4    4    0  501  0.56087551944E+02  0.27866010910E+01  0.60380507516E+02  0.82564258107E+02  0.41800000000E+01 0. -1.
</event>
<event>
11    1  0.7882745E-009  0.2374875E+03  0.7561462E-02  0.1030784E+00
         22   -1    0    0    0    0  0.00000000000E+00  0.00000000000E+00  0.49196349135E+03  0.49196349135E+03  0.00000000000E+00 0.  1.
         22   -1    0    0    0    0 -0.00000000000E+00 -0.00000000000E+00 -0.49310845824E+03  0.49310845824E+03  0.00000000000E+00 0. -1.
        -24    2    1    2    0    0 -0.13674565307E+03 -0.48721875523E+02 -0.22745102727E+03  0.28143813577E+03  0.80001622954E+02 0.  0.
         25    2    1    2    0    0 -0.18817816385E+02  0.19005186173E+03 -0.14440414260E+03  0.27013485573E+03  0.12508582461E+03 0.  0.
         24    2    1    2    0    0  0.15556346946E+03 -0.14132998621E+03  0.37071020298E+03  0.43349895809E+03  0.79505559836E+02 0.  0.
        -13    1    5    5    0    0  0.14102174974E+03 -0.11649163546E+03  0.35802819849E+03  0.40204679572E+03  0.00000000000E+00 0.  1.
         14    1    5    5    0    0  0.14541719715E+02 -0.24838350752E+02  0.12682004487E+02  0.31452162376E+02  0.00000000000E+00 0. -1.
         13    1    3    3    0    0 -0.42694690721E+02 -0.51348612370E+02 -0.62096370289E+02  0.91189230785E+02  0.00000000000E+00 0. -1.
        -14    1    3    3    0    0 -0.94050962348E+02  0.26267368474E+01 -0.16535465698E+03  0.19024890499E+03  0.00000000000E+00 0.  1.
          5    1    4    4  501    0 -0.69013712815E+02  0.14393250437E+03 -0.94440319360E+02  0.18551524113E+03  0.41800000000E+01 0. -1.
         -5    1    4    4    0  501  0.50195896430E+02  0.46119357365E+02 -0.49963823240E+02  0.84619614600E+02  0.41800000000E+01 0. -1.
</event>
<event>
11    1  0.7882745E-009  0.2654095E+03  0.7561462E-02  0.1015996E+00
         22   -1    0    0    0    0  0.00000000000E+00  0.00000000000E+00  0.51019887386E+03  0.51019887386E+03  0.00000000000E+00 0. -1.
         22   -1    0    0    0    0 -0.00000000000E+00 -0.00000000000E+00 -0.19341923021E+04  0.19341923021E+04  0.00000000000E+00 0.  1.
        -24    2    1    2    0    0  0.24541795831E+02 -0.23325889436E+03 -0.13664526751E+04  0.13887571463E+04  0.80258872018E+02 0.  0.
         25    2    1    2    0    0 -0.57801366331E+02  0.22732922531E+03 -0.52056635741E+03  0.58451345273E+03  0.12508824616E+03 0.  0.
         24    2    1    2    0    0  0.33259570499E+02  0.59296690567E+01  0.46302560424E+03  0.47112057696E+03  0.80128196331E+02 0.  0.
        -11    1    5    5    0    0  0.43101381013E+02  0.18411984128E+02  0.13868660575E+03  0.14639229768E+03  0.00000000000E+00 0.  1.
         12    1    5    5    0    0 -0.98418105135E+01 -0.12482315072E+02  0.32433899849E+03  0.32472827928E+03  0.00000000000E+00 0. -1.
         11    1    3    3    0    0  0.19169469789E+02 -0.76414436937E+01 -0.16570404041E+03  0.16698409877E+03  0.00000000000E+00 0. -1.
        -12    1    3    3    0    0  0.53723260417E+01 -0.22561745067E+03 -0.12007486347E+04  0.12217730475E+04  0.00000000000E+00 0.  1.
          5    1    4    4  501    0  0.37402282460E+02  0.96817142401E+02 -0.18905683516E+03  0.21571381300E+03  0.41800000000E+01 0.  1.
         -5    1    4    4    0  501 -0.95203648791E+02  0.13051208291E+03 -0.33150952225E+03  0.36879963973E+03  0.41800000000E+01 0.  1.
</event>
<event>
11    1  0.7882745E-009  0.1356363E+03  0.7561462E-02  0.1112531E+00
         22   -1    0    0    0    0  0.00000000000E+00  0.00000000000E+00  0.20864581675E+03  0.20864581675E+03  0.00000000000E+00 0. -1.
         22   -1    0    0    0    0 -0.00000000000E+00 -0.00000000000E+00 -0.89485295659E+03  0.89485295659E+03  0.00000000000E+00 0. -1.
        -24    2    1    2    0    0  0.79494663535E+01 -0.49661740761E+02 -0.79807587536E+03  0.80361493574E+03  0.79639058285E+02 0.  0.
         25    2    1    2    0    0  0.43236090245E+02  0.25420495334E+02 -0.20949525681E+02  0.13639030319E+03  0.12509145093E+03 0.  0.
         24    2    1    2    0    0 -0.51185556598E+02  0.24241245427E+02  0.13281826119E+03  0.16349353442E+03  0.76693194654E+02 0.  0.
        -13    1    5    5    0    0  0.28181677925E+01  0.17654546884E+02 -0.21176377753E+01  0.18003040997E+02  0.00000000000E+00 0.  1.
         14    1    5    5    0    0 -0.54003724390E+02  0.65866985425E+01  0.13493589897E+03  0.14549049342E+03  0.00000000000E+00 0. -1.
         11    1    3    3    0    0  0.19663454684E+00 -0.39603328916E+02 -0.78257330475E+03  0.78357478241E+03  0.00000000000E+00 0. -1.
        -12    1    3    3    0    0  0.77528318066E+01 -0.10058411845E+02 -0.15502570604E+02  0.20040153323E+02  0.00000000000E+00 0.  1.
          5    1    4    4  501    0  0.61372053135E+02  0.42579983624E+02 -0.55789312216E+02  0.93324721639E+02  0.41800000000E+01 0.  1.
         -5    1    4    4    0  501 -0.18135962890E+02 -0.17159488290E+02  0.34839786535E+02  0.43065581549E+02  0.41800000000E+01 0.  1.
</event>
<event>
11    1  0.7882745E-009  0.1591227E+03  0.7561462E-02  0.1087905E+00
         22   -1    0    0    0    0  0.00000000000E+00  0.00000000000E+00  0.45841708279E+03  0.45841708279E+03  0.00000000000E+00 0.  1.
         22   -1    0    0    0    0 -0.00000000000E+00 -0.00000000000E+00 -0.24215651028E+03  0.24215651028E+03  0.00000000000E+00 0.  1.
         24    2    1    2    0    0 -0.41023654051E+01 -0.10344379397E+03 -0.14479141526E+03  0.19662831925E+03  0.83550548103E+02 0.  0.
         25    2    1    2    0    0  0.19932948482E+01  0.81645478211E+02  0.16766228249E+02  0.15032846609E+03  0.12509030327E+03 0.  0.
        -24    2    1    2    0    0  0.21090705569E+01  0.21798315757E+02  0.34428575952E+03  0.35361680772E+03  0.77669477584E+02 0.  0.
        -13    1    3    3    0    0  0.10005030880E+02 -0.51744286289E+02 -0.13113009254E+03  0.14132470760E+03  0.00000000000E+00 0.  1.
         14    1    3    3    0    0 -0.14107396285E+02 -0.51699507679E+02 -0.13661322713E+02  0.55303611659E+02  0.00000000000E+00 0. -1.
         13    1    5    5    0    0 -0.16936170211E+02  0.37074827522E+02  0.98204277622E+02  0.10632712185E+03  0.00000000000E+00 0. -1.
        -14    1    5    5    0    0  0.19045240768E+02 -0.15276511764E+02  0.24608148189E+03  0.24728968587E+03  0.00000000000E+00 0.  1.
          5    1    4    4  501    0 -0.29454703547E+02  0.16215458017E+02 -0.44021984082E+02  0.55551130702E+02  0.41800000000E+01 0.  1.
         -5    1    4    4    0  501  0.31447998396E+02  0.65430020194E+02  0.60788212331E+02  0.94777335393E+02  0.41800000000E+01 0.  1.
</event>
<event>
11    1  0.7882745E-009  0.1908762E+03  0.7561462E-02  0.1061170E+00
         22   -1    0    0    0    0  0.00000000000E+00  0.00000000000E+00  0.75732760301E+03  0.75732760301E+03  0.00000000000E+00 0. -1.
         22   -1    0    0    0    0 -0.00000000000E+00 -0.00000000000E+00 -0.81472482432E+03  0.81472482432E+03  0.00000000000E+00 0.  1.
        -24    2    1    2    0    0 -0.58096377339E+02 -0.13210514252E+03 -0.76437517230E+03  0.78173487480E+03  0.77543876100E+02 0.  0.
         25    2    1    2    0    0 -0.40969967053E+01  0.15389527325E+03  0.23775585772E+03  0.30963884013E+03  0.12509125840E+03 0.  0.
         24    2    1    2    0    0  0.62193374044E+02 -0.21790130736E+02  0.46922209326E+03  0.48067871240E+03  0.80869191732E+02 0.  0.
        -11    1    5    5    0    0 -0.82337466938E+01 -0.21947052087E+01  0.34309127076E+01  0.91859935542E+01  0.00000000000E+00 0.  1.
         12    1    5    5    0    0  0.70427120738E+02 -0.19595425528E+02  0.46579118056E+03  0.47149271884E+03  0.00000000000E+00 0. -1.
         11    1    3    3    0    0  0.52150336144E+01 -0.60944114015E+02 -0.19256817435E+03  0.20204921029E+03  0.00000000000E+00 0. -1.
        -12    1    3    3    0    0 -0.63311410953E+02 -0.71161028502E+02 -0.57180699795E+03  0.57968566451E+03  0.00000000000E+00 0.  1.
          5    1    4    4  501    0  0.17506960762E+02  0.17029315565E+01  0.10482357065E+03  0.10637126969E+03  0.41800000000E+01 0.  1.
         -5    1    4    4    0  501 -0.21603957467E+02  0.15219234170E+03  0.13293228707E+03  0.20326757045E+03  0.41800000000E+01 0.  1.
</event>
<event>
11    1  0.7882745E-009  0.1307209E+03  0.7561462E-02  0.1118386E+00
         22   -1    0    0    0    0  0.00000000000E+00  0.00000000000E+00  0.45439544948E+03  0.45439544948E+03  0.00000000000E+00 0. -1.
         22   -1    0    0    0    0 -0.00000000000E+00 -0.00000000000E+00 -0.16801771497E+04  0.16801771497E+04  0.00000000000E+00 0. -1.
        -24    2    1    2    0    0 -0.38915943429E+02  0.17512657288E+01 -0.16022336773E+04  0.16049958405E+04  0.85681818099E+02 0.  0.
         25    2    1    2    0    0 -0.24292357022E+01  0.30112862302E+02 -0.13323287254E+02  0.12936993216E+03  0.12508550557E+03 0.  0.
         24    2    1    2    0    0  0.41345179131E+02 -0.31864128030E+02  0.38977526434E+03  0.40020682644E+03  0.74269783529E+02 0.  0.
        -11    1    5    5    0    0  0.23326773331E+02 -0.30621032124E+02  0.69707733685E+02  0.79630107986E+02  0.00000000000E+00 0.  1.
         12    1    5    5    0    0  0.18018405800E+02 -0.12430959060E+01  0.32006753066E+03  0.32057671845E+03  0.00000000000E+00 0. -1.
         11    1    3    3    0    0 -0.51766320989E+02  0.31006031748E+02 -0.88802714955E+03  0.89007490940E+03  0.00000000000E+00 0. -1.
        -12    1    3    3    0    0  0.12850377560E+02 -0.29254766019E+02 -0.71420652772E+03  0.71492093114E+03  0.00000000000E+00 0.  1.
          5    1    4    4  501    0 -0.30280717877E+02 -0.31462655746E+02 -0.37257644618E+02  0.57553671161E+02  0.41800000000E+01 0.  1.
         -5    1    4    4    0  501  0.27851482174E+02  0.61575518047E+02  0.23934357364E+02  0.71816261003E+02  0.41800000000E+01 0.  1.
</event>
<event>
11    1  0.7882745E-009  0.1500493E+03  0.7561462E-02  0.1096828E+00
         22   -1    0    0    0    0  0.00000000000E+00  0.00000000000E+00  0.11383075693E+04  0.11383075693E+04  0.00000000000E+00 0. -1.
         22   -1    0    0    0    0 -0.00000000000E+00 -0.00000000000E+00 -0.32813177057E+03  0.32813177057E+03  0.00000000000E+00 0. -1.
        -24    2    1    2    0    0 -0.76788553138E+02 -0.32580991882E+02 -0.29933957170E+03  0.32086903962E+03  0.79967233789E+02 0.  0.
         25    2    1    2    0    0  0.82172876344E+02 -0.42409826365E+02  0.44728764338E+03  0.47356497849E+03  0.12508628204E+03 0.  0.
         24    2    1    2    0    0 -0.53843232063E+01  0.74990818247E+02  0.66222772702E+03  0.67200532173E+03  0.85982418195E+02 0.  0.
        -11    1    5    5    0    0 -0.17639656586E+02  0.38844623830E+02  0.10312282640E+03  0.11159919180E+03  0.00000000000E+00 0.  1.
         12    1    5    5    0    0  0.12255333380E+02  0.36146194417E+02  0.55910490062E+03  0.56040612993E+03  0.00000000000E+00 0. -1.
         13    1    3    3    0    0 -0.72994049511E+02 -0.54470670395E+02 -0.21176105539E+03  0.23051665835E+03  0.00000000000E+00 0. -1.
        -14    1    3    3    0    0 -0.37945036275E+01  0.21889678512E+02 -0.87578516304E+02  0.90352381270E+02  0.00000000000E+00 0.  1.
          5    1    4    4  501    0  0.61483063534E+02  0.37848503260E+02  0.19499015071E+03  0.20796948713E+03  0.41800000000E+01 0.  1.
         -5    1    4    4    0  501  0.20689812810E+02 -0.80258329625E+02  0.25229749266E+03  0.26559549136E+03  0.41800000000E+01 0.  1.
</event>
<event>
11    1  0.7882745E-009  0.1578191E+03  0.7561462E-02  0.1089147E+00
         22   -1    0    0    0    0  0.00000000000E+00  0.00000000000E+00  0.52684344179E+03  0.52684344179E+03  0.00000000000E+00 0.  1.
         22   -1    0    0    0    0 -0.00000000000E+00 -0.00000000000E+00 -0.63319822910E+03  0.63319822910E+03  0.00000000000E+00 0. -1.
        -24    2    1    2    0    0 -0.97468301077E+02 -0.13817130256E+02 -0.58972529486E+03  0.60316824185E+03  0.79655644936E+02 0.  0.
         25    2    1    2    0    0  0.45060456000E+02  0.19624488008E+02  0.11839573482E+03  0.17910485931E+03  0.12508171481E+03 0.  0.
         24    2    1    2    0    0  0.52407845076E+02 -0.58073577520E+01  0.36497477272E+03  0.37776856974E+03  0.81989023217E+02 0.  0.
        -13    1    5    5    0    0  0.37130424353E+02 -0.42255958953E+02  0.24794382240E+03  0.25424471193E+03  0.00000000000E+00 0.  1.
         14    1    5    5    0    0  0.15277420723E+02  0.36448601201E+02  0.11703095033E+03  0.12352385781E+03  0.00000000000E+00 0. -1.
         13    1    3    3    0    0 -0.40874426808E+02  0.32306982183E+02 -0.20075676193E+03  0.20740717761E+03  0.00000000000E+00 0. -1.
        -14    1    3    3    0    0 -0.56593874269E+02 -0.46124112439E+02 -0.38896853293E+03  0.39576106424E+03  0.00000000000E+00 0.  1.
          5    1    4    4  501    0  0.54925275041E+02  0.96728587441E+01  0.14128044777E+03  0.15194731770E+03  0.41800000000E+01 0.  1.
         -5    1    4    4    0  501 -0.98648190410E+01  0.99516292640E+01 -0.22884712946E+02  0.27157541611E+02  0.41800000000E+01 0.  1.
</event>
<event>
11    1  0.7882745E-009  0.1376737E+03  0.7561462E-02  0.1110184E+00
         22   -1    0    0    0    0  0.00000000000E+00  0.00000000000E+00  0.75898055603E+03  0.75898055603E+03  0.00000000000E+00 0.  1.
         22   -1    0    0    0    0 -0.00000000000E+00 -0.00000000000E+00 -0.39211151934E+03  0.39211151934E+03  0.00000000000E+00 0.  1.
         24    2    1    2    0    0 -0.18041420655E+02 -0.12183711159E+02 -0.24315645156E+03  0.25964106381E+03  0.88399583746E+02 0.  0.
         25    2    1    2    0    0  0.52778761343E+02  0.57384278897E+02 -0.97775049312E+02  0.17687806384E+03  0.12508931244E+03 0.  0.
        -24    2    1    2    0    0 -0.34737340688E+02 -0.45200567739E+02  0.70780053756E+03  0.71457294772E+03  0.79894445815E+02 0.  0.
        -11    1    3    3    0    0 -0.24621363867E+02 -0.41340873841E+02 -0.20801162471E+03  0.21350436863E+03  0.00000000000E+00 0.  1.
         12    1    3    3    0    0  0.65799432119E+01  0.29157162682E+02 -0.35144826845E+02  0.46136695182E+02  0.00000000000E+00 0. -1.
         11    1    5    5    0    0  0.70468103188E+01 -0.96057168438E+01  0.13098817038E+02  0.17706110232E+02  0.00000000000E+00 0. -1.
        -12    1    5    5    0    0 -0.41784151007E+02 -0.35594850895E+02  0.69470172052E+03  0.69686683748E+03  0.00000000000E+00 0.  1.
          5    1    4    4  501    0  0.32607150437E+02 -0.14274920025E+02 -0.95806605734E+02  0.10229065306E+03  0.41800000000E+01 0. -1.
         -5    1    4    4    0  501  0.20171610906E+02  0.71659198922E+02 -0.19684435786E+01  0.74587410780E+02  0.41800000000E+01 0. -1.
</event>
<event>
11    1  0.7882745E-009  0.1427399E+03  0.7561462E-02  0.1104537E+00
         22   -1    0    0    0    0  0.00000000000E+00  0.00000000000E+00  0.19366493576E+03  0.19366493576E+03  0.00000000000E+00 0.  1.
         22   -1    0    0    0    0 -0.00000000000E+00 -0.00000000000E+00 -0.26799367199E+04  0.26799367199E+04  0.00000000000E+00 0.  1.
        -24    2    1    2    0    0 -0.17923961881E+02 -0.13840520166E+00 -0.25673809289E+04  0.25687270148E+04  0.81193319728E+02 0.  0.
         25    2    1    2    0    0 -0.41178510666E+02 -0.40101889492E+02 -0.39142471194E+02  0.14311626278E+03  0.12508517234E+03 0.  0.
         24    2    1    2    0    0  0.59102472547E+02  0.40240294693E+02  0.12025161590E+03  0.16175837808E+03  0.81196909871E+02 0.  0.
        -13    1    5    5    0    0  0.69968034848E+02  0.21307381155E+02  0.11926613942E+03  0.13990690620E+03  0.00000000000E+00 0.  1.
         14    1    5    5    0    0 -0.10865562301E+02  0.18932913538E+02  0.98547648699E+00  0.21851471874E+02  0.00000000000E+00 0. -1.
         11    1    3    3    0    0  0.98094168474E+01  0.31383758551E+02 -0.60170744979E+03  0.60260519421E+03  0.00000000000E+00 0. -1.
        -12    1    3    3    0    0 -0.27733378729E+02 -0.31522163753E+02 -0.19656734791E+04  0.19661218206E+04  0.00000000000E+00 0.  1.
          5    1    4    4  501    0 -0.25927005952E+02 -0.39111803500E+02 -0.83577517172E+02  0.95940693073E+02  0.41800000000E+01 0.  1.
         -5    1    4    4    0  501 -0.15251504714E+02 -0.99008599148E+00  0.44435045978E+02  0.47175569709E+02  0.41800000000E+01 0.  1.
</event>
<event>
11    1  0.7882745E-009  0.1293438E+03  0.7561462E-02  0.1120078E+00
         22   -1    0    0    0    0  0.00000000000E+00  0.00000000000E+00  0.61412762176E+03  0.61412762176E+03  0.00000000000E+00 0.  1.
         22   -1    0    0    0    0 -0.00000000000E+00 -0.00000000000E+00 -0.47721922316E+03  0.47721922316E+03  0.00000000000E+00 0.  1.
         24    2    1    2    0    0 -0.49067352667E+02  0.15285847838E+02 -0.13844437851E+03  0.16829544808E+03  0.80717096458E+02 0.  0.
         25    2    1    2    0    0  0.19195575502E+02  0.13670070017E+02 -0.30767165922E+03  0.33296346781E+03  0.12508988800E+03 0.  0.
        -24    2    1    2    0    0  0.29871777165E+02 -0.28955917855E+02  0.58302443633E+03  0.59008792903E+03  0.80966057010E+02 0.  0.
        -13    1    3    3    0    0 -0.51874474591E+01  0.28574294512E+02 -0.11127412307E+03  0.11500143644E+03  0.00000000000E+00 0.  1.
         14    1    3    3    0    0 -0.43879905208E+02 -0.13288446674E+02 -0.27170255446E+02  0.53294011644E+02  0.00000000000E+00 0. -1.
         13    1    5    5    0    0  0.71324751074E+01 -0.37496681606E+02  0.10988428539E+03  0.11632467283E+03  0.00000000000E+00 0. -1.
        -14    1    5    5    0    0  0.22739302058E+02  0.85407637509E+01  0.47314015093E+03  0.47376325621E+03  0.00000000000E+00 0.  1.
          5    1    4    4  501    0 -0.77332613289E+01  0.59249884714E+02 -0.84601805367E+02  0.10365949084E+03  0.41800000000E+01 0. -1.
         -5    1    4    4    0  501  0.26928836831E+02 -0.45579814697E+02 -0.22306985385E+03  0.22930397698E+03  0.41800000000E+01 0. -1.
</event>
<event>
11    1  0.7882745E-009  0.1335193E+03  0.7561462E-02  0.1115019E+00
         22   -1    0    0    0    0  0.00000000000E+00  0.00000000000E+00  0.23283963429E+04  0.23283963429E+04  0.00000000000E+00 0.  1.
         22   -1    0    0    0    0 -0.00000000000E+00 -0.00000000000E+00 -0.12435249748E+03  0.12435249748E+03  0.00000000000E+00 0. -1.
        -24    2    1    2    0    0 -0.34828730159E+02  0.30190567012E+02 -0.92525447317E+02  0.13267282229E+03  0.83166150513E+02 0.  0.
         25    2    1    2    0    0  0.32186544092E+02 -0.53773054610E+02  0.44867936964E+03  0.46999008747E+03  0.12509992229E+03 0.  0.
         24    2    1    2    0    0  0.26421860665E+01  0.23582487599E+02  0.18478899231E+04  0.18500859306E+04  0.86934849005E+02 0.  0.
        -11    1    5    5    0    0 -0.24669635766E+02  0.45591774437E+02  0.84960790259E+03  0.85118786937E+03  0.00000000000E+00 0.  1.
         12    1    5    5    0    0  0.27311821833E+02 -0.22009286839E+02  0.99828202051E+03  0.99889806126E+03  0.00000000000E+00 0. -1.
         11    1    3    3    0    0  0.28428902524E+00  0.17157456314E+02 -0.93643104257E+02  0.95202363953E+02  0.00000000000E+00 0. -1.
        -12    1    3    3    0    0 -0.35113019184E+02  0.13033110697E+02  0.11176569394E+01  0.37470458333E+02  0.00000000000E+00 0.  1.
          5    1    4    4  501    0 -0.17192389964E+02  0.32495334961E+02  0.17288218056E+03  0.17679718839E+03  0.41800000000E+01 0.  1.
         -5    1    4    4    0  501  0.49378934057E+02 -0.86268389571E+02  0.27579718908E+03  0.29319289909E+03  0.41800000000E+01 0.  1.
</event>
<event>
11    1  0.7882745E-009  0.2360011E+03  0.7561462E-02  0.1031633E+00
         22   -1    0    0    0    0  0.00000000000E+00  0.00000000000E+00  0.16586585889E+03  0.16586585889E+03  0.00000000000E+00 0.  1.
         22   -1    0    0    0    0 -0.00000000000E+00 -0.00000000000E+00 -0.69290444667E+03  0.69290444667E+03  0.00000000000E+00 0. -1.
         24    2    1    2    0    0  0.14593893818E+03 -0.23421412015E+03 -0.15032038193E+03  0.32560398075E+03  0.85248503233E+02 0.  0.
         25    2    1    2    0    0 -0.99810527984E+02  0.14134482894E+03 -0.33124477324E+03  0.39409554528E+03  0.12509075445E+03 0.  0.
        -24    2    1    2    0    0 -0.46128410192E+02  0.92869291207E+02 -0.45473432605E+02  0.13907077952E+03  0.80748456134E+02 0.  0.
        -13    1    3    3    0    0  0.10032849543E+03 -0.15172993715E+03 -0.14241357532E+03  0.23101819681E+03  0.00000000000E+00 0.  1.
         14    1    3    3    0    0  0.45610442748E+02 -0.82484182997E+02 -0.79068066101E+01  0.94585783938E+02  0.00000000000E+00 0. -1.
         13    1    5    5    0    0  0.92544519647E+01  0.71448047142E+02 -0.24856307482E+02  0.76212232242E+02  0.00000000000E+00 0. -1.
        -14    1    5    5    0    0 -0.55382862157E+02  0.21421244064E+02 -0.20617125123E+02  0.62858547281E+02  0.00000000000E+00 0.  1.
          5    1    4    4  501    0 -0.22733780107E+02  0.17563622617E+02 -0.18596110376E+03  0.18821346952E+03  0.41800000000E+01 0. -1.
         -5    1    4    4    0  501 -0.77076747877E+02  0.12378120633E+03 -0.14528366948E+03  0.20588207576E+03  0.41800000000E+01 0. -1.
</event>
<event>
11    1  0.7882745E-009  0.1578432E+03  0.7561462E-02  0.1089124E+00
         22   -1    0    0    0    0  0.00000000000E+00  0.00000000000E+00  0.90514779492E+03  0.90514779492E+03  0.00000000000E+00 0.  1.
         22   -1    0    0    0    0 -0.00000000000E+00 -0.00000000000E+00 -0.18913265857E+04  0.18913265857E+04  0.00000000000E+00 0. -1.
         24    2    1    2    0    0 -0.17407809775E+02  0.22609386570E+02 -0.18397183103E+04  0.18416399721E+04  0.79120851848E+02 0.  0.
         25    2    1    2    0    0 -0.65380806277E+02 -0.72305751033E+02  0.92703019064E+02  0.18369429127E+03  0.12508785489E+03 0.  0.
        -24    2    1    2    0    0  0.82788616052E+02  0.49696364463E+02  0.76083650045E+03  0.77114011730E+03  0.80381692589E+02 0.  0.
        -11    1    3    3    0    0  0.18762027425E+02  0.38017339594E+02 -0.11707991319E+04  0.11715664467E+04  0.00000000000E+00 0.  1.
         12    1    3    3    0    0 -0.36169837200E+02 -0.15407953025E+02 -0.66891917846E+03  0.67007352540E+03  0.00000000000E+00 0. -1.
         13    1    5    5    0    0  0.57313274151E+02  0.62817490911E+02  0.38823795852E+03  0.39744126735E+03  0.00000000000E+00 0. -1.
        -14    1    5    5    0    0  0.25475341901E+02 -0.13121126448E+02  0.37259854193E+03  0.37369884995E+03  0.00000000000E+00 0.  1.
          5    1    4    4  501    0 -0.84511018197E+02 -0.90452930836E+02  0.50507610279E+02  0.13376223678E+03  0.41800000000E+01 0. -1.
         -5    1    4    4    0  501  0.19130211920E+02  0.18147179803E+02  0.42195408786E+02  0.49932054489E+02  0.41800000000E+01 0. -1.
</event>
<event>
11    1  0.8349705E-009  0.1591950E+03  0.7561462E-02  0.1087837E+00
         22   -1    0    0    0    0  0.00000000000E+00  0.00000000000E+00  0.77762351331E+03  0.77762351331E+03  0.00000000000E+00 0.  1.
         22   -1    0    0    0    0 -0.00000000000E+00 -0.00000000000E+00 -0.57642240811E+03  0.57642240811E+03  0.00000000000E+00 0.  1.
        -24    2    1    2    0    0 -0.90257466807E+02 -0.49665405781E+02 -0.51841226503E+03  0.53465052702E+03  0.80540962623E+02 0.  0.
         25    2    1    2    0    0  0.53331940582E+02 -0.13986108945E+02  0.58156724434E+02  0.14855748712E+03  0.12508882945E+03 0.  0.
         24    2    1    2    0    0  0.36925526225E+02  0.63651514726E+02  0.66145664580E+03  0.67083790729E+03  0.84164088358E+02 0.  0.
        -11    1    5    5    0    0  0.37052461033E+02  0.59559128483E+02  0.66282100594E+03  0.66652221311E+03  0.00000000000E+00 0.  1.
         12    1    5    5    0    0 -0.12693480844E+00  0.40923862429E+01 -0.13643601441E+01  0.43156941746E+01  0.00000000000E+00 0. -1.
         11    1    3    3    0    0 -0.14141748879E+02 -0.51863732347E+02 -0.18492578200E+03  0.19258084183E+03  0.00000000000E+00 0. -1.
        -12    1    3    3    0    0 -0.76115717929E+02  0.21983265662E+01 -0.33348648304E+03  0.34206968519E+03  0.00000000000E+00 0.  1.
          5    1    4    4  501    0 -0.19266545087E+02 -0.50875517561E+02  0.16557550957E+02  0.57018794624E+02  0.41800000000E+01 0. -1.
         -5    1    4    4    0  501  0.72598485669E+02  0.36889408616E+02  0.41599173476E+02  0.91538692493E+02  0.41800000000E+01 0. -1.
</event>
<event>
11    1  0.9857233E-009  0.1856451E+03  0.7561462E-02  0.1065166E+00
         22   -1    0    0    0    0  0.00000000000E+00  0.00000000000E+00  0.55757869514E+03  0.55757869514E+03  0.00000000000E+00 0. -1.
         22   -1    0    0    0    0 -0.00000000000E+00 -0.00000000000E+00 -0.10235604361E+04  0.10235604361E+04  0.00000000000E+00 0. -1.
         24    2    1    2    0    0 -0.84382907077E+02 -0.10791213938E+03 -0.78440674891E+03  0.80006527071E+03  0.77749500468E+02 0.  0.
         25    2    1    2    0    0 -0.24379717685E+02  0.18503912282E+03 -0.16185259333E+03  0.27690861106E+03  0.12509304258E+03 0.  0.
        -24    2    1    2    0    0  0.10876262476E+03 -0.77126983431E+02  0.48027760124E+03  0.50416524952E+03  0.75750540931E+02 0.  0.
        -13    1    3    3    0    0 -0.35342570447E+02  0.36994899746E+01 -0.18702078509E+03  0.19036690250E+03  0.00000000000E+00 0.  1.
         14    1    3    3    0    0 -0.49040336629E+02 -0.11161162936E+03 -0.59738596381E+03  0.60969836820E+03  0.00000000000E+00 0. -1.
         13    1    5    5    0    0  0.76316430629E+02 -0.90082605229E+02  0.38428652543E+03  0.40201393878E+03  0.00000000000E+00 0. -1.
        -14    1    5    5    0    0  0.32446194132E+02  0.12955621798E+02  0.95991075809E+02  0.10215131074E+03  0.00000000000E+00 0.  1.
          5    1    4    4  501    0  0.32686302369E+02  0.10281945100E+03 -0.13563824473E+03  0.17336504752E+03  0.41800000000E+01 0. -1.
         -5    1    4    4    0  501 -0.57066020054E+02  0.82219671812E+02 -0.26214348601E+02  0.10354356354E+03  0.41800000000E+01 0. -1.
</event>
<event>
11    1  0.7882745E-009  0.1386735E+03  0.7561462E-02  0.1109049E+00
         22   -1    0    0    0    0  0.00000000000E+00  0.00000000000E+00  0.57991074486E+03  0.57991074486E+03  0.00000000000E+00 0.  1.
         22   -1    0    0    0    0 -0.00000000000E+00 -0.00000000000E+00 -0.35053092342E+03  0.35053092342E+03  0.00000000000E+00 0. -1.
         24    2    1    2    0    0  0.14561409773E+01  0.64544798473E+01 -0.31291966670E+03  0.32288942928E+03  0.79341572163E+02 0.  0.
         25    2    1    2    0    0  0.24474724292E+02 -0.59151848207E+02  0.16760818676E+03  0.21871956007E+03  0.12509112044E+03 0.  0.
        -24    2    1    2    0    0 -0.25930865269E+02  0.52697368360E+02  0.37469130139E+03  0.38883267893E+03  0.85719650368E+02 0.  0.
        -11    1    3    3    0    0 -0.63985414200E+01 -0.11657825056E+02 -0.48002578847E+01  0.14138199783E+02  0.00000000000E+00 0.  1.
         12    1    3    3    0    0  0.78546823972E+01  0.18112304903E+02 -0.30811940882E+03  0.30875122950E+03  0.00000000000E+00 0. -1.
         13    1    5    5    0    0 -0.49454700441E+01  0.48325776615E+02  0.81648595658E+02  0.95007007806E+02  0.00000000000E+00 0. -1.
        -14    1    5    5    0    0 -0.20985395225E+02  0.43715917444E+01  0.29304270573E+03  0.29382567112E+03  0.00000000000E+00 0.  1.
          5    1    4    4  501    0  0.61562011096E+02  0.61873219900E+01  0.99406895027E+02  0.11716384827E+03  0.41800000000E+01 0. -1.
         -5    1    4    4    0  501 -0.37087286804E+02 -0.65339170197E+02  0.68201291729E+02  0.10155571179E+03  0.41800000000E+01 0. -1.
</event>
<event>
11    1  0.7882745E-009  0.1551421E+03  0.7561462E-02  0.1091737E+00
         22   -1    0    0    0    0  0.00000000000E+00  0.00000000000E+00  0.36944337417E+03  0.36944337417E+03  0.00000000000E+00 0.  1.
         22   -1    0    0    0    0 -0.00000000000E+00 -0.00000000000E+00 -0.99574406774E+03  0.99574406774E+03  0.00000000000E+00 0. -1.
        -24    2    1    2    0    0  0.44310932080E+02  0.77131466181E+02 -0.48029808176E+03  0.49481853020E+03  0.79034224875E+02 0.  0.
         25    2    1    2    0    0 -0.88419133417E+02 -0.55548907152E+02 -0.48864045967E+03  0.51509343020E+03  0.12509244090E+03 0.  0.
         24    2    1    2    0    0  0.44108201337E+02 -0.21582559029E+02  0.34263784787E+03  0.35527548152E+03  0.80053936180E+02 0.  0.
        -11    1    5    5    0    0  0.58600258046E+02  0.94347098953E+01  0.20277723427E+03  0.21128561412E+03  0.00000000000E+00 0.  1.
         12    1    5    5    0    0 -0.14492056709E+02 -0.31017268924E+02  0.13986061359E+03  0.14398986740E+03  0.00000000000E+00 0. -1.
         13    1    3    3    0    0  0.41501701223E+02  0.86791914877E+02 -0.47220890084E+03  0.48190919656E+03  0.00000000000E+00 0. -1.
        -14    1    3    3    0    0  0.28092308564E+01 -0.96604486956E+01 -0.80891809245E+01  0.12909333640E+02  0.00000000000E+00 0.  1.
          5    1    4    4  501    0 -0.99929601093E+02 -0.41032787036E+02 -0.21361218008E+03  0.23941021421E+03  0.41800000000E+01 0.  1.
         -5    1    4    4    0  501  0.11510467676E+02 -0.14516120117E+02 -0.27502827958E+03  0.27568321599E+03  0.41800000000E+01 0.  1.
</event>
<event>
11    1  0.7882745E-009  0.1399998E+03  0.7561462E-02  0.1107559E+00
         22   -1    0    0    0    0  0.00000000000E+00  0.00000000000E+00  0.17921821884E+04  0.17921821884E+04  0.00000000000E+00 0. -1.
         22   -1    0    0    0    0 -0.00000000000E+00 -0.00000000000E+00 -0.14173950004E+03  0.14173950004E+03  0.00000000000E+00 0. -1.
         24    2    1    2    0    0  0.33765601889E+02 -0.54459901691E+02 -0.10866083631E+03  0.15005213296E+03  0.81255575169E+02 0.  0.
         25    2    1    2    0    0 -0.35203418099E+02  0.24852858143E+02  0.38512971794E+03  0.40722094089E+03  0.12508816831E+03 0.  0.
        -24    2    1    2    0    0  0.14378162096E+01  0.29607043548E+02  0.13739738067E+04  0.13766486146E+04  0.80490634022E+02 0.  0.
        -13    1    3    3    0    0  0.42287833523E+02 -0.41684575725E+02 -0.24059245288E+02  0.64068026357E+02  0.00000000000E+00 0.  1.
         14    1    3    3    0    0 -0.85222316334E+01 -0.12775325966E+02 -0.84601591019E+02  0.85984106604E+02  0.00000000000E+00 0. -1.
         11    1    5    5    0    0  0.36482629140E+01 -0.28393902236E+01  0.11769261527E+04  0.11769352323E+04  0.00000000000E+00 0. -1.
        -12    1    5    5    0    0 -0.22104467044E+01  0.32446433772E+02  0.19704765396E+03  0.19971338230E+03  0.00000000000E+00 0.  1.
          5    1    4    4  501    0  0.56750936814E+01 -0.27182030100E+02  0.28947449169E+03  0.29083332544E+03  0.41800000000E+01 0. -1.
         -5    1    4    4    0  501 -0.40878511781E+02  0.52034888243E+02  0.95655226253E+02  0.11638761545E+03  0.41800000000E+01 0. -1.
</event>
<event>
11    1  0.7882745E-009  0.1605787E+03  0.7561462E-02  0.1086534E+00
         22   -1    0    0    0    0  0.00000000000E+00  0.00000000000E+00  0.22970351449E+03  0.22970351449E+03  0.00000000000E+00 0. -1.
         22   -1    0    0    0    0 -0.00000000000E+00 -0.00000000000E+00 -0.73182948835E+03  0.73182948835E+03  0.00000000000E+00 0. -1.
        -24    2    1    2    0    0 -0.18826989194E+02  0.26022449570E+02 -0.62327622422E+03  0.63008889422E+03  0.86643750705E+02 0.  0.
         25    2    1    2    0    0  0.11298666637E+03 -0.87570533740E+01  0.29710329500E+02  0.17138628261E+03  0.12509149223E+03 0.  0.
         24    2    1    2    0    0 -0.94159677173E+02 -0.17265396196E+02  0.91439920854E+02  0.16005782601E+03  0.89961713129E+02 0.  0.
        -13    1    5    5    0    0 -0.81863679742E+02 -0.27738672586E+01  0.17558936176E+02  0.83771550303E+02  0.00000000000E+00 0.  1.
         14    1    5    5    0    0 -0.12295997430E+02 -0.14491528938E+02  0.73880984678E+02  0.76286275703E+02  0.00000000000E+00 0. -1.
         13    1    3    3    0    0 -0.43370592199E+02  0.27962804185E+02 -0.55703699579E+03  0.55942214951E+03  0.00000000000E+00 0. -1.
        -14    1    3    3    0    0  0.24543603005E+02 -0.19403546146E+01 -0.66239228434E+02  0.70666744711E+02  0.00000000000E+00 0.  1.
          5    1    4    4  501    0 -0.12455059756E+02 -0.32143176282E+02 -0.12518740865E+02  0.36912105980E+02  0.41800000000E+01 0. -1.
         -5    1    4    4    0  501  0.12544172612E+03  0.23386122908E+02  0.42229070365E+02  0.13447417663E+03  0.41800000000E+01 0. -1.
</event>
<event>
11    1  0.7882745E-009  0.1501809E+03  0.7561462E-02  0.1096694E+00
         22   -1    0    0    0    0  0.00000000000E+00  0.00000000000E+00  0.86758695918E+03  0.86758695918E+03  0.00000000000E+00 0. -1.
         22   -1    0    0    0    0 -0.00000000000E+00 -0.00000000000E+00 -0.15828225949E+03  0.15828225949E+03  0.00000000000E+00 0. -1.
         24    2    1    2    0    0 -0.40122797805E+02 -0.76265335812E+02 -0.10057626720E+03  0.15534794883E+03  0.81185955268E+02 0.  0.
         25    2    1    2    0    0 -0.26007297442E+02  0.77759072776E+02  0.18934447642E+03  0.24128740742E+03  0.12508169055E+03 0.  0.
        -24    2    1    2    0    0  0.66130095247E+02 -0.14937369635E+01  0.62053649048E+03  0.62923386242E+03  0.80587200300E+02 0.  0.
        -13    1    3    3    0    0 -0.20889636862E+02  0.11362837301E+02 -0.41811927223E+02  0.48101229276E+02  0.00000000000E+00 0.  1.
         14    1    3    3    0    0 -0.19233160942E+02 -0.87628173113E+02 -0.58764339979E+02  0.10724671956E+03  0.00000000000E+00 0. -1.
         11    1    5    5    0    0  0.64123065218E+02 -0.31531583971E+02  0.36488222594E+03  0.37181318843E+03  0.00000000000E+00 0. -1.
        -12    1    5    5    0    0  0.20070300290E+01  0.30037847007E+02  0.25565426454E+03  0.25742067399E+03  0.00000000000E+00 0.  1.
          5    1    4    4  501    0 -0.34843776295E+02 -0.14548951771E+01 -0.73414342680E+00  0.35131422303E+02  0.41800000000E+01 0. -1.
         -5    1    4    4    0  501  0.88364788525E+01  0.79213967953E+02  0.19007861985E+03  0.20615598512E+03  0.41800000000E+01 0. -1.
</event>
<event>
11    1  0.7882745E-009  0.1396546E+03  0.7561462E-02  0.1107945E+00
         22   -1    0    0    0    0  0.00000000000E+00  0.00000000000E+00  0.10926723064E+04  0.10926723064E+04  0.00000000000E+00 0.  1.
         22   -1    0    0    0    0 -0.00000000000E+00 -0.00000000000E+00 -0.19614829518E+03  0.19614829518E+03  0.00000000000E+00 0.  1.
        -24    2    1    2    0    0  0.24949959101E+02  0.88412122427E+01 -0.11976922649E+03  0.14673834054E+03  0.80540706958E+02 0.  0.
         25    2    1    2    0    0  0.28894911307E+02  0.24145373966E+02  0.10359112131E+02  0.13104489734E+03  0.12509012324E+03 0.  0.
         24    2    1    2    0    0 -0.53844870408E+02 -0.32986586209E+02  0.10059341256E+04  0.10110373637E+04  0.79408443319E+02 0.  0.
        -13    1    5    5    0    0 -0.30524634781E+02  0.20904161668E+02  0.56507736378E+03  0.56628717482E+03  0.00000000000E+00 0.  1.
         14    1    5    5    0    0 -0.23320235626E+02 -0.53890747877E+02  0.44085676184E+03  0.44475018893E+03  0.00000000000E+00 0. -1.
         13    1    3    3    0    0  0.53785226976E+02  0.14219473242E+01 -0.64819095243E+02  0.84240059848E+02  0.00000000000E+00 0. -1.
        -14    1    3    3    0    0 -0.28835267875E+02  0.74192649185E+01 -0.54950131245E+02  0.62498280690E+02  0.00000000000E+00 0.  1.
          5    1    4    4  501    0 -0.66276257505E+01 -0.48779839983E+02  0.44851250460E+01  0.49608335575E+02  0.41800000000E+01 0. -1.
         -5    1    4    4    0  501  0.35522537057E+02  0.72925213949E+02  0.58739870846E+01  0.81436561769E+02  0.41800000000E+01 0. -1.
</event>
<event>
11    1  0.7882745E-009  0.1800419E+03  0.7561462E-02  0.1069609E+00
         22   -1    0    0    0    0  0.00000000000E+00  0.00000000000E+00  0.15995169118E+04  0.15995169118E+04  0.00000000000E+00 0.  1.
         22   -1    0    0    0    0 -0.00000000000E+00 -0.00000000000E+00 -0.12112438942E+04  0.12112438942E+04  0.00000000000E+00 0. -1.
        -24    2    1    2    0    0 -0.27413340840E+02  0.12550175579E+03 -0.11455309863E+04  0.11554468562E+04  0.79460776294E+02 0.  0.
         25    2    1    2    0    0  0.11969390253E+03 -0.15588885498E+03  0.17685296330E+03  0.29249153823E+03  0.12508542640E+03 0.  0.
         24    2    1    2    0    0 -0.92280561691E+02  0.30387099190E+02  0.13569510407E+04  0.13628224116E+04  0.80806688545E+02 0.  0.
        -13    1    5    5    0    0 -0.86125382320E+02  0.53313557956E+02  0.11685381824E+04  0.11729200316E+04  0.00000000000E+00 0.  1.
         14    1    5    5    0    0 -0.61551793708E+01 -0.22926458766E+02  0.18841285831E+03  0.18990237998E+03  0.00000000000E+00 0. -1.
         11    1    3    3    0    0  0.36694419389E+01  0.11209488756E+03 -0.98637803263E+03  0.99273377694E+03  0.00000000000E+00 0. -1.
        -12    1    3    3    0    0 -0.31082782779E+02  0.13406868225E+02 -0.15915295369E+03  0.16271307928E+03  0.00000000000E+00 0.  1.
          5    1    4    4  501    0  0.11589849846E+03 -0.70615202594E+02  0.61830808692E+02  0.14919614635E+03  0.41800000000E+01 0.  1.
         -5    1    4    4    0  501  0.37954040745E+01 -0.85273652382E+02  0.11502215461E+03  0.14329539188E+03  0.41800000000E+01 0.  1.
</event>
<event>
11    1  0.7882745E-009  0.2400422E+03  0.7561462E-02  0.1029342E+00
         22   -1    0    0    0    0  0.00000000000E+00  0.00000000000E+00  0.57899202228E+03  0.57899202228E+03  0.00000000000E+00 0. -1.
         22   -1    0    0    0    0 -0.00000000000E+00 -0.00000000000E+00 -0.21215054333E+04  0.21215054333E+04  0.00000000000E+00 0.  1.
        -24    2    1    2    0    0 -0.12163409396E+02  0.59123607100E+01 -0.19589843314E+04  0.19607452072E+04  0.81971047019E+02 0.  0.
         25    2    1    2    0    0  0.10302023512E+03 -0.18763314695E+03 -0.23067491431E+02  0.24899628625E+03  0.12509066603E+03 0.  0.
         24    2    1    2    0    0 -0.90856825720E+02  0.18172078624E+03  0.43953841185E+03  0.49075596205E+03  0.79812228785E+02 0.  0.
        -13    1    5    5    0    0 -0.70735550466E+01  0.30655417625E+02  0.15278490263E+03  0.15599043651E+03  0.00000000000E+00 0.  1.
         14    1    5    5    0    0 -0.83783270673E+02  0.15106536862E+03  0.28675350921E+03  0.33476552553E+03  0.00000000000E+00 0. -1.
         13    1    3    3    0    0 -0.40093162096E+00  0.43598279521E+02 -0.10259949671E+04  0.10269209528E+04  0.00000000000E+00 0. -1.
        -14    1    3    3    0    0 -0.11762477775E+02 -0.37685918811E+02 -0.93298936424E+03  0.93382425442E+03  0.00000000000E+00 0.  1.
          5    1    4    4  501    0  0.10134549782E+03 -0.17623575893E+03 -0.58431188411E+02  0.21156944211E+03  0.41800000000E+01 0.  1.
         -5    1    4    4    0  501  0.16747372994E+01 -0.11397388021E+02  0.35363696980E+02  0.37426844147E+02  0.41800000000E+01 0.  1.
</event>
<event>
11    1  0.7882745E-009  0.1733604E+03  0.7561462E-02  0.1075144E+00
         22   -1    0    0    0    0  0.00000000000E+00  0.00000000000E+00  0.58064795486E+03  0.58064795486E+03  0.00000000000E+00 0.  1.
         22   -1    0    0    0    0 -0.00000000000E+00 -0.00000000000E+00 -0.19622669020E+03  0.19622669020E+03  0.00000000000E+00 0. -1.
         24    2    1    2    0    0  0.47176907645E+01 -0.35084560987E+02 -0.13308238000E+03  0.15939742357E+03  0.80271014365E+02 0.  0.
         25    2    1    2    0    0  0.81693384960E+02  0.10915130254E+03  0.21177497093E+03  0.28121592714E+03  0.12508374543E+03 0.  0.
        -24    2    1    2    0    0 -0.86411075724E+02 -0.74066741549E+02  0.30572867373E+03  0.33626129436E+03  0.81540664275E+02 0.  0.
        -13    1    3    3    0    0 -0.82107782941E+00 -0.51983543297E+02 -0.42686459514E+02  0.67268839505E+02  0.00000000000E+00 0.  1.
         14    1    3    3    0    0  0.55387685939E+01  0.16898982309E+02 -0.90395920486E+02  0.92128584061E+02  0.00000000000E+00 0. -1.
         13    1    5    5    0    0 -0.51119241077E+02  0.69941356814E+01  0.11251626277E+03  0.12378208324E+03  0.00000000000E+00 0. -1.
        -14    1    5    5    0    0 -0.35291834647E+02 -0.81060877230E+02  0.19321241096E+03  0.21247921112E+03  0.00000000000E+00 0.  1.
          5    1    4    4  501    0  0.73504549551E+02  0.13347793384E+03  0.20280630237E+03  0.25370681171E+03  0.41800000000E+01 0.  1.
         -5    1    4    4    0  501  0.81888354088E+01 -0.24326631304E+02  0.89686685650E+01  0.27509115431E+02  0.41800000000E+01 0.  1.
</event>
<event>
11    1  0.7882745E-009  0.1569682E+03  0.7561462E-02  0.1089964E+00
         22   -1    0    0    0    0  0.00000000000E+00  0.00000000000E+00  0.64505086817E+03  0.64505086817E+03  0.00000000000E+00 0. -1.
         22   -1    0    0    0    0 -0.00000000000E+00 -0.00000000000E+00 -0.12590790371E+04  0.12590790371E+04  0.00000000000E+00 0.  1.
        -24    2    1    2    0    0 -0.86129108141E+02  0.48736517271E+02 -0.11147827718E+04  0.11223771229E+04  0.84831044441E+02 0.  0.
         25    2    1    2    0    0  0.34406435272E+02 -0.51807820006E+02 -0.10078449592E+03  0.17225889556E+03  0.12509100480E+03 0.  0.
         24    2    1    2    0    0  0.51722672869E+02  0.30713027348E+01  0.60153909883E+03  0.60949388686E+03  0.83359719956E+02 0.  0.
        -13    1    5    5    0    0  0.14378120309E+02 -0.20821881607E+02  0.48713094499E+02  0.54893047583E+02  0.00000000000E+00 0.  1.
         14    1    5    5    0    0  0.37344552560E+02  0.23893184342E+02  0.55282600433E+03  0.55460083928E+03  0.00000000000E+00 0. -1.
         11    1    3    3    0    0 -0.29187145775E+02  0.17186589799E+02 -0.10143996363E+03  0.10694547474E+03  0.00000000000E+00 0. -1.
        -12    1    3    3    0    0 -0.56941962366E+02  0.31549927472E+02 -0.10133428082E+04  0.10154316481E+04  0.00000000000E+00 0.  1.
          5    1    4    4  501    0 -0.36787611726E+02  0.56897901263E+01 -0.19660666675E+01  0.37510530606E+02  0.41800000000E+01 0. -1.
         -5    1    4    4    0  501  0.71194046998E+02 -0.57497610132E+02 -0.98818429249E+02  0.13474836496E+03  0.41800000000E+01 0. -1.
</event>
<event>
11    1  0.7882745E-009  0.1452441E+03  0.7561462E-02  0.1101840E+00
         22   -1    0    0    0    0  0.00000000000E+00  0.00000000000E+00  0.82455659805E+03  0.82455659805E+03  0.00000000000E+00 0. -1.
         22   -1    0    0    0    0 -0.00000000000E+00 -0.00000000000E+00 -0.88276645879E+03  0.88276645879E+03  0.00000000000E+00 0.  1.
         24    2    1    2    0    0  0.23705086060E+02  0.70010256250E+02 -0.86450018528E+03  0.87131445269E+03  0.79780561769E+02 0.  0.
         25    2    1    2    0    0 -0.10026641989E+02 -0.60462910657E+02  0.44401649774E+03  0.46535381779E+03  0.12508888181E+03 0.  0.
        -24    2    1    2    0    0 -0.13678444071E+02 -0.95473455928E+01  0.36227382681E+03  0.37065478636E+03  0.76579327644E+02 0.  0.
        -11    1    3    3    0    0  0.18297247525E+02  0.77300293422E+02 -0.85287052425E+03  0.85656188088E+03  0.00000000000E+00 0.  1.
         12    1    3    3    0    0  0.54078385347E+01 -0.72900371718E+01 -0.11629661025E+02  0.14752571814E+02  0.00000000000E+00 0. -1.
         13    1    5    5    0    0 -0.17234641991E+02 -0.32488659411E+00  0.36012786016E+03  0.36054016989E+03  0.00000000000E+00 0. -1.
        -14    1    5    5    0    0  0.35561979203E+01 -0.92224589987E+01  0.21459666469E+01  0.10114616477E+02  0.00000000000E+00 0.  1.
          5    1    4    4  501    0 -0.66788535646E+02 -0.39625148206E+02  0.22275236941E+03  0.23593844821E+03  0.41800000000E+01 0.  1.
         -5    1    4    4    0  501  0.56761893658E+02 -0.20837762451E+02  0.22126412832E+03  0.22941536957E+03  0.41800000000E+01 0.  1.
</event>
<event>
11    1  0.7882745E-009  0.1430234E+03  0.7561462E-02  0.1104228E+00
         22   -1    0    0    0    0  0.00000000000E+00  0.00000000000E+00  0.16470370888E+04  0.16470370888E+04  0.00000000000E+00 0.  1.
         22   -1    0    0    0    0 -0.00000000000E+00 -0.00000000000E+00 -0.85766641327E+03  0.85766641327E+03  0.00000000000E+00 0.  1.
        -24    2    1    2    0    0  0.39752877824E+02  0.71957429747E+02 -0.80652724071E+03  0.81461674530E+03  0.79725082110E+02 0.  0.
         25    2    1    2    0    0 -0.10450905654E+03 -0.49360928181E+02  0.11671294581E+03  0.20646543773E+03  0.12508965235E+03 0.  0.
         24    2    1    2    0    0  0.64756178718E+02 -0.22596501566E+02  0.14791849704E+04  0.14836213190E+04  0.91869891729E+02 0.  0.
        -13    1    5    5    0    0  0.76142480133E+02 -0.45742890856E+02  0.11329474563E+04  0.11364242289E+04  0.00000000000E+00 0.  1.
         14    1    5    5    0    0 -0.11386301415E+02  0.23146389290E+02  0.34623751416E+03  0.34719709015E+03  0.00000000000E+00 0. -1.
         11    1    3    3    0    0  0.30015310906E+01 -0.15276600542E+02 -0.55321113434E+02  0.57470073121E+02  0.00000000000E+00 0. -1.
        -12    1    3    3    0    0  0.36751346734E+02  0.87234030289E+02 -0.75120612728E+03  0.75714667218E+03  0.00000000000E+00 0.  1.
          5    1    4    4  501    0 -0.71493440374E+02 -0.63049461054E+02  0.13561583415E+03  0.16581819390E+03  0.41800000000E+01 0. -1.
         -5    1    4    4    0  501 -0.33015616168E+02  0.13688532873E+02 -0.18902888339E+02  0.40647243827E+02  0.41800000000E+01 0. -1.
</event>
<event>
11    1  0.7882745E-009  0.1925879E+03  0.7561462E-02  0.1059892E+00
         22   -1    0    0    0    0  0.00000000000E+00  0.00000000000E+00  0.17312687135E+04  0.17312687135E+04  0.00000000000E+00 0.  1.
         22   -1    0    0    0    0 -0.00000000000E+00 -0.00000000000E+00 -0.31356752508E+03  0.31356752508E+03  0.00000000000E+00 0. -1.
        -24    2    1    2    0    0  0.69240028659E+02  0.12258508963E+03 -0.23194575738E+03  0.28277918365E+03  0.79648895623E+02 0.  0.
         25    2    1    2    0    0 -0.14141073366E+03 -0.16008332453E+03  0.23025380941E+03  0.33806710988E+03  0.12509551410E+03 0.  0.
         24    2    1    2    0    0  0.72170705005E+02  0.37498234903E+02  0.14193931364E+04  0.14239899451E+04  0.80347742338E+02 0.  0.
        -13    1    5    5    0    0  0.80875320339E+02  0.26031853509E+02  0.13675054796E+04  0.13701422231E+04  0.00000000000E+00 0.  1.
         14    1    5    5    0    0 -0.87046153335E+01  0.11466381394E+02  0.51887656806E+02  0.53847721950E+02  0.00000000000E+00 0. -1.
         11    1    3    3    0    0  0.55247104062E+02  0.73572721985E+02 -0.20593876246E+03  0.22555700347E+03  0.00000000000E+00 0. -1.
        -12    1    3    3    0    0  0.13992924597E+02  0.49012367644E+02 -0.26006994913E+02  0.57222180187E+02  0.00000000000E+00 0.  1.
          5    1    4    4  501    0 -0.14405061176E+02 -0.79909092406E+02  0.14250673509E+03  0.16406892083E+03  0.41800000000E+01 0. -1.
         -5    1    4    4    0  501 -0.12700567249E+03 -0.80174232127E+02  0.87747074312E+02  0.17399818905E+03  0.41800000000E+01 0. -1.
</event>
<event>
11    1  0.7882745E-009  0.2829608E+03  0.7561462E-02  0.1007672E+00
         22   -1    0    0    0    0  0.00000000000E+00  0.00000000000E+00  0.97075869630E+03  0.97075869630E+03  0.00000000000E+00 0. -1.
         22   -1    0    0    0    0 -0.00000000000E+00 -0.00000000000E+00 -0.64546796631E+03  0.64546796631E+03  0.00000000000E+00 0.  1.
        -24    2    1    2    0    0 -0.79242904537E+02  0.16473859774E+02 -0.48632358313E+03  0.50055426549E+03  0.86562805060E+02 0.  0.
         25    2    1    2    0    0 -0.18529257873E+03  0.61635603644E+01 -0.33637801376E+02  0.22616412560E+03  0.12508949124E+03 0.  0.
         24    2    1    2    0    0  0.26453548327E+03 -0.22637420139E+02  0.84525211449E+03  0.88950827152E+03  0.79261298019E+02 0.  0.
        -13    1    5    5    0    0  0.16830315255E+02  0.97753375633E+01  0.22927883103E+02  0.30074982288E+02  0.00000000000E+00 0.  1.
         14    1    5    5    0    0  0.24770516801E+03 -0.32412757702E+02  0.82232423139E+03  0.85943328924E+03  0.00000000000E+00 0. -1.
         13    1    3    3    0    0 -0.74893134491E+02  0.32768210622E+02 -0.23779596707E+03  0.25145508382E+03  0.00000000000E+00 0. -1.
        -14    1    3    3    0    0 -0.43497700466E+01 -0.16294350848E+02 -0.24852761605E+03  0.24909918167E+03  0.00000000000E+00 0.  1.
          5    1    4    4  501    0 -0.10774471965E+03  0.15501559796E+02  0.42571134756E+02  0.11695724383E+03  0.41800000000E+01 0. -1.
         -5    1    4    4    0  501 -0.77547859078E+02 -0.93379994315E+01 -0.76208936132E+02  0.10920688178E+03  0.41800000000E+01 0. -1.
</event>
<event>
11    1  0.7882745E-009  0.1587320E+03  0.7561462E-02  0.1088276E+00
         22   -1    0    0    0    0  0.00000000000E+00  0.00000000000E+00  0.14930035683E+04  0.14930035683E+04  0.00000000000E+00 0. -1.
         22   -1    0    0    0    0 -0.00000000000E+00 -0.00000000000E+00 -0.41320257567E+02  0.41320257567E+02  0.00000000000E+00 0.  1.
         24    2    1    2    0    0 -0.70884329026E+01  0.39538177211E+02  0.17576791354E+03  0.19704990912E+03  0.79503420795E+02 0.  0.
         25    2    1    2    0    0  0.78812068365E+02  0.30694282790E+02  0.18460138496E+03  0.23849192001E+03  0.12508894222E+03 0.  0.
        -24    2    1    2    0    0 -0.71723635462E+02 -0.70232460002E+02  0.10913140122E+04  0.10987819967E+04  0.79238404273E+02 0.  0.
        -13    1    3    3    0    0 -0.39549341215E+02  0.39664605386E+02  0.99946670883E+02  0.11457210975E+03  0.00000000000E+00 0.  1.
         14    1    3    3    0    0  0.32460908313E+02 -0.12642817437E+00  0.75821242653E+02  0.82477799377E+02  0.00000000000E+00 0. -1.
         11    1    5    5    0    0 -0.67677752719E+02 -0.84889699950E+02  0.10256788380E+04  0.10314085603E+04  0.00000000000E+00 0. -1.
        -12    1    5    5    0    0 -0.40458827432E+01  0.14657239948E+02  0.65635174158E+02  0.67373436433E+02  0.00000000000E+00 0.  1.
          5    1    4    4  501    0  0.46581768510E+02 -0.46398092984E+02  0.97942780981E+02  0.11803772675E+03  0.41800000000E+01 0.  1.
         -5    1    4    4    0  501  0.32230299855E+02  0.77092375774E+02  0.86658603976E+02  0.12045419326E+03  0.41800000000E+01 0.  1.
</event>
<event>
11    1  0.7882745E-009  0.2376495E+03  0.7561462E-02  0.1030692E+00
         22   -1    0    0    0    0  0.00000000000E+00  0.00000000000E+00  0.64051297145E+03  0.64051297145E+03  0.00000000000E+00 0.  1.
         22   -1    0    0    0    0 -0.00000000000E+00 -0.00000000000E+00 -0.80262796664E+03  0.80262796664E+03  0.00000000000E+00 0.  1.
         24    2    1    2    0    0  0.18539495095E+01 -0.86115264059E+01 -0.24937272366E+03  0.26229281058E+03  0.80828012851E+02 0.  0.
         25    2    1    2    0    0  0.15043848498E+03 -0.12457945463E+03 -0.50146860550E+03  0.55251284150E+03  0.12509156424E+03 0.  0.
        -24    2    1    2    0    0 -0.15229243449E+03  0.13319098104E+03  0.58872633397E+03  0.62833528600E+03  0.85286061536E+02 0.  0.
        -11    1    3    3    0    0 -0.28548584801E+02 -0.12864585301E+02 -0.21022349269E+03  0.21254278658E+03  0.00000000000E+00 0.  1.
         12    1    3    3    0    0  0.30402534311E+02  0.42530588952E+01 -0.39149230970E+02  0.49750024000E+02  0.00000000000E+00 0. -1.
         11    1    5    5    0    0 -0.11203315335E+02 -0.19149593068E+01  0.11993090852E+03  0.12046827035E+03  0.00000000000E+00 0. -1.
        -12    1    5    5    0    0 -0.14108911915E+03  0.13510594035E+03  0.46879542545E+03  0.50786701565E+03  0.00000000000E+00 0.  1.
          5    1    4    4  501    0  0.14264911698E+03 -0.47796579277E+02 -0.27905881739E+03  0.31705611417E+03  0.41800000000E+01 0. -1.
         -5    1    4    4    0  501  0.77893679997E+01 -0.76782875357E+02 -0.22240978811E+03  0.23545672734E+03  0.41800000000E+01 0. -1.
</event>
<event>
11    1  0.7882745E-009  0.1614676E+03  0.7561462E-02  0.1085705E+00
         22   -1    0    0    0    0  0.00000000000E+00  0.00000000000E+00  0.90228679868E+03  0.90228679868E+03  0.00000000000E+00 0. -1.
         22   -1    0    0    0    0 -0.00000000000E+00 -0.00000000000E+00 -0.66604028658E+03  0.66604028658E+03  0.00000000000E+00 0.  1.
         24    2    1    2    0    0 -0.94440415569E+02 -0.23697942560E+02 -0.55220293571E+03  0.56642014174E+03  0.80144308523E+02 0.  0.
         25    2    1    2    0    0  0.17048597049E+03  0.62527078368E+02  0.15252318709E+02  0.22103346285E+03  0.12509219324E+03 0.  0.
        -24    2    1    2    0    0 -0.76045554925E+02 -0.38829135807E+02  0.77319712910E+03  0.78087348067E+03  0.68109941632E+02 0.  0.
        -11    1    3    3    0    0 -0.11218687514E+02 -0.21960260715E+02 -0.29619104289E+03  0.29721582375E+03  0.00000000000E+00 0.  1.
         12    1    3    3    0    0 -0.83221728055E+02 -0.17376818457E+01 -0.25601189282E+03  0.26920431799E+03  0.00000000000E+00 0. -1.
         11    1    5    5    0    0 -0.20049329763E+02 -0.47484994347E+02  0.42175907620E+03  0.42489706832E+03  0.00000000000E+00 0. -1.
        -12    1    5    5    0    0 -0.55996225163E+02  0.86558585393E+01  0.35143805290E+03  0.35597641235E+03  0.00000000000E+00 0.  1.
          5    1    4    4  501    0  0.93074251502E+01  0.30672183748E+02 -0.36473827631E+02  0.48736264946E+02  0.41800000000E+01 0. -1.
         -5    1    4    4    0  501  0.16117854534E+03  0.31854894620E+02  0.51726146340E+02  0.17229719790E+03  0.41800000000E+01 0. -1.
</event>
<event>
11    1  0.7882745E-009  0.1728779E+03  0.7561462E-02  0.1075554E+00
         22   -1    0    0    0    0  0.00000000000E+00  0.00000000000E+00  0.15707554590E+04  0.15707554590E+04  0.00000000000E+00 0.  1.
         22   -1    0    0    0    0 -0.00000000000E+00 -0.00000000000E+00 -0.30684992492E+04  0.30684992492E+04  0.00000000000E+00 0. -1.
         24    2    1    2    0    0 -0.56006421063E+02  0.10523589627E+03 -0.29821191531E+04  0.29855609395E+04  0.79549777643E+02 0.  0.
         25    2    1    2    0    0 -0.28997592323E+02 -0.15998798781E+03  0.46208771913E+02  0.21028416091E+03  0.12508861309E+03 0.  0.
        -24    2    1    2    0    0  0.85004013386E+02  0.54752091538E+02  0.14381665910E+04  0.14434096078E+04  0.69890476114E+02 0.  0.
        -13    1    3    3    0    0 -0.97124269216E+01  0.40922368177E+02 -0.39585689616E+03  0.39808498300E+03  0.00000000000E+00 0.  1.
         14    1    3    3    0    0 -0.46293994141E+02  0.64313528092E+02 -0.25862622569E+04  0.25874759565E+04  0.00000000000E+00 0. -1.
         13    1    5    5    0    0  0.14629486588E+02  0.37854190563E+01  0.43709632633E+02  0.46248062232E+02  0.00000000000E+00 0. -1.
        -14    1    5    5    0    0  0.70374526798E+02  0.50966672482E+02  0.13944569583E+04  0.13971615455E+04  0.00000000000E+00 0.  1.
          5    1    4    4  501    0 -0.42878004247E+02 -0.72891314607E+02  0.79285546171E+02  0.11599714318E+03  0.41800000000E+01 0. -1.
         -5    1    4    4    0  501  0.13880411924E+02 -0.87096673200E+02 -0.33076774257E+02  0.94287017733E+02  0.41800000000E+01 0. -1.
</event>
<event>
11    1  0.7882745E-009  0.1733974E+03  0.7561462E-02  0.1075112E+00
         22   -1    0    0    0    0  0.00000000000E+00  0.00000000000E+00  0.31257924880E+03  0.31257924880E+03  0.00000000000E+00 0.  1.
         22   -1    0    0    0    0 -0.00000000000E+00 -0.00000000000E+00 -0.66128423308E+03  0.66128423308E+03  0.00000000000E+00 0.  1.
        -24    2    1    2    0    0 -0.38115548994E+02  0.38556980386E+02 -0.56197133128E+03  0.57472951909E+03  0.10753049394E+03 0.  0.
         25    2    1    2    0    0  0.13181754782E+03  0.30687920102E+02  0.68481926714E+02  0.19660946069E+03  0.12509153205E+03 0.  0.
         24    2    1    2    0    0 -0.93701998830E+02 -0.69244900488E+02  0.14478442028E+03  0.20252450209E+03  0.80490525914E+02 0.  0.
        -11    1    5    5    0    0 -0.10489306193E+03 -0.54747823975E+02  0.14055772892E+03  0.18372902283E+03  0.00000000000E+00 0.  1.
         12    1    5    5    0    0  0.11191063100E+02 -0.14497076513E+02  0.42266913637E+01  0.18795479260E+02  0.00000000000E+00 0. -1.
         11    1    3    3    0    0 -0.90271544710E+01  0.51052472453E+01  0.62480250850E+00  0.10389583507E+02  0.00000000000E+00 0. -1.
        -12    1    3    3    0    0 -0.29088394523E+02  0.33451733141E+02 -0.56259613379E+03  0.56433993559E+03  0.00000000000E+00 0.  1.
          5    1    4    4  501    0  0.14868134324E+03  0.77410695459E+01  0.36039201255E+02  0.15323955890E+03  0.41800000000E+01 0. -1.
         -5    1    4    4    0  501 -0.16863795411E+02  0.22946850556E+02  0.32442725460E+02  0.43369901791E+02  0.41800000000E+01 0. -1.
</event>
<event>
11    1  0.7882745E-009  0.1493891E+03  0.7561462E-02  0.1097505E+00
         22   -1    0    0    0    0  0.00000000000E+00  0.00000000000E+00  0.10873506484E+04  0.10873506484E+04  0.00000000000E+00 0.  1.
         22   -1    0    0    0    0 -0.00000000000E+00 -0.00000000000E+00 -0.12537583586E+04  0.12537583586E+04  0.00000000000E+00 0.  1.
         24    2    1    2    0    0 -0.85790452993E+02  0.52801454858E+02 -0.49597170176E+03  0.51232545280E+03  0.79633191435E+02 0.  0.
         25    2    1    2    0    0  0.44987548885E+02 -0.50281399807E+02 -0.74096391553E+03  0.75447157598E+03  0.12509091147E+03 0.  0.
        -24    2    1    2    0    0  0.40802904109E+02 -0.25200550519E+01  0.10705279071E+04  0.10743119782E+04  0.80280750926E+02 0.  0.
        -13    1    3    3    0    0  0.39553465586E+00  0.34830051605E+02 -0.21740004312E+03  0.22017281324E+03  0.00000000000E+00 0.  1.
         14    1    3    3    0    0 -0.86185987649E+02  0.17971403253E+02 -0.27857165864E+03  0.29215263956E+03  0.00000000000E+00 0. -1.
         13    1    5    5    0    0  0.48699918407E+02  0.12085447490E+02  0.34855395069E+03  0.35214712357E+03  0.00000000000E+00 0. -1.
        -14    1    5    5    0    0 -0.78970142977E+01 -0.14605502542E+02  0.72197395641E+03  0.72216485464E+03  0.00000000000E+00 0.  1.
          5    1    4    4  501    0 -0.42904294833E+02 -0.27604796207E+02 -0.25563817737E+03  0.26071277954E+03  0.41800000000E+01 0. -1.
         -5    1    4    4    0  501  0.87891843718E+02 -0.22676603599E+02 -0.48532573816E+03  0.49375879644E+03  0.41800000000E+01 0. -1.
</event>
<event>
11    1  0.7882745E-009  0.1482422E+03  0.7561462E-02  0.1098689E+00
         22   -1    0    0    0    0  0.00000000000E+00  0.00000000000E+00  0.22205352031E+03  0.22205352031E+03  0.00000000000E+00 0.  1.
         22   -1    0    0    0    0 -0.00000000000E+00 -0.00000000000E+00 -0.16424581538E+04  0.16424581538E+04  0.00000000000E+00 0.  1.
         24    2    1    2    0    0  0.53079265287E+01  0.10076428183E+02 -0.15123840940E+04  0.15145621017E+04  0.80392808267E+02 0.  0.
         25    2    1    2    0    0  0.70648750853E+02 -0.34423178039E+02 -0.68950080436E+02  0.16301652580E+03  0.12507626836E+03 0.  0.
        -24    2    1    2    0    0 -0.75956677382E+02  0.24346749856E+02  0.16092954096E+03  0.18693304661E+03  0.51802178451E+02 0.  0.
        -11    1    3    3    0    0  0.20524297563E+02  0.28480129478E+02 -0.13475584193E+04  0.13480156000E+04  0.00000000000E+00 0.  1.
         12    1    3    3    0    0 -0.15216371035E+02 -0.18403701295E+02 -0.16482567478E+03  0.16654650172E+03  0.00000000000E+00 0. -1.
         13    1    5    5    0    0 -0.11510298915E+02  0.26675910662E+02  0.66659011047E+02  0.72715300622E+02  0.00000000000E+00 0. -1.
        -14    1    5    5    0    0 -0.64446378467E+02 -0.23291608060E+01  0.94270529913E+02  0.11421774598E+03  0.00000000000E+00 0.  1.
          5    1    4    4  501    0  0.83872672203E+02 -0.59055950440E+02 -0.82466122010E+02  0.13168281628E+03  0.41800000000E+01 0.  1.
         -5    1    4    4    0  501 -0.13223921350E+02  0.24632772401E+02  0.13516041574E+02  0.31333709513E+02  0.41800000000E+01 0.  1.
</event>
<event>
11    1  0.7882745E-009  0.2077722E+03  0.7561462E-02  0.1049160E+00
         22   -1    0    0    0    0  0.00000000000E+00  0.00000000000E+00  0.95985259782E+03  0.95985259782E+03  0.00000000000E+00 0. -1.
         22   -1    0    0    0    0 -0.00000000000E+00 -0.00000000000E+00 -0.52818977239E+03  0.52818977239E+03  0.00000000000E+00 0.  1.
         24    2    1    2    0    0 -0.16755746858E+02  0.76758652693E+02 -0.43911969247E+03  0.45409374891E+03  0.84866852559E+02 0.  0.
         25    2    1    2    0    0  0.10208824251E+03  0.74589633332E+02  0.41815896814E+02  0.18270735752E+03  0.12509111322E+03 0.  0.
        -24    2    1    2    0    0 -0.85332495656E+02 -0.15134828602E+03  0.82896662109E+03  0.85124126379E+03  0.85076975661E+02 0.  0.
        -11    1    3    3    0    0 -0.39374463904E+02  0.39273839944E+02 -0.35433621735E+03  0.35867385999E+03  0.00000000000E+00 0.  1.
         12    1    3    3    0    0  0.22618717047E+02  0.37484812749E+02 -0.84783475117E+02  0.95419888915E+02  0.00000000000E+00 0. -1.
         11    1    5    5    0    0 -0.90073795739E+02 -0.75969109473E+02  0.51822827244E+03  0.53145567701E+03  0.00000000000E+00 0. -1.
        -12    1    5    5    0    0  0.47413000832E+01 -0.75379176551E+02  0.31073834865E+03  0.31978558677E+03  0.00000000000E+00 0.  1.
          5    1    4    4  501    0  0.11981885900E+03  0.79711189127E+02  0.82907146913E+01  0.14421040529E+03  0.41800000000E+01 0.  1.
         -5    1    4    4    0  501 -0.17730616486E+02 -0.51215557951E+01  0.33525182122E+02  0.38496952231E+02  0.41800000000E+01 0.  1.
</event>
<event>
11    1  0.7882745E-009  0.2900000E+03  0.7561462E-02  0.1004515E+00
         22   -1    0    0    0    0  0.00000000000E+00  0.00000000000E+00  0.18782078633E+03  0.18782078633E+03  0.00000000000E+00 0.  1.
         22   -1    0    0    0    0 -0.00000000000E+00 -0.00000000000E+00 -0.13882136498E+04  0.13882136498E+04  0.00000000000E+00 0. -1.
        -24    2    1    2    0    0  0.26439736048E+03 -0.19957961471E+02 -0.79261734586E+03  0.83964095222E+03  0.80314302807E+02 0.  0.
         25    2    1    2    0    0 -0.25088872679E+03  0.60998398252E+02 -0.51883029654E+03  0.59287699074E+03  0.12510911926E+03 0.  0.
         24    2    1    2    0    0 -0.13508633695E+02 -0.41040436782E+02  0.11105477894E+03  0.14351649316E+03  0.79981368137E+02 0.  0.
        -11    1    5    5    0    0  0.28839483955E+02 -0.34289910858E+02  0.37742120534E+02  0.58583116030E+02  0.00000000000E+00 0.  1.
         12    1    5    5    0    0 -0.42348117650E+02 -0.67505259234E+01  0.73312658405E+02  0.84933377132E+02  0.00000000000E+00 0. -1.
         13    1    3    3    0    0  0.76494031926E+02 -0.39382033552E+02 -0.29823969499E+03  0.31040167067E+03  0.00000000000E+00 0. -1.
        -14    1    3    3    0    0  0.18790332856E+03  0.19424072081E+02 -0.49437765086E+03  0.52923928155E+03  0.00000000000E+00 0.  1.
          5    1    4    4  501    0 -0.11695200520E+03  0.51873327636E+02 -0.13415735440E+03  0.18542999159E+03  0.41800000000E+01 0. -1.
         -5    1    4    4    0  501 -0.13393672158E+03  0.91250706168E+01 -0.38467294214E+03  0.40744699915E+03  0.41800000000E+01 0. -1.
</event>
<event>
11    1  0.7882745E-009  0.2685663E+03  0.7561462E-02  0.1014449E+00
         22   -1    0    0    0    0  0.00000000000E+00  0.00000000000E+00  0.89245923050E+03  0.89245923050E+03  0.00000000000E+00 0. -1.
         22   -1    0    0    0    0 -0.00000000000E+00 -0.00000000000E+00 -0.50115262032E+03  0.50115262032E+03  0.00000000000E+00 0. -1.
        -24    2    1    2    0    0 -0.53015796796E+02 -0.86566156722E+02 -0.39907518539E+03  0.41945035377E+03  0.79832458828E+02 0.  0.
         25    2    1    2    0    0  0.13529592414E+03 -0.15575146150E+03  0.16142191745E+03  0.29029101599E+03  0.12509329992E+03 0.  0.
         24    2    1    2    0    0 -0.82280127340E+02  0.24231761822E+03  0.62895987812E+03  0.68387048106E+03  0.81243209663E+02 0.  0.
        -11    1    5    5    0    0 -0.43303476472E+02  0.60469078700E+02  0.11173279371E+03  0.13422338747E+03  0.00000000000E+00 0.  1.
         12    1    5    5    0    0 -0.38976650867E+02  0.18184853952E+03  0.51722708441E+03  0.54964709359E+03  0.00000000000E+00 0. -1.
         11    1    3    3    0    0 -0.65452538617E+02 -0.94070163019E+02 -0.35624531331E+03  0.37422446958E+03  0.00000000000E+00 0. -1.
        -12    1    3    3    0    0  0.12436741821E+02  0.75040062970E+01 -0.42829872081E+02  0.45225884183E+02  0.00000000000E+00 0.  1.
          5    1    4    4  501    0  0.12121776515E+03 -0.57350482230E+02  0.12774756908E+03  0.18525587225E+03  0.41800000000E+01 0. -1.
         -5    1    4    4    0  501  0.14078158989E+02 -0.98400979270E+02  0.33674348372E+02  0.10503514374E+03  0.41800000000E+01 0. -1.
</event>
<event>
11    1  0.7882745E-009  0.1781818E+03  0.7561462E-02  0.1071123E+00
         22   -1    0    0    0    0  0.00000000000E+00  0.00000000000E+00  0.10398213830E+04  0.10398213830E+04  0.00000000000E+00 0.  1.
         22   -1    0    0    0    0 -0.00000000000E+00 -0.00000000000E+00 -0.15244071571E+04  0.15244071571E+04  0.00000000000E+00 0. -1.
         24    2    1    2    0    0  0.38494293696E+02 -0.84154271792E+02 -0.14561443409E+04  0.14613064018E+04  0.80599666454E+02 0.  0.
         25    2    1    2    0    0  0.90472629772E+02  0.96664643933E+02  0.80835901754E+02  0.19927469389E+03  0.12508641208E+03 0.  0.
        -24    2    1    2    0    0 -0.12896692347E+03 -0.12510372140E+02  0.89072266502E+03  0.90364744443E+03  0.80017879807E+02 0.  0.
        -11    1    3    3    0    0  0.60178187974E+01  0.81312833965E+01 -0.51333838015E+03  0.51343804344E+03  0.00000000000E+00 0.  1.
         12    1    3    3    0    0  0.32476474899E+02 -0.92285555189E+02 -0.94280596074E+03  0.94786835833E+03  0.00000000000E+00 0. -1.
         13    1    5    5    0    0 -0.62097348246E+02 -0.24958416455E+02  0.23312076435E+03  0.24253720124E+03  0.00000000000E+00 0. -1.
        -14    1    5    5    0    0 -0.66869575222E+02  0.12448044315E+02  0.65760190066E+03  0.66111024319E+03  0.00000000000E+00 0.  1.
          5    1    4    4  501    0  0.10000714790E+03  0.46449970618E+02  0.95502964268E+02  0.14593600647E+03  0.41800000000E+01 0.  1.
         -5    1    4    4    0  501 -0.95345181289E+01  0.50214673315E+02 -0.14667062514E+02  0.53338687412E+02  0.41800000000E+01 0.  1.
</event>
<event>
11    1  0.7882745E-009  0.1638986E+03  0.7561462E-02  0.1083467E+00
         22   -1    0    0    0    0  0.00000000000E+00  0.00000000000E+00  0.17139461791E+04  0.17139461791E+04  0.00000000000E+00 0.  1.
         22   -1    0    0    0    0 -0.00000000000E+00 -0.00000000000E+00 -0.99787557722E+02  0.99787557722E+02  0.00000000000E+00 0.  1.
        -24    2    1    2    0    0  0.52142714363E+02 -0.66351082363E+01 -0.19290824440E+02  0.97066815289E+02  0.79290247826E+02 0.  0.
         25    2    1    2    0    0  0.52633891086E+02  0.38145905103E+02  0.90367999296E+02  0.16745824817E+03  0.12510177063E+03 0.  0.
         24    2    1    2    0    0 -0.10477660545E+03 -0.31510796866E+02  0.15430814466E+04  0.15492086734E+04  0.83523024738E+02 0.  0.
        -13    1    5    5    0    0 -0.11886138538E+03 -0.31668224082E+02  0.14221000047E+04  0.14274100072E+04  0.00000000000E+00 0.  1.
         14    1    5    5    0    0  0.14084779928E+02  0.15742721508E+00  0.12098144186E+03  0.12179866618E+03  0.00000000000E+00 0. -1.
         11    1    3    3    0    0  0.69139486822E+02  0.45349721446E+01 -0.28271186368E+02  0.74833779732E+02  0.00000000000E+00 0. -1.
        -12    1    3    3    0    0 -0.16996772459E+02 -0.11170080381E+02  0.89803619275E+01  0.22233035557E+02  0.00000000000E+00 0.  1.
          5    1    4    4  501    0  0.48632832452E+02  0.82556496324E+02  0.56543622348E+02  0.11133454588E+03  0.41800000000E+01 0. -1.
         -5    1    4    4    0  501  0.40010586338E+01 -0.44410591221E+02  0.33824376948E+02  0.56123702290E+02  0.41800000000E+01 0. -1.
</event>
<event>
11    1  0.7882745E-009  0.2580474E+03  0.7561462E-02  0.1019697E+00
         22   -1    0    0    0    0  0.00000000000E+00  0.00000000000E+00  0.32878956863E+03  0.32878956863E+03  0.00000000000E+00 0.  1.
         22   -1    0    0    0    0 -0.00000000000E+00 -0.00000000000E+00 -0.11042631168E+04  0.11042631168E+04  0.00000000000E+00 0. -1.
         24    2    1    2    0    0 -0.19583950664E+03  0.10642350337E+03 -0.94091059200E+03  0.97026257973E+03  0.80110280594E+02 0.  0.
         25    2    1    2    0    0  0.26234227007E+03 -0.58572680433E+02  0.50791842544E+02  0.30080117819E+03  0.12508921605E+03 0.  0.
        -24    2    1    2    0    0 -0.66502763434E+02 -0.47850822936E+02  0.11464520131E+03  0.16198892750E+03  0.79903514623E+02 0.  0.
        -13    1    3    3    0    0 -0.70464114609E+02  0.23198516672E+02 -0.47207128289E+03  0.47786468665E+03  0.00000000000E+00 0.  1.
         14    1    3    3    0    0 -0.12537539203E+03  0.83224986697E+02 -0.46883930911E+03  0.49239789308E+03  0.00000000000E+00 0. -1.
         13    1    5    5    0    0 -0.24852783572E+01 -0.87697902831E+01 -0.11837217760E+02  0.14940065409E+02  0.00000000000E+00 0. -1.
        -14    1    5    5    0    0 -0.64017485077E+02 -0.39081032653E+02  0.12648241907E+03  0.14704886209E+03  0.00000000000E+00 0.  1.
          5    1    4    4  501    0  0.69832850002E+02 -0.40555941962E+02 -0.36376292930E+02  0.88668587759E+02  0.41800000000E+01 0. -1.
         -5    1    4    4    0  501  0.19250942007E+03 -0.18016738471E+02  0.87168135474E+02  0.21213259043E+03  0.41800000000E+01 0. -1.
</event>
<event>
11    1  0.7882745E-009  0.1562530E+03  0.7561462E-02  0.1090655E+00
         22   -1    0    0    0    0  0.00000000000E+00  0.00000000000E+00  0.95571507861E+03  0.95571507861E+03  0.00000000000E+00 0. -1.
         22   -1    0    0    0    0 -0.00000000000E+00 -0.00000000000E+00 -0.70805711798E+03  0.70805711798E+03  0.00000000000E+00 0. -1.
        -24    2    1    2    0    0  0.80569474428E+02 -0.49749973504E+02 -0.65052543033E+03  0.66237852109E+03  0.81212496646E+02 0.  0.
         25    2    1    2    0    0 -0.27976253876E+02  0.88487277630E+02  0.77100107486E+02  0.17379684212E+03  0.12509295214E+03 0.  0.
         24    2    1    2    0    0 -0.52593220552E+02 -0.38737304126E+02  0.82108328349E+03  0.82759683338E+03  0.80449578130E+02 0.  0.
        -13    1    5    5    0    0  0.11208042246E+02 -0.15921633082E+02  0.51855212043E+02  0.55390266537E+02  0.00000000000E+00 0.  1.
         14    1    5    5    0    0 -0.63801262798E+02 -0.22815671045E+02  0.76922807144E+03  0.77220656684E+03  0.00000000000E+00 0. -1.
         11    1    3    3    0    0  0.33060756595E+02  0.69803621258E+01 -0.39252094087E+03  0.39397262354E+03  0.00000000000E+00 0. -1.
        -12    1    3    3    0    0  0.47508717833E+02 -0.56730335630E+02 -0.25800448947E+03  0.26840589754E+03  0.00000000000E+00 0.  1.
          5    1    4    4  501    0 -0.76328944534E+02  0.56600843057E+02  0.62841571266E+02  0.11400131003E+03  0.41800000000E+01 0.  1.
         -5    1    4    4    0  501  0.48352690658E+02  0.31886434573E+02  0.14258536220E+02  0.59795532097E+02  0.41800000000E+01 0.  1.
</event>
<event>
11    1  0.7882745E-009  0.2330901E+03  0.7561462E-02  0.1033314E+00
         22   -1    0    0    0    0  0.00000000000E+00  0.00000000000E+00  0.37363505201E+03  0.37363505201E+03  0.00000000000E+00 0. -1.
         22   -1    0    0    0    0 -0.00000000000E+00 -0.00000000000E+00 -0.63397414283E+03  0.63397414283E+03  0.00000000000E+00 0.  1.
         24    2    1    2    0    0  0.16927371402E+02 -0.28151796486E+02 -0.42792506096E+03  0.43664175246E+03  0.80356099016E+02 0.  0.
         25    2    1    2    0    0  0.21880949201E+02 -0.17081478171E+03 -0.92348673938E+02  0.23201779991E+03  0.12509003281E+03 0.  0.
        -24    2    1    2    0    0 -0.38808320603E+02  0.19896657820E+03  0.25993464409E+03  0.33894964247E+03  0.78911697133E+02 0.  0.
        -11    1    3    3    0    0 -0.56482911516E+01 -0.45532827334E+02 -0.36100497013E+03  0.36390895842E+03  0.00000000000E+00 0.  1.
         12    1    3    3    0    0  0.22575662554E+02  0.17381030848E+02 -0.66920090829E+02  0.72732794045E+02  0.00000000000E+00 0. -1.
         13    1    5    5    0    0 -0.46186448002E+01  0.16780371173E+03  0.22625191246E+03  0.28172565635E+03  0.00000000000E+00 0. -1.
        -14    1    5    5    0    0 -0.34189675803E+02  0.31162866469E+02  0.33682731623E+02  0.57223986122E+02  0.00000000000E+00 0.  1.
          5    1    4    4  501    0 -0.35119025628E+02 -0.41807318568E+01 -0.71078441478E+01  0.36315538387E+02  0.41800000000E+01 0.  1.
         -5    1    4    4    0  501  0.56999974829E+02 -0.16663404985E+03 -0.85240829790E+02  0.19570226152E+03  0.41800000000E+01 0.  1.
</event>
<event>
11    1  0.7882745E-009  0.1465052E+03  0.7561462E-02  0.1100504E+00
         22   -1    0    0    0    0  0.00000000000E+00  0.00000000000E+00  0.17797552995E+04  0.17797552995E+04  0.00000000000E+00 0. -1.
         22   -1    0    0    0    0 -0.00000000000E+00 -0.00000000000E+00 -0.11403594412E+03  0.11403594412E+03  0.00000000000E+00 0. -1.
         24    2    1    2    0    0 -0.41398311676E+01 -0.77218539789E+01 -0.88579480021E+02  0.11967814395E+03  0.79998553911E+02 0.  0.
         25    2    1    2    0    0  0.62913147786E+02 -0.41705680819E+02  0.78321461297E+03  0.79672406237E+03  0.12508666437E+03 0.  0.
        -24    2    1    2    0    0 -0.58773316619E+02  0.49427534798E+02  0.97108422240E+03  0.97738903727E+03  0.79921081328E+02 0.  0.
        -11    1    3    3    0    0 -0.33974920912E+02  0.10553874436E+02 -0.15803215988E+02  0.38928410604E+02  0.00000000000E+00 0.  1.
         12    1    3    3    0    0  0.29835089744E+02 -0.18275728415E+02 -0.72776264033E+02  0.80749733348E+02  0.00000000000E+00 0. -1.
         11    1    5    5    0    0 -0.28442399150E+02  0.39185914546E+02  0.87022635903E+03  0.87157238478E+03  0.00000000000E+00 0. -1.
        -12    1    5    5    0    0 -0.30330917469E+02  0.10241620252E+02  0.10085786337E+03  0.10581665249E+03  0.00000000000E+00 0.  1.
          5    1    4    4  501    0  0.93527024425E+02 -0.17804113363E+01  0.44335903798E+03  0.45313925356E+03  0.41800000000E+01 0.  1.
         -5    1    4    4    0  501 -0.30613876638E+02 -0.39925269482E+02  0.33985557499E+03  0.34358480880E+03  0.41800000000E+01 0.  1.
</event>
<event>
11    1  0.7882745E-009  0.1495011E+03  0.7561462E-02  0.1097390E+00
         22   -1    0    0    0    0  0.00000000000E+00  0.00000000000E+00  0.11608727105E+04  0.11608727105E+04  0.00000000000E+00 0. -1.
         22   -1    0    0    0    0 -0.00000000000E+00 -0.00000000000E+00 -0.25417516330E+03  0.25417516330E+03  0.00000000000E+00 0. -1.
        -24    2    1    2    0    0 -0.79511319081E+02  0.33099423946E+02 -0.20162893317E+03  0.23300964179E+03  0.78877403284E+02 0.  0.
         25    2    1    2    0    0  0.47574375155E+02 -0.77208843009E+01  0.93887552940E+02  0.16366186738E+03  0.12508957196E+03 0.  0.
         24    2    1    2    0    0  0.31936943926E+02 -0.25378539645E+02  0.10144389275E+04  0.10183763647E+04  0.79624392629E+02 0.  0.
        -13    1    5    5    0    0 -0.55983601031E+01 -0.31956798317E+02  0.16940990426E+03  0.17248853370E+03  0.00000000000E+00 0.  1.
         14    1    5    5    0    0  0.37535304029E+02  0.65782586715E+01  0.84502902321E+03  0.84588783098E+03  0.00000000000E+00 0. -1.
         11    1    3    3    0    0 -0.94218618873E+02  0.30248859718E+02 -0.15375283821E+03  0.18284440630E+03  0.00000000000E+00 0. -1.
        -12    1    3    3    0    0  0.14707299792E+02  0.28505642277E+01 -0.47876094956E+02  0.50165235491E+02  0.00000000000E+00 0.  1.
          5    1    4    4  501    0 -0.19427268879E+02  0.37901935245E+02  0.46736481829E+01  0.43049864793E+02  0.41800000000E+01 0. -1.
         -5    1    4    4    0  501  0.67001644034E+02 -0.45622819546E+02  0.89213904757E+02  0.12061200259E+03  0.41800000000E+01 0. -1.
</event>
<event>
11    1  0.7882745E-009  0.2363404E+03  0.7561462E-02  0.1031438E+00
         22   -1    0    0    0    0  0.00000000000E+00  0.00000000000E+00  0.10704321295E+04  0.10704321295E+04  0.00000000000E+00 0.  1.
         22   -1    0    0    0    0 -0.00000000000E+00 -0.00000000000E+00 -0.13405962699E+03  0.13405962699E+03  0.00000000000E+00 0. -1.
        -24    2    1    2    0    0 -0.18367747698E+03 -0.77118924560E+02  0.11208257439E+02  0.21784621435E+03  0.87444862599E+02 0.  0.
         25    2    1    2    0    0  0.19976916040E+03  0.57966874975E+02  0.52980860232E+03  0.58276402838E+03  0.12509549009E+03 0.  0.
         24    2    1    2    0    0 -0.16091683420E+02  0.19152049585E+02  0.39535564276E+03  0.40388151376E+03  0.78666699562E+02 0.  0.
        -13    1    5    5    0    0  0.13351091399E+02  0.37000704220E+02  0.29865318050E+03  0.30123251149E+03  0.00000000000E+00 0.  1.
         14    1    5    5    0    0 -0.29442774819E+02 -0.17848654635E+02  0.96702462256E+02  0.10264900227E+03  0.00000000000E+00 0. -1.
         11    1    3    3    0    0 -0.16570953508E+03 -0.95911388954E+02  0.77953089259E+01  0.19162309723E+03  0.00000000000E+00 0. -1.
        -12    1    3    3    0    0 -0.17967941899E+02  0.18792464394E+02  0.34129485136E+01  0.26223117123E+02  0.00000000000E+00 0.  1.
          5    1    4    4  501    0  0.20383059983E+03  0.55149708142E+02  0.39601331277E+03  0.44881223248E+03  0.41800000000E+01 0. -1.
         -5    1    4    4    0  501 -0.40614394232E+01  0.28171668331E+01  0.13379528955E+03  0.13395179590E+03  0.41800000000E+01 0. -1.
</event>
<event>
11    1  0.7882745E-009  0.1342143E+03  0.7561462E-02  0.1114197E+00
         22   -1    0    0    0    0  0.00000000000E+00  0.00000000000E+00  0.35125546223E+03  0.35125546223E+03  0.00000000000E+00 0.  1.
         22   -1    0    0    0    0 -0.00000000000E+00 -0.00000000000E+00 -0.18810813698E+04  0.18810813698E+04  0.00000000000E+00 0. -1.
         24    2    1    2    0    0  0.34661267718E+02  0.17832569028E+02 -0.16926071382E+04  0.16949809730E+04  0.80759956023E+02 0.  0.
         25    2    1    2    0    0 -0.60409300081E+02 -0.57602398708E+02 -0.14911048551E+03  0.21178077532E+03  0.12509932067E+03 0.  0.
        -24    2    1    2    0    0  0.25748032363E+02  0.39769829680E+02  0.31189171619E+03  0.32557508369E+03  0.80486594961E+02 0.  0.
        -13    1    3    3    0    0 -0.17718834020E+02 -0.18574214326E+02 -0.43433637696E+03  0.43509429652E+03  0.00000000000E+00 0.  1.
         14    1    3    3    0    0  0.52380101737E+02  0.36406783354E+02 -0.12582707613E+04  0.12598866765E+04  0.00000000000E+00 0. -1.
         13    1    5    5    0    0 -0.10691255184E+02 -0.40980224655E+01  0.35259633470E+01  0.11980364897E+02  0.00000000000E+00 0. -1.
        -14    1    5    5    0    0  0.36439287547E+02  0.43867852145E+02  0.30836575284E+03  0.31359471879E+03  0.00000000000E+00 0.  1.
          5    1    4    4  501    0 -0.43760596560E+02 -0.82845851521E+02 -0.15454285061E+03  0.18077441744E+03  0.41800000000E+01 0. -1.
         -5    1    4    4    0  501 -0.16648703520E+02  0.25243452814E+02  0.54323650919E+01  0.31006357886E+02  0.41800000000E+01 0. -1.
</event>
<event>
11    1  0.7882745E-009  0.1610350E+03  0.7561462E-02  0.1086108E+00
         22   -1    0    0    0    0  0.00000000000E+00  0.00000000000E+00  0.33938103978E+03  0.33938103978E+03  0.00000000000E+00 0. -1.
         22   -1    0    0    0    0 -0.00000000000E+00 -0.00000000000E+00 -0.14084909495E+03  0.14084909495E+03  0.00000000000E+00 0.  1.
        -24    2    1    2    0    0 -0.70410216312E+02 -0.11024690255E+03  0.61282896980E+01  0.15505617846E+03  0.83023397059E+02 0.  0.
         25    2    1    2    0    0  0.44239003661E+02  0.48743991706E+02  0.49041093071E+02  0.14962327897E+03  0.12509608558E+03 0.  0.
         24    2    1    2    0    0  0.26171212651E+02  0.61502910848E+02  0.14336256206E+03  0.17555067730E+03  0.76142469653E+02 0.  0.
        -13    1    5    5    0    0 -0.23199614403E+02  0.24742235494E+01  0.44735908070E+02  0.50454388921E+02  0.00000000000E+00 0.  1.
         14    1    5    5    0    0  0.49370827054E+02  0.59028687299E+02  0.98626653988E+02  0.12509628837E+03  0.00000000000E+00 0. -1.
         11    1    3    3    0    0 -0.72481612669E+02 -0.38633950009E+02  0.12705695171E+02  0.83111978427E+02  0.00000000000E+00 0. -1.
        -12    1    3    3    0    0  0.20713963570E+01 -0.71612952545E+02 -0.65774054727E+01  0.71944200029E+02  0.00000000000E+00 0.  1.
          5    1    4    4  501    0 -0.18550518066E+02 -0.30306580091E+02 -0.31202020555E+01  0.35914044303E+02  0.41800000000E+01 0. -1.
         -5    1    4    4    0  501  0.62789521726E+02  0.79050571796E+02  0.52161295127E+02  0.11370923467E+03  0.41800000000E+01 0. -1.
</event>
<event>
11    1  0.7882745E-009  0.1433011E+03  0.7561462E-02  0.1103927E+00
         22   -1    0    0    0    0  0.00000000000E+00  0.00000000000E+00  0.61281107939E+03  0.61281107939E+03  0.00000000000E+00 0. -1.
         22   -1    0    0    0    0 -0.00000000000E+00 -0.00000000000E+00 -0.15293674485E+03  0.15293674485E+03  0.00000000000E+00 0.  1.
        -24    2    1    2    0    0 -0.37888512710E+02  0.12078114949E+02 -0.10511297580E+03  0.13842687170E+03  0.80819804949E+02 0.  0.
         25    2    1    2    0    0  0.89127172082E+02  0.25425145573E+02  0.23709403498E+03  0.28363985785E+03  0.12509155329E+03 0.  0.
         24    2    1    2    0    0 -0.51238659372E+02 -0.37503260522E+02  0.32789327536E+03  0.34368109469E+03  0.81060471631E+02 0.  0.
        -11    1    5    5    0    0 -0.70441865230E+02 -0.16963222086E+02  0.19963971170E+03  0.21238131219E+03  0.00000000000E+00 0.  1.
         12    1    5    5    0    0  0.19203205858E+02 -0.20540038435E+02  0.12825356366E+03  0.13129978250E+03  0.00000000000E+00 0. -1.
         11    1    3    3    0    0 -0.38294071935E+02 -0.61281638979E+01 -0.79701355468E+01  0.39591835001E+02  0.00000000000E+00 0. -1.
        -12    1    3    3    0    0  0.40555922477E+00  0.18206278847E+02 -0.97142840250E+02  0.98835036700E+02  0.00000000000E+00 0.  1.
          5    1    4    4  501    0  0.76854981757E+02 -0.28664256868E+02  0.20152158901E+03  0.21761606347E+03  0.41800000000E+01 0.  1.
         -5    1    4    4    0  501  0.12272190326E+02  0.54089402440E+02  0.35572445971E+02  0.66023794378E+02  0.41800000000E+01 0.  1.
</event>
<event>
11    1  0.7882745E-009  0.1840230E+03  0.7561462E-02  0.1066434E+00
         22   -1    0    0    0    0  0.00000000000E+00  0.00000000000E+00  0.69358656583E+03  0.69358656583E+03  0.00000000000E+00 0.  1.
         22   -1    0    0    0    0 -0.00000000000E+00 -0.00000000000E+00 -0.83972898013E+03  0.83972898013E+03  0.00000000000E+00 0. -1.
         24    2    1    2    0    0  0.13869856181E+03  0.34454335104E+02 -0.68105118375E+03  0.69948213415E+03  0.70853008752E+02 0.  0.
         25    2    1    2    0    0 -0.80095387499E+02 -0.67753054893E+02 -0.99221861821E+02  0.19104403615E+03  0.12508836212E+03 0.  0.
        -24    2    1    2    0    0 -0.58603174313E+02  0.33298719789E+02  0.63413063126E+03  0.64278937566E+03  0.80705558537E+02 0.  0.
        -11    1    3    3    0    0  0.10527149479E+02 -0.15981307006E+02 -0.49162886474E+02  0.52756160362E+02  0.00000000000E+00 0.  1.
         12    1    3    3    0    0  0.12817141233E+03  0.50435642109E+02 -0.63188829728E+03  0.64672597379E+03  0.00000000000E+00 0. -1.
         13    1    5    5    0    0  0.10898829071E+01  0.33798134295E+02  0.10521237849E+03  0.11051310471E+03  0.00000000000E+00 0. -1.
        -14    1    5    5    0    0 -0.59693057220E+02 -0.49941450520E+00  0.52891825278E+03  0.53227627095E+03  0.00000000000E+00 0.  1.
          5    1    4    4  501    0  0.15310305256E+02 -0.36853523926E+02  0.11360021958E+02  0.41702639864E+02  0.41800000000E+01 0. -1.
         -5    1    4    4    0  501 -0.95405692754E+02 -0.30899530967E+02 -0.11058188378E+03  0.14934139628E+03  0.41800000000E+01 0. -1.
</event>
<event>
11    1  0.7882745E-009  0.1377936E+03  0.7561462E-02  0.1110048E+00
         22   -1    0    0    0    0  0.00000000000E+00  0.00000000000E+00  0.41616826097E+03  0.41616826097E+03  0.00000000000E+00 0.  1.
         22   -1    0    0    0    0 -0.00000000000E+00 -0.00000000000E+00 -0.37645465825E+03  0.37645465825E+03  0.00000000000E+00 0. -1.
        -24    2    1    2    0    0 -0.28004336164E+02  0.16932842627E+02 -0.29182635982E+03  0.30457904874E+03  0.80838163271E+02 0.  0.
         25    2    1    2    0    0  0.18026926387E+02 -0.72670364706E+02  0.39803917663E+01  0.14583867423E+03  0.12508846231E+03 0.  0.
         24    2    1    2    0    0  0.99774097774E+01  0.55737522079E+02  0.32755957078E+03  0.34220519625E+03  0.81258254096E+02 0.  0.
        -13    1    5    5    0    0  0.24119832322E+02  0.72839714740E+02  0.24684253772E+03  0.25849299561E+03  0.00000000000E+00 0.  1.
         14    1    5    5    0    0 -0.14142422544E+02 -0.17102192661E+02  0.80717033062E+02  0.83712200637E+02  0.00000000000E+00 0. -1.
         13    1    3    3    0    0 -0.46619278596E+01  0.46441654447E+02 -0.19935729331E+03  0.20474836076E+03  0.00000000000E+00 0. -1.
        -14    1    3    3    0    0 -0.23342408304E+02 -0.29508811820E+02 -0.92469066518E+02  0.99830687983E+02  0.00000000000E+00 0.  1.
          5    1    4    4  501    0  0.35469733358E+02 -0.76569414128E+02  0.48684963765E+02  0.97512436444E+02  0.41800000000E+01 0.  1.
         -5    1    4    4    0  501 -0.17442806972E+02  0.38990494218E+01 -0.44704571999E+02  0.48326237791E+02  0.41800000000E+01 0.  1.
</event>
<event>
11    1  0.7882745E-009  0.1338273E+03  0.7561462E-02  0.1114654E+00
         22   -1    0    0    0    0  0.00000000000E+00  0.00000000000E+00  0.81814949514E+03  0.81814949514E+03  0.00000000000E+00 0.  1.
         22   -1    0    0    0    0 -0.00000000000E+00 -0.00000000000E+00 -0.43047527196E+03  0.43047527196E+03  0.00000000000E+00 0. -1.
         24    2    1    2    0    0  0.33163149182E+02  0.38317745323E+02 -0.27854418979E+03  0.29424091482E+03  0.80142412105E+02 0.  0.
         25    2    1    2    0    0 -0.22704418114E+01 -0.42827332895E+02 -0.11085647845E+03  0.17255602946E+03  0.12508832535E+03 0.  0.
        -24    2    1    2    0    0 -0.30892707370E+02  0.45095875725E+01  0.77707489143E+03  0.78182782282E+03  0.80216344410E+02 0.  0.
        -13    1    3    3    0    0 -0.10235911781E+02 -0.14758979216E+02 -0.20553429375E+02  0.27295509091E+02  0.00000000000E+00 0.  1.
         14    1    3    3    0    0  0.43399060963E+02  0.53076724538E+02 -0.25799076041E+03  0.26694540572E+03  0.00000000000E+00 0. -1.
         13    1    5    5    0    0 -0.76639463050E+01 -0.19104458053E+02  0.50995337839E+02  0.54993098402E+02  0.00000000000E+00 0. -1.
        -14    1    5    5    0    0 -0.23228761065E+02  0.23614045626E+02  0.72607955359E+03  0.72683472442E+03  0.00000000000E+00 0.  1.
          5    1    4    4  501    0 -0.40406998852E+02  0.23589120401E+02 -0.14018243585E+02  0.49021992113E+02  0.41800000000E+01 0.  1.
         -5    1    4    4    0  501  0.38136557041E+02 -0.66416453296E+02 -0.96838234867E+02  0.12353403735E+03  0.41800000000E+01 0.  1.
</event>
<event>
11    1  0.7882745E-009  0.1408963E+03  0.7561462E-02  0.1106562E+00
         22   -1    0    0    0    0  0.00000000000E+00  0.00000000000E+00  0.21872555283E+03  0.21872555283E+03  0.00000000000E+00 0.  1.
         22   -1    0    0    0    0 -0.00000000000E+00 -0.00000000000E+00 -0.21664592265E+04  0.21664592265E+04  0.00000000000E+00 0.  1.
        -24    2    1    2    0    0 -0.62774910711E+02  0.16119685944E+02 -0.20828855013E+04  0.20854079944E+04  0.79460415694E+02 0.  0.
         25    2    1    2    0    0  0.53682389501E+02 -0.55617491041E+02  0.11592643857E+02  0.14750683959E+03  0.12509506018E+03 0.  0.
         24    2    1    2    0    0  0.90925212100E+01  0.39497805097E+02  0.12355918383E+03  0.15226994533E+03  0.79224451998E+02 0.  0.
        -11    1    5    5    0    0 -0.14246014014E+02  0.13311210041E+01  0.10129253595E+03  0.10229808717E+03  0.00000000000E+00 0.  1.
         12    1    5    5    0    0  0.23338535224E+02  0.38166684093E+02  0.22266647877E+02  0.49971858168E+02  0.00000000000E+00 0. -1.
         11    1    3    3    0    0 -0.39114517300E+02 -0.21240353842E+02 -0.52137347123E+03  0.52326990607E+03  0.00000000000E+00 0. -1.
        -12    1    3    3    0    0 -0.23660393411E+02  0.37360039786E+02 -0.15615120301E+04  0.15621380883E+04  0.00000000000E+00 0.  1.
          5    1    4    4  501    0 -0.56747344386E+01  0.19725695602E+02  0.41887849103E+02  0.46833428023E+02  0.41800000000E+01 0. -1.
         -5    1    4    4    0  501  0.59357123940E+02 -0.75343186643E+02 -0.30295205246E+02  0.10067341157E+03  0.41800000000E+01 0. -1.
</event>
<event>
11    1  0.7882745E-009  0.2516537E+03  0.7561462E-02  0.1023022E+00
         22   -1    0    0    0    0  0.00000000000E+00  0.00000000000E+00  0.26502283811E+04  0.26502283811E+04  0.00000000000E+00 0.  1.
         22   -1    0    0    0    0 -0.00000000000E+00 -0.00000000000E+00 -0.24601170706E+04  0.24601170706E+04  0.00000000000E+00 0. -1.
        -24    2    1    2    0    0 -0.20621680073E+03 -0.71821394621E+02 -0.24403288708E+04  0.24515043440E+04  0.83575532137E+02 0.  0.
         25    2    1    2    0    0  0.18975275499E+03  0.11590202935E+03  0.13314137334E+04  0.13556362608E+04  0.12509098179E+03 0.  0.
         24    2    1    2    0    0  0.16464045741E+02 -0.44080634726E+02  0.12990264479E+04  0.13032048469E+04  0.93053712531E+02 0.  0.
        -11    1    5    5    0    0 -0.88935680276E+01 -0.33328086529E+02  0.11978446011E+04  0.11983411640E+04  0.00000000000E+00 0.  1.
         12    1    5    5    0    0  0.25357613769E+02 -0.10752548197E+02  0.10118184683E+03  0.10486368293E+03  0.00000000000E+00 0. -1.
         13    1    3    3    0    0 -0.10324079226E+03 -0.30199532129E+02 -0.16374392060E+04  0.16409685635E+04  0.00000000000E+00 0. -1.
        -14    1    3    3    0    0 -0.10297600847E+03 -0.41621862492E+02 -0.80288966476E+03  0.81053578054E+03  0.00000000000E+00 0.  1.
          5    1    4    4  501    0  0.13671018063E+03  0.85973871692E+02  0.11989196565E+04  0.12097549319E+04  0.41800000000E+01 0.  1.
         -5    1    4    4    0  501  0.53042574356E+02  0.29928157655E+02  0.13249407691E+03  0.14588132893E+03  0.41800000000E+01 0.  1.
</event>
<event>
11    1  0.7882745E-009  0.1552556E+03  0.7561462E-02  0.1091626E+00
         22   -1    0    0    0    0  0.00000000000E+00  0.00000000000E+00  0.42605945890E+02  0.42605945890E+02  0.00000000000E+00 0. -1.
         22   -1    0    0    0    0 -0.00000000000E+00 -0.00000000000E+00 -0.18755083562E+04  0.18755083562E+04  0.00000000000E+00 0. -1.
        -24    2    1    2    0    0  0.91435917725E+02  0.55924714770E+02 -0.12938132026E+04  0.13003123526E+04  0.73290588283E+02 0.  0.
         25    2    1    2    0    0 -0.81392227798E+02  0.51651286878E+02 -0.38150680722E+03  0.41290255128E+03  0.12509405547E+03 0.  0.
         24    2    1    2    0    0 -0.10043689928E+02 -0.10757600165E+03 -0.15758240047E+03  0.20489939819E+03  0.74014043289E+02 0.  0.
        -11    1    5    5    0    0 -0.30394996330E+02 -0.30183273894E+02 -0.23782398612E+02  0.48994778381E+02  0.00000000000E+00 0.  1.
         12    1    5    5    0    0  0.20351306402E+02 -0.77392727753E+02 -0.13380000186E+03  0.15590461981E+03  0.00000000000E+00 0. -1.
         13    1    3    3    0    0  0.53598494680E+02 -0.36890205424E+01 -0.75218508230E+03  0.75410132313E+03  0.00000000000E+00 0. -1.
        -14    1    3    3    0    0  0.37837423046E+02  0.59613735312E+02 -0.54162812028E+03  0.54621102945E+03  0.00000000000E+00 0.  1.
          5    1    4    4  501    0  0.46726957968E+01 -0.30245121408E+02 -0.14437282822E+03  0.14764006022E+03  0.41800000000E+01 0.  1.
         -5    1    4    4    0  501 -0.86064923594E+02  0.81896408285E+02 -0.23713397901E+03  0.26526249106E+03  0.41800000000E+01 0.  1.
</event>
<event>
11    1  0.7882745E-009  0.2372317E+03  0.7561462E-02  0.1030930E+00
         22   -1    0    0    0    0  0.00000000000E+00  0.00000000000E+00  0.17752259461E+04  0.17752259461E+04  0.00000000000E+00 0. -1.
         22   -1    0    0    0    0 -0.00000000000E+00 -0.00000000000E+00 -0.75013870790E+03  0.75013870790E+03  0.00000000000E+00 0. -1.
         24    2    1    2    0    0  0.55423822830E+02  0.19239870854E+03 -0.69534720177E+03  0.72823470516E+03  0.82030430911E+02 0.  0.
         25    2    1    2    0    0 -0.12451384416E+03 -0.22081503167E+03  0.52035281724E+03  0.59218356905E+03  0.12510535337E+03 0.  0.
        -24    2    1    2    0    0  0.69090021329E+02  0.28416323129E+02  0.12000816227E+04  0.12049463798E+04  0.78223772090E+02 0.  0.
        -13    1    3    3    0    0 -0.19131662334E+01  0.10425739776E+02 -0.44818830275E+01  0.11508411289E+02  0.00000000000E+00 0.  1.
         14    1    3    3    0    0  0.57336989063E+02  0.18197296877E+03 -0.69086531874E+03  0.71672629387E+03  0.00000000000E+00 0. -1.
         11    1    5    5    0    0  0.33458923248E+02  0.16953800633E+02  0.10348018612E+04  0.10354814449E+04  0.00000000000E+00 0. -1.
        -12    1    5    5    0    0  0.35631098081E+02  0.11462522496E+02  0.16527976156E+03  0.16946493488E+03  0.00000000000E+00 0.  1.
          5    1    4    4  501    0 -0.92643586209E+02 -0.19330118404E+03  0.50237687708E+03  0.54621257843E+03  0.41800000000E+01 0.  1.
         -5    1    4    4    0  501 -0.31870257949E+02 -0.27513847638E+02  0.17975940163E+02  0.45970990618E+02  0.41800000000E+01 0.  1.
</event>
<event>
11    1  0.7882745E-009  0.1304513E+03  0.7561462E-02  0.1118716E+00
         22   -1    0    0    0    0  0.00000000000E+00  0.00000000000E+00  0.68515955385E+03  0.68515955385E+03  0.00000000000E+00 0.  1.
         22   -1    0    0    0    0 -0.00000000000E+00 -0.00000000000E+00 -0.10453881659E+04  0.10453881659E+04  0.00000000000E+00 0.  1.
        -24    2    1    2    0    0 -0.36455964007E+02 -0.28237481036E+02 -0.92985566474E+03  0.93260667583E+03  0.54747254847E+02 0.  0.
         25    2    1    2    0    0  0.31196081688E+02 -0.93003216792E+01 -0.73455356113E+02  0.14866902659E+03  0.12508836328E+03 0.  0.
         24    2    1    2    0    0  0.52598823192E+01  0.37537802715E+02  0.64308240881E+03  0.64927201733E+03  0.81008733984E+02 0.  0.
        -13    1    5    5    0    0 -0.19050066735E+02  0.43621744165E+00  0.47663350853E+03  0.47701425218E+03  0.00000000000E+00 0.  1.
         14    1    5    5    0    0  0.24309949054E+02  0.37101585274E+02  0.16644890027E+03  0.17225776515E+03  0.00000000000E+00 0. -1.
         11    1    3    3    0    0 -0.54057510116E+01 -0.25837300509E+02 -0.16338772358E+03  0.16550630338E+03  0.00000000000E+00 0. -1.
        -12    1    3    3    0    0 -0.31050212996E+02 -0.24001805276E+01 -0.76646794116E+03  0.76710037245E+03  0.00000000000E+00 0.  1.
          5    1    4    4  501    0  0.57971140492E+02  0.41674349503E+02 -0.39931348204E+02  0.81910863174E+02  0.41800000000E+01 0.  1.
         -5    1    4    4    0  501 -0.26775058804E+02 -0.50974671182E+02 -0.33524007908E+02  0.66758163414E+02  0.41800000000E+01 0.  1.
</event>
<event>
11    1  0.7882745E-009  0.2032735E+03  0.7561462E-02  0.1052233E+00
         22   -1    0    0    0    0  0.00000000000E+00  0.00000000000E+00  0.39021779735E+03  0.39021779735E+03  0.00000000000E+00 0.  1.
         22   -1    0    0    0    0 -0.00000000000E+00 -0.00000000000E+00 -0.13757873760E+04  0.13757873760E+04  0.00000000000E+00 0. -1.
        -24    2    1    2    0    0  0.13386470000E+03 -0.66994480555E+02 -0.10241448300E+04  0.10378971305E+04  0.77134961926E+02 0.  0.
         25    2    1    2    0    0 -0.20890874482E+03  0.19136230998E+03 -0.24823226111E+03  0.39690097580E+03  0.12509489114E+03 0.  0.
         24    2    1    2    0    0  0.75044044825E+02 -0.12436782942E+03  0.28680751246E+03  0.33120706704E+03  0.79627924713E+02 0.  0.
        -11    1    5    5    0    0  0.52840004424E+02 -0.71914349313E+02  0.24443413283E+03  0.26021488235E+03  0.00000000000E+00 0.  1.
         12    1    5    5    0    0  0.22204040400E+02 -0.52453480112E+02  0.42373379639E+02  0.70992184696E+02  0.00000000000E+00 0. -1.
         11    1    3    3    0    0  0.90852385662E+02 -0.60633678124E+02 -0.89475124276E+03  0.90139357959E+03  0.00000000000E+00 0. -1.
        -12    1    3    3    0    0  0.43012314338E+02 -0.63608024308E+01 -0.12939358724E+03  0.13650355091E+03  0.00000000000E+00 0.  1.
          5    1    4    4  501    0 -0.38974172215E+02  0.10671736606E+03 -0.13220363605E+03  0.17436414798E+03  0.41800000000E+01 0. -1.
         -5    1    4    4    0  501 -0.16993457261E+03  0.84644943924E+02 -0.11602862506E+03  0.22253682781E+03  0.41800000000E+01 0. -1.
</event>
<event>
11    1  0.7882745E-009  0.1893202E+03  0.7561462E-02  0.1062344E+00
         22   -1    0    0    0    0  0.00000000000E+00  0.00000000000E+00  0.14654985976E+04  0.14654985976E+04  0.00000000000E+00 0.  1.
         22   -1    0    0    0    0 -0.00000000000E+00 -0.00000000000E+00 -0.24312105594E+03  0.24312105594E+03  0.00000000000E+00 0. -1.
         24    2    1    2    0    0  0.74865840365E+02 -0.87108859227E+02 -0.15810369477E+03  0.20844902925E+03  0.72535316122E+02 0.  0.
         25    2    1    2    0    0 -0.17840895897E+03  0.16869131092E+03  0.29463391240E+03  0.40341377462E+03  0.12508803376E+03 0.  0.
        -24    2    1    2    0    0  0.10354311861E+03 -0.81582451695E+02  0.10858473240E+04  0.10967568497E+04  0.80214103452E+02 0.  0.
        -11    1    3    3    0    0  0.42302338995E+02 -0.14104359595E+02 -0.19984020668E+02  0.48864935548E+02  0.00000000000E+00 0.  1.
         12    1    3    3    0    0  0.32563501371E+02 -0.73004499632E+02 -0.13811967410E+03  0.15958409370E+03  0.00000000000E+00 0. -1.
         11    1    5    5    0    0  0.30656759438E+02  0.77032485065E+00  0.95043933604E+02  0.99868812021E+02  0.00000000000E+00 0. -1.
        -12    1    5    5    0    0  0.72886359170E+02 -0.82352776546E+02  0.99080339044E+03  0.99688803768E+03  0.00000000000E+00 0.  1.
          5    1    4    4  501    0 -0.18843655897E+03  0.14477291504E+03  0.29274802019E+03  0.37707613211E+03  0.41800000000E+01 0.  1.
         -5    1    4    4    0  501  0.10027599993E+02  0.23918395885E+02  0.18858922122E+01  0.26337642506E+02  0.41800000000E+01 0.  1.
</event>
<event>
11    1  0.7882745E-009  0.1353070E+03  0.7561462E-02  0.1112915E+00
         22   -1    0    0    0    0  0.00000000000E+00  0.00000000000E+00  0.90159585819E+03  0.90159585819E+03  0.00000000000E+00 0.  1.
         22   -1    0    0    0    0 -0.00000000000E+00 -0.00000000000E+00 -0.10520839597E+04  0.10520839597E+04  0.00000000000E+00 0.  1.
        -24    2    1    2    0    0  0.70916506381E+01 -0.24001063808E+02 -0.94383689573E+03  0.94748035355E+03  0.79149175907E+02 0.  0.
         25    2    1    2    0    0  0.43538060107E+02  0.12555764176E+02 -0.60800327214E+02  0.14627857718E+03  0.12509009738E+03 0.  0.
         24    2    1    2    0    0 -0.50629710745E+02  0.11445299633E+02  0.85414912148E+03  0.85992088710E+03  0.84846024440E+02 0.  0.
        -11    1    5    5    0    0 -0.22675356545E+02  0.47395571490E+02  0.38540926917E+03  0.38897405666E+03  0.00000000000E+00 0.  1.
         12    1    5    5    0    0 -0.27954354200E+02 -0.35950271857E+02  0.46873985230E+03  0.47094683044E+03  0.00000000000E+00 0. -1.
         13    1    3    3    0    0 -0.91445078612E+01  0.27095193044E+02 -0.26846388230E+03  0.26998264317E+03  0.00000000000E+00 0. -1.
        -14    1    3    3    0    0  0.16236158499E+02 -0.51096256853E+02 -0.67537301343E+03  0.67749771038E+03  0.00000000000E+00 0.  1.
          5    1    4    4  501    0 -0.38081721110E+02 -0.21729714458E+02 -0.25398943897E+02  0.50842666376E+02  0.41800000000E+01 0. -1.
         -5    1    4    4    0  501  0.81619781217E+02  0.34285478634E+02 -0.35401383316E+02  0.95435910808E+02  0.41800000000E+01 0. -1.
</event>
<event>
11    1  0.7882745E-009  0.1567218E+03  0.7561462E-02  0.1090202E+00
         22   -1    0    0    0    0  0.00000000000E+00  0.00000000000E+00  0.10691268109E+04  0.10691268109E+04  0.00000000000E+00 0. -1.
         22   -1    0    0    0    0 -0.00000000000E+00 -0.00000000000E+00 -0.53924494113E+03  0.53924494113E+03  0.00000000000E+00 0. -1.
         24    2    1    2    0    0 -0.93059200909E+02 -0.93367876845E+01 -0.50626308574E+03  0.52102004525E+03  0.80077369421E+02 0.  0.
         25    2    1    2    0    0  0.14405505662E+03  0.37664142237E+02  0.41566319228E+03  0.45890486412E+03  0.12508931988E+03 0.  0.
        -24    2    1    2    0    0 -0.50995855711E+02 -0.28327354552E+02  0.62048176319E+03  0.62844684261E+03  0.80899933405E+02 0.  0.
        -11    1    3    3    0    0 -0.41216154289E+02  0.25477056191E+02 -0.33964353799E+03  0.34308247502E+03  0.00000000000E+00 0.  1.
         12    1    3    3    0    0 -0.51843046620E+02 -0.34813843876E+02 -0.16661954775E+03  0.17793757024E+03  0.00000000000E+00 0. -1.
         11    1    5    5    0    0 -0.49039719095E+02 -0.37441034055E+02  0.23849867650E+03  0.24635004317E+03  0.00000000000E+00 0. -1.
        -12    1    5    5    0    0 -0.19561366160E+01  0.91136795028E+01  0.38198308669E+03  0.38209679944E+03  0.00000000000E+00 0.  1.
          5    1    4    4  501    0 -0.18811804606E+02  0.14721461242E+02  0.24141411527E+02  0.34218205156E+02  0.41800000000E+01 0.  1.
         -5    1    4    4    0  501  0.16286686123E+03  0.22942680995E+02  0.39152178075E+03  0.42468665896E+03  0.41800000000E+01 0.  1.
</event>
<event>
11    1  0.7882745E-009  0.1708230E+03  0.7561462E-02  0.1077318E+00
         22   -1    0    0    0    0  0.00000000000E+00  0.00000000000E+00  0.13335910481E+04  0.13335910481E+04  0.00000000000E+00 0.  1.
         22   -1    0    0    0    0 -0.00000000000E+00 -0.00000000000E+00 -0.57542643468E+03  0.57542643468E+03  0.00000000000E+00 0. -1.
         24    2    1    2    0    0  0.11528579301E+03  0.16870494921E+02 -0.54662890910E+03  0.56456100001E+03  0.79690217751E+02 0.  0.
         25    2    1    2    0    0 -0.91184257223E+02 -0.97849792231E+02  0.55353481666E+03  0.58304132267E+03  0.12508892868E+03 0.  0.
        -24    2    1    2    0    0 -0.24101535786E+02  0.80979297309E+02  0.75125870589E+03  0.76141516013E+03  0.90691081607E+02 0.  0.
        -13    1    3    3    0    0  0.10106934599E+01  0.22589022836E+01  0.24761012109E+01  0.35007453497E+01  0.00000000000E+00 0.  1.
         14    1    3    3    0    0  0.11427509955E+03  0.14611592638E+02 -0.54910501031E+03  0.56106025466E+03  0.00000000000E+00 0. -1.
         13    1    5    5    0    0 -0.90309452899E+01  0.20043025963E+01  0.44043263397E+01  0.10245647478E+02  0.00000000000E+00 0. -1.
        -14    1    5    5    0    0 -0.15070590496E+02  0.78974994713E+02  0.74685437955E+03  0.75116951265E+03  0.00000000000E+00 0.  1.
          5    1    4    4  501    0 -0.11631149917E+03 -0.10487290079E+03  0.46924336848E+03  0.49470546937E+03  0.41800000000E+01 0. -1.
         -5    1    4    4    0  501  0.25127241949E+02  0.70231085622E+01  0.84291448181E+02  0.88335853300E+02  0.41800000000E+01 0. -1.
</event>
<event>
11    1  0.7882745E-009  0.1315371E+03  0.7561462E-02  0.1117395E+00
         22   -1    0    0    0    0  0.00000000000E+00  0.00000000000E+00  0.91519050045E+03  0.91519050045E+03  0.00000000000E+00 0.  1.
         22   -1    0    0    0    0 -0.00000000000E+00 -0.00000000000E+00 -0.39680638121E+03  0.39680638121E+03  0.00000000000E+00 0. -1.
         24    2    1    2    0    0 -0.36519961624E+02  0.16202735912E+02 -0.34164979997E+03  0.35344438956E+03  0.81253396491E+02 0.  0.
         25    2    1    2    0    0  0.55976020198E+02 -0.40382612848E+01  0.52902798090E+02  0.14695319084E+03  0.12508761674E+03 0.  0.
        -24    2    1    2    0    0 -0.19456058574E+02 -0.12164474627E+02  0.80713112113E+03  0.81159930126E+03  0.81891797264E+02 0.  0.
        -11    1    3    3    0    0 -0.37852660765E+01 -0.25437943904E+02 -0.42764604969E+02  0.49902191009E+02  0.00000000000E+00 0.  1.
         12    1    3    3    0    0 -0.32734695548E+02  0.41640679816E+02 -0.29888519500E+03  0.30354219855E+03  0.00000000000E+00 0. -1.
         13    1    5    5    0    0 -0.35999224765E+01 -0.46773833296E+02  0.42973373798E+03  0.43228675261E+03  0.00000000000E+00 0. -1.
        -14    1    5    5    0    0 -0.15856136097E+02  0.34609358669E+02  0.37739738314E+03  0.37931254865E+03  0.00000000000E+00 0.  1.
          5    1    4    4  501    0  0.95868104297E+02 -0.62323449643E+01  0.30101297589E+02  0.10076257272E+03  0.41800000000E+01 0.  1.
         -5    1    4    4    0  501 -0.39892084099E+02  0.21940836795E+01  0.22801500502E+02  0.46190618117E+02  0.41800000000E+01 0.  1.
</event>
<event>
11    1  0.7882745E-009  0.2045138E+03  0.7561462E-02  0.1051377E+00
         22   -1    0    0    0    0  0.00000000000E+00  0.00000000000E+00  0.16624477494E+04  0.16624477494E+04  0.00000000000E+00 0.  1.
         22   -1    0    0    0    0 -0.00000000000E+00 -0.00000000000E+00 -0.74875174976E+03  0.74875174976E+03  0.00000000000E+00 0.  1.
        -24    2    1    2    0    0  0.26821938522E+02  0.70646369157E+02 -0.69247338111E+03  0.70113909970E+03  0.79789270705E+02 0.  0.
         25    2    1    2    0    0  0.79359565383E+02  0.61858433052E+02  0.93462883636E+02  0.18576108723E+03  0.12508982594E+03 0.  0.
         24    2    1    2    0    0 -0.10618150391E+03 -0.13250480221E+03  0.15127064971E+04  0.15242993122E+04  0.79846180268E+02 0.  0.
        -13    1    5    5    0    0 -0.72033843533E+02 -0.98908231143E+02  0.13226865985E+04  0.13283341261E+04  0.00000000000E+00 0.  1.
         14    1    5    5    0    0 -0.34147660372E+02 -0.33596571066E+02  0.19001989865E+03  0.19596518614E+03  0.00000000000E+00 0. -1.
         11    1    3    3    0    0  0.34190577913E+02 -0.21626234626E+01 -0.15744914391E+03  0.16113319173E+03  0.00000000000E+00 0. -1.
        -12    1    3    3    0    0 -0.73686393916E+01  0.72808992620E+02 -0.53502423719E+03  0.54000590796E+03  0.00000000000E+00 0.  1.
          5    1    4    4  501    0  0.27569207962E+02  0.31405438166E+02 -0.27800516075E+02  0.50365701306E+02  0.41800000000E+01 0.  1.
         -5    1    4    4    0  501  0.51790357421E+02  0.30452994885E+02  0.12126339971E+03  0.13539538592E+03  0.41800000000E+01 0.  1.
</event>
<event>
11    1  0.7882745E-009  0.1450585E+03  0.7561462E-02  0.1102038E+00
         22   -1    0    0    0    0  0.00000000000E+00  0.00000000000E+00  0.99566409519E+03  0.99566409519E+03  0.00000000000E+00 0. -1.
         22   -1    0    0    0    0 -0.00000000000E+00 -0.00000000000E+00 -0.78701997690E+03  0.78701997690E+03  0.00000000000E+00 0.  1.
        -24    2    1    2    0    0 -0.81195213738E+00  0.45667812794E+02 -0.34155027739E+03  0.35555337153E+03  0.87609358088E+02 0.  0.
         25    2    1    2    0    0 -0.60089592540E+02 -0.86389014931E+02 -0.42005456550E+03  0.45074266962E+03  0.12509714299E+03 0.  0.
         24    2    1    2    0    0  0.60901544677E+02  0.40721202137E+02  0.97024896119E+03  0.97638803094E+03  0.81137696750E+02 0.  0.
        -11    1    5    5    0    0 -0.13350355337E+02  0.31838657015E+02  0.29953808870E+03  0.30152114130E+03  0.00000000000E+00 0.  1.
         12    1    5    5    0    0  0.74251900014E+02  0.88825451214E+01  0.67071087249E+03  0.67486688964E+03  0.00000000000E+00 0. -1.
         13    1    3    3    0    0 -0.25936464989E+02 -0.16274161560E+02 -0.81883046357E+02  0.87420717403E+02  0.00000000000E+00 0. -1.
        -14    1    3    3    0    0  0.25124512852E+02  0.61941974354E+02 -0.25966723104E+03  0.26813265412E+03  0.00000000000E+00 0.  1.
          5    1    4    4  501    0 -0.12529564699E+02  0.42725241842E+01  0.40299494297E+01  0.14455357029E+02  0.41800000000E+01 0. -1.
         -5    1    4    4    0  501 -0.47560027841E+02 -0.90661539115E+02 -0.42408451493E+03  0.43628731259E+03  0.41800000000E+01 0. -1.
</event>
<event>
11    1  0.7882745E-009  0.1606859E+03  0.7561462E-02  0.1086434E+00
         22   -1    0    0    0    0  0.00000000000E+00  0.00000000000E+00  0.58802528487E+03  0.58802528487E+03  0.00000000000E+00 0. -1.
         22   -1    0    0    0    0 -0.00000000000E+00 -0.00000000000E+00 -0.43300255639E+03  0.43300255639E+03  0.00000000000E+00 0. -1.
         24    2    1    2    0    0  0.11940431375E+02  0.99497441689E+02 -0.35953587120E+03  0.38205542841E+03  0.81596525020E+02 0.  0.
         25    2    1    2    0    0  0.57415327370E+02 -0.11499289360E+03  0.89019696398E+02  0.20023132868E+03  0.12509273857E+03 0.  0.
        -24    2    1    2    0    0 -0.69355758746E+02  0.15495451911E+02  0.42553890329E+03  0.43874108416E+03  0.79749924249E+02 0.  0.
        -13    1    3    3    0    0  0.42097871187E+02  0.57460558402E+02 -0.14750080542E+03  0.16379998208E+03  0.00000000000E+00 0.  1.
         14    1    3    3    0    0 -0.30157439812E+02  0.42036883287E+02 -0.21203506578E+03  0.21825544633E+03  0.00000000000E+00 0. -1.
         11    1    5    5    0    0 -0.74202676373E+01  0.39008336557E+02  0.18728880089E+03  0.19145183633E+03  0.00000000000E+00 0. -1.
        -12    1    5    5    0    0 -0.61935491108E+02 -0.23512884646E+02  0.23825010240E+03  0.24728924784E+03  0.00000000000E+00 0.  1.
          5    1    4    4  501    0 -0.21663272043E+02 -0.72554663501E+01  0.58699389016E+02  0.63127092587E+02  0.41800000000E+01 0. -1.
         -5    1    4    4    0  501  0.79078599414E+02 -0.10773742725E+03  0.30320307382E+02  0.13710423610E+03  0.41800000000E+01 0. -1.
</event>
<event>
11    1  0.7882745E-009  0.1335552E+03  0.7561462E-02  0.1114976E+00
         22   -1    0    0    0    0  0.00000000000E+00  0.00000000000E+00  0.19890563460E+04  0.19890563460E+04  0.00000000000E+00 0.  1.
         22   -1    0    0    0    0 -0.00000000000E+00 -0.00000000000E+00 -0.22798320756E+03  0.22798320756E+03  0.00000000000E+00 0. -1.
         24    2    1    2    0    0  0.39799172453E+02  0.22414365892E+02 -0.19232615243E+03  0.22688450197E+03  0.11135910559E+03 0.  0.
         25    2    1    2    0    0 -0.63166313917E+02 -0.20628861595E+02  0.27224692378E+03  0.30689178598E+03  0.12509455484E+03 0.  0.
        -24    2    1    2    0    0  0.23367141464E+02 -0.17855042967E+01  0.16811523671E+04  0.16832632656E+04  0.80948926412E+02 0.  0.
        -13    1    3    3    0    0  0.72481373343E+02  0.27955459364E+02 -0.87831143138E+02  0.11725769439E+03  0.00000000000E+00 0.  1.
         14    1    3    3    0    0 -0.32682200890E+02 -0.55410934718E+01 -0.10449500929E+03  0.10962680757E+03  0.00000000000E+00 0. -1.
         13    1    5    5    0    0 -0.12426745069E+02 -0.21638256412E+02  0.20070406583E+03  0.20224925259E+03  0.00000000000E+00 0. -1.
        -14    1    5    5    0    0  0.35793886533E+02  0.19852752115E+02  0.14804483013E+04  0.14810140130E+04  0.00000000000E+00 0.  1.
          5    1    4    4  501    0 -0.75289776519E+02 -0.60663599042E+02  0.15952355276E+03  0.18658472333E+03  0.41800000000E+01 0. -1.
         -5    1    4    4    0  501  0.12123462603E+02  0.40034737446E+02  0.11272337103E+03  0.12030706265E+03  0.41800000000E+01 0. -1.
</event>
<event>
11    1  0.7882745E-009  0.1612459E+03  0.7561462E-02  0.1085911E+00
         22   -1    0    0    0    0  0.00000000000E+00  0.00000000000E+00  0.11281891987E+04  0.11281891987E+04  0.00000000000E+00 0.  1.
         22   -1    0    0    0    0 -0.00000000000E+00 -0.00000000000E+00 -0.24207457975E+03  0.24207457975E+03  0.00000000000E+00 0.  1.
        -24    2    1    2    0    0 -0.23891964807E+02  0.10140284530E+03 -0.17172717065E+03  0.21609275155E+03  0.79702528922E+02 0.  0.
         25    2    1    2    0    0  0.58971841774E+02 -0.74399892962E+02  0.88028144232E+02  0.18002493092E+03  0.12508796658E+03 0.  0.
         24    2    1    2    0    0 -0.35079876967E+02 -0.27002952336E+02  0.96981364534E+03  0.97414609594E+03  0.80388757567E+02 0.  0.
        -11    1    5    5    0    0 -0.51782054242E+02  0.83805762538E+01  0.52429338857E+03  0.52691097208E+03  0.00000000000E+00 0.  1.
         12    1    5    5    0    0  0.16702177275E+02 -0.35383528589E+02  0.44552025677E+03  0.44723512386E+03  0.00000000000E+00 0. -1.
         13    1    3    3    0    0 -0.27798204206E+02  0.30666068493E+02 -0.14872121314E+02  0.43980994830E+02  0.00000000000E+00 0. -1.
        -14    1    3    3    0    0  0.39062393989E+01  0.70736776805E+02 -0.15685504934E+03  0.17211175672E+03  0.00000000000E+00 0.  1.
          5    1    4    4  501    0  0.98014019615E+02 -0.45089573206E+02  0.62982961790E+02  0.12499657407E+03  0.41800000000E+01 0.  1.
         -5    1    4    4    0  501 -0.39042177841E+02 -0.29310319757E+02  0.25045182442E+02  0.55028356857E+02  0.41800000000E+01 0.  1.
</event>
<event>
11    1  0.7882745E-009  0.1596594E+03  0.7561462E-02  0.1087398E+00
         22   -1    0    0    0    0  0.00000000000E+00  0.00000000000E+00  0.49063657882E+03  0.49063657882E+03  0.00000000000E+00 0.  1.
         22   -1    0    0    0    0 -0.00000000000E+00 -0.00000000000E+00 -0.67909595746E+03  0.67909595746E+03  0.00000000000E+00 0. -1.
         24    2    1    2    0    0 -0.91348324551E+02 -0.35737682976E+02 -0.60649515569E+03  0.61930452650E+03  0.77974510491E+02 0.  0.
         25    2    1    2    0    0  0.13077533496E+03  0.27911904894E+01  0.77659629380E+02  0.19694945930E+03  0.12509233592E+03 0.  0.
        -24    2    1    2    0    0 -0.39427010404E+02  0.32946492487E+02  0.34037614768E+03  0.35347855048E+03  0.80319382623E+02 0.  0.
        -13    1    3    3    0    0 -0.45042441644E+02 -0.55771774832E+02 -0.28519938954E+03  0.29407142705E+03  0.00000000000E+00 0.  1.
         14    1    3    3    0    0 -0.46305882906E+02  0.20034091855E+02 -0.32129576615E+03  0.32523309945E+03  0.00000000000E+00 0. -1.
         13    1    5    5    0    0  0.11583999507E+02  0.19990185076E+02  0.26231004411E+02  0.34955144633E+02  0.00000000000E+00 0. -1.
        -14    1    5    5    0    0 -0.51011009911E+02  0.12956307411E+02  0.31414514327E+03  0.31852340585E+03  0.00000000000E+00 0.  1.
          5    1    4    4  501    0  0.94178051799E+02 -0.54805467787E+02  0.28394167903E+02  0.11268028182E+03  0.41800000000E+01 0. -1.
         -5    1    4    4    0  501  0.36597283156E+02  0.57596658276E+02  0.49265461477E+02  0.84269177482E+02  0.41800000000E+01 0. -1.
</event>
<event>
11    1  0.7882745E-009  0.1382686E+03  0.7561462E-02  0.1109507E+00
         22   -1    0    0    0    0  0.00000000000E+00  0.00000000000E+00  0.17295500916E+03  0.17295500916E+03  0.00000000000E+00 0. -1.
         22   -1    0    0    0    0 -0.00000000000E+00 -0.00000000000E+00 -0.91074305250E+03  0.91074305250E+03  0.00000000000E+00 0. -1.
        -24    2    1    2    0    0  0.58721970461E+02  0.13057119464E+02 -0.72682887184E+03  0.73381284209E+03  0.81131498786E+02 0.  0.
         25    2    1    2    0    0 -0.44956289138E+02 -0.24102307581E+02 -0.14209362892E+03  0.19606158695E+03  0.12509019679E+03 0.  0.
         24    2    1    2    0    0 -0.13765681323E+02  0.11045188117E+02  0.13113445743E+03  0.15382363261E+03  0.78447268031E+02 0.  0.
        -11    1    5    5    0    0  0.19598860050E+02  0.30721767900E+02  0.36537705423E+02  0.51603742652E+02  0.00000000000E+00 0.  1.
         12    1    5    5    0    0 -0.33364541372E+02 -0.19676579783E+02  0.94596752007E+02  0.10221988996E+03  0.00000000000E+00 0. -1.
         13    1    3    3    0    0  0.67995780071E+02  0.14008840805E+02 -0.71667013768E+03  0.72002483288E+03  0.00000000000E+00 0. -1.
        -14    1    3    3    0    0 -0.92738096102E+01 -0.95172134062E+00 -0.10158734164E+02  0.13788009211E+02  0.00000000000E+00 0.  1.
          5    1    4    4  501    0 -0.66156452820E+02 -0.62450941959E+02 -0.96054450427E+02  0.13236588023E+03  0.41800000000E+01 0.  1.
         -5    1    4    4    0  501  0.21200163682E+02  0.38348634377E+02 -0.46039178498E+02  0.63695706727E+02  0.41800000000E+01 0.  1.
</event>
<event>
11    1  0.7882745E-009  0.1356759E+03  0.7561462E-02  0.1112485E+00
         22   -1    0    0    0    0  0.00000000000E+00  0.00000000000E+00  0.21019986303E+04  0.21019986303E+04  0.00000000000E+00 0.  1.
         22   -1    0    0    0    0 -0.00000000000E+00 -0.00000000000E+00 -0.30333117162E+03  0.30333117162E+03  0.00000000000E+00 0. -1.
        -24    2    1    2    0    0  0.53468571437E+01  0.52093805921E+02 -0.28800935349E+03  0.30410086066E+03  0.82374706422E+02 0.  0.
         25    2    1    2    0    0  0.15706947798E+02 -0.75250280184E+02  0.93452287808E+03  0.94598588397E+03  0.12508784965E+03 0.  0.
         24    2    1    2    0    0 -0.21053804942E+02  0.23156474263E+02  0.11521539341E+04  0.11552430573E+04  0.78411405812E+02 0.  0.
        -11    1    5    5    0    0  0.77031444902E+01  0.35610154718E+02  0.94782292388E+03  0.94852291305E+03  0.00000000000E+00 0.  1.
         12    1    5    5    0    0 -0.28756949432E+02 -0.12453680454E+02  0.20433101019E+03  0.20672014421E+03  0.00000000000E+00 0. -1.
         13    1    3    3    0    0  0.58458525956E+01  0.54397814889E+02 -0.29327342240E+03  0.29833302959E+03  0.00000000000E+00 0. -1.
        -14    1    3    3    0    0 -0.49899545194E+00 -0.23040089679E+01  0.52640689083E+01  0.57678310704E+01  0.00000000000E+00 0.  1.
          5    1    4    4  501    0  0.30054176953E+02 -0.10028869049E+02  0.73196992095E+03  0.73266722961E+03  0.41800000000E+01 0.  1.
         -5    1    4    4    0  501 -0.14347229155E+02 -0.65221411135E+02  0.20255295713E+03  0.21331865436E+03  0.41800000000E+01 0.  1.
</event>
<event>
11    1  0.7882745E-009  0.3242516E+03  0.7561462E-02  0.9904195E-01
         22   -1    0    0    0    0  0.00000000000E+00  0.00000000000E+00  0.13727500984E+04  0.13727500984E+04  0.00000000000E+00 0.  1.
         22   -1    0    0    0    0 -0.00000000000E+00 -0.00000000000E+00 -0.10872848810E+03  0.10872848810E+03  0.00000000000E+00 0. -1.
         24    2    1    2    0    0 -0.31431589112E+03  0.69570089772E+02  0.40140149810E+03  0.52103847796E+03  0.81996683065E+02 0.  0.
         25    2    1    2    0    0  0.24772604258E+03 -0.11811813491E+03  0.54797303899E+03  0.62548717894E+03  0.12505868060E+03 0.  0.
        -24    2    1    2    0    0  0.66589848546E+02  0.48548045137E+02  0.31464707318E+03  0.33495292956E+03  0.79997273377E+02 0.  0.
        -13    1    3    3    0    0 -0.88334760668E+02 -0.45595336880E+01  0.15579748962E+03  0.17915545501E+03  0.00000000000E+00 0.  1.
         14    1    3    3    0    0 -0.22598113046E+03  0.74129623460E+02  0.24560400848E+03  0.34188302295E+03  0.00000000000E+00 0. -1.
         13    1    5    5    0    0  0.28804416654E+02  0.30888230068E+02  0.43549893312E+02  0.60666056267E+02  0.00000000000E+00 0. -1.
        -14    1    5    5    0    0  0.37785431893E+02  0.17659815069E+02  0.27109717986E+03  0.27428687330E+03  0.00000000000E+00 0.  1.
          5    1    4    4  501    0 -0.86591601339E+01  0.39835152081E+01  0.59896508574E+02  0.60794025916E+02  0.41800000000E+01 0. -1.
         -5    1    4    4    0  501  0.25638520271E+03 -0.12210165012E+03  0.48807653041E+03  0.56469315302E+03  0.41800000000E+01 0. -1.
</event>
<event>
11    1  0.7882745E-009  0.1473582E+03  0.7561462E-02  0.1099609E+00
         22   -1    0    0    0    0  0.00000000000E+00  0.00000000000E+00  0.45587035892E+03  0.45587035892E+03  0.00000000000E+00 0. -1.
         22   -1    0    0    0    0 -0.00000000000E+00 -0.00000000000E+00 -0.26508427350E+03  0.26508427350E+03  0.00000000000E+00 0.  1.
        -24    2    1    2    0    0 -0.21010677194E+02  0.42523004710E+02 -0.15693115998E+03  0.18385618912E+03  0.83222922446E+02 0.  0.
         25    2    1    2    0    0  0.94187616290E+01 -0.11599162985E+03 -0.15276464161E+01  0.17085780646E+03  0.12508910847E+03 0.  0.
         24    2    1    2    0    0  0.11591915565E+02  0.73468625145E+02  0.34924489182E+03  0.36624063685E+03  0.81413747180E+02 0.  0.
        -13    1    5    5    0    0 -0.23318344257E+02  0.16455888019E+02  0.35995550091E+02  0.45937142442E+02  0.00000000000E+00 0.  1.
         14    1    5    5    0    0  0.34910259823E+02  0.57012737126E+02  0.31324934173E+03  0.32030349440E+03  0.00000000000E+00 0. -1.
         13    1    3    3    0    0  0.65395337168E+01  0.61538502340E+02 -0.93328270852E+02  0.11198177937E+03  0.00000000000E+00 0. -1.
        -14    1    3    3    0    0 -0.27550210911E+02 -0.19015497631E+02 -0.63602889124E+02  0.71874409746E+02  0.00000000000E+00 0.  1.
          5    1    4    4  501    0 -0.51901812524E+02 -0.86420001023E+02 -0.12878255030E+02  0.10171301083E+03  0.41800000000E+01 0.  1.
         -5    1    4    4    0  501  0.61320574153E+02 -0.29571628832E+02  0.11350608614E+02  0.69144795625E+02  0.41800000000E+01 0.  1.
</event>
<event>
11    1  0.7882745E-009  0.1309058E+03  0.7561462E-02  0.1118161E+00
         22   -1    0    0    0    0  0.00000000000E+00  0.00000000000E+00  0.28508833211E+04  0.28508833211E+04  0.00000000000E+00 0. -1.
         22   -1    0    0    0    0 -0.00000000000E+00 -0.00000000000E+00 -0.82518488160E+02  0.82518488160E+02  0.00000000000E+00 0. -1.
         24    2    1    2    0    0  0.26025056288E+01 -0.17044445736E+02  0.43857995564E+01  0.84669225302E+02  0.82778960549E+02 0.  0.
         25    2    1    2    0    0  0.56890097358E+01 -0.20928046134E+02  0.55169296080E+02  0.13843095660E+03  0.12509648503E+03 0.  0.
        -24    2    1    2    0    0 -0.82915153646E+01  0.37972491870E+02  0.27088097373E+04  0.27103016274E+04  0.81080571054E+02 0.  0.
        -11    1    3    3    0    0 -0.20804808596E+02 -0.43846754380E+02 -0.17290566218E+01  0.48563026750E+02  0.00000000000E+00 0.  1.
         12    1    3    3    0    0  0.23407314224E+02  0.26802308643E+02  0.61148561782E+01  0.36106198552E+02  0.00000000000E+00 0. -1.
         11    1    5    5    0    0 -0.37863048555E+01  0.34583081830E+02  0.26969050981E+04  0.26971294804E+04  0.00000000000E+00 0. -1.
        -12    1    5    5    0    0 -0.45052105091E+01  0.33894100404E+01  0.11904639208E+02  0.13172147009E+02  0.00000000000E+00 0.  1.
          5    1    4    4  501    0 -0.31561834879E+02  0.19386407392E+02 -0.22268577985E+02  0.43420550180E+02  0.41800000000E+01 0. -1.
         -5    1    4    4    0  501  0.37250844614E+02 -0.40314453526E+02  0.77437874065E+02  0.95010406416E+02  0.41800000000E+01 0. -1.
</event>
<event>
11    1  0.7882745E-009  0.1453381E+03  0.7561462E-02  0.1101740E+00
         22   -1    0    0    0    0  0.00000000000E+00  0.00000000000E+00  0.55065039661E+02  0.55065039661E+02  0.00000000000E+00 0.  1.
         22   -1    0    0    0    0 -0.00000000000E+00 -0.00000000000E+00 -0.14112356389E+04  0.14112356389E+04  0.00000000000E+00 0.  1.
        -24    2    1    2    0    0  0.24625625577E+02 -0.70083268383E+02 -0.12000229080E+04  0.12052190813E+04  0.83546204240E+02 0.  0.
         25    2    1    2    0    0 -0.31880317614E+02  0.62941252610E+02 -0.12724766143E+03  0.19189141038E+03  0.12510951245E+03 0.  0.
         24    2    1    2    0    0  0.72546920376E+01  0.71420157736E+01 -0.28900029754E+02  0.69190186841E+02  0.62035725912E+02 0.  0.
        -11    1    5    5    0    0  0.24902967044E+02 -0.20485758061E+00  0.92116838279E+01  0.26552869020E+02  0.00000000000E+00 0.  1.
         12    1    5    5    0    0 -0.17648275007E+02  0.73468733542E+01 -0.38111713582E+02  0.42637317821E+02  0.00000000000E+00 0. -1.
         13    1    3    3    0    0  0.26876295877E+02  0.12100438599E+02 -0.29414006129E+03  0.29561314509E+03  0.00000000000E+00 0. -1.
        -14    1    3    3    0    0 -0.22506703002E+01 -0.82183706982E+02 -0.90588284673E+03  0.90960593622E+03  0.00000000000E+00 0.  1.
          5    1    4    4  501    0 -0.44075598350E+02  0.49355729814E+02 -0.14906043014E+03  0.16314144375E+03  0.41800000000E+01 0.  1.
         -5    1    4    4    0  501  0.12195280735E+02  0.13585522796E+02  0.21812768712E+02  0.28749966621E+02  0.41800000000E+01 0.  1.
</event>
<event>
11    1  0.7882745E-009  0.4612783E+03  0.7561462E-02  0.9484468E-01
         22   -1    0    0    0    0  0.00000000000E+00  0.00000000000E+00  0.10127172257E+04  0.10127172257E+04  0.00000000000E+00 0.  1.
         22   -1    0    0    0    0 -0.00000000000E+00 -0.00000000000E+00 -0.56494564098E+03  0.56494564098E+03  0.00000000000E+00 0.  1.
        -24    2    1    2    0    0 -0.68173176956E+02  0.21738610033E+03 -0.20369334969E+03  0.31648244144E+03  0.82254825747E+02 0.  0.
         25    2    1    2    0    0 -0.34685384789E+03 -0.36012463876E+03  0.59526337404E+02  0.51883374061E+03  0.12509084025E+03 0.  0.
         24    2    1    2    0    0  0.41502702484E+03  0.14273853843E+03  0.59193859696E+03  0.74234668459E+03  0.89808551056E+02 0.  0.
        -11    1    5    5    0    0  0.40531594538E+03  0.14443500163E+03  0.59274661046E+03  0.73245547953E+03  0.00000000000E+00 0.  1.
         12    1    5    5    0    0  0.97110794630E+01 -0.16964631996E+01 -0.80801350137E+00  0.98912050602E+01  0.00000000000E+00 0. -1.
         13    1    3    3    0    0 -0.79995422142E+02  0.12541199869E+03 -0.13731907510E+03  0.20244496873E+03  0.00000000000E+00 0. -1.
        -14    1    3    3    0    0  0.11822245186E+02  0.91974101644E+02 -0.66374274589E+02  0.11403747271E+03  0.00000000000E+00 0.  1.
          5    1    4    4  501    0 -0.31573136782E+03 -0.32541299919E+03  0.90944919748E+02  0.46245904413E+03  0.41800000000E+01 0.  1.
         -5    1    4    4    0  501 -0.31122480071E+02 -0.34711639570E+02 -0.31418582344E+02  0.56374696486E+02  0.41800000000E+01 0.  1.
</event>
<event>
11    1  0.7882745E-009  0.1294964E+03  0.7561462E-02  0.1119889E+00
         22   -1    0    0    0    0  0.00000000000E+00  0.00000000000E+00  0.81003848659E+03  0.81003848659E+03  0.00000000000E+00 0.  1.
         22   -1    0    0    0    0 -0.00000000000E+00 -0.00000000000E+00 -0.74752416180E+02  0.74752416180E+02  0.00000000000E+00 0. -1.
         24    2    1    2    0    0  0.50101291651E+02  0.30966904376E+02 -0.19845879860E+01  0.99372531837E+02  0.80011704785E+02 0.  0.
         25    2    1    2    0    0 -0.70672251379E+02 -0.20163431744E+02  0.27580730236E+03  0.31163588105E+03  0.12508446439E+03 0.  0.
        -24    2    1    2    0    0  0.20570959728E+02 -0.10803472632E+02  0.46146335604E+03  0.47378248988E+03  0.10479284015E+03 0.  0.
        -13    1    3    3    0    0  0.43405122852E+02  0.34134705528E+02  0.32518611736E+02  0.64083093874E+02  0.00000000000E+00 0.  1.
         14    1    3    3    0    0  0.66961687991E+01 -0.31678011517E+01 -0.34503199722E+02  0.35289437963E+02  0.00000000000E+00 0. -1.
         13    1    5    5    0    0 -0.51681813989E+01 -0.21530060049E+02  0.15688578903E+02  0.27136416357E+02  0.00000000000E+00 0. -1.
        -14    1    5    5    0    0  0.25739141127E+02  0.10726587417E+02  0.44577477713E+03  0.44664607352E+03  0.00000000000E+00 0.  1.
          5    1    4    4  501    0 -0.67921007454E+02 -0.11998303345E+01  0.48714035456E+02  0.83697266961E+02  0.41800000000E+01 0.  1.
         -5    1    4    4    0  501 -0.27512439252E+01 -0.18963601410E+02  0.22709326690E+03  0.22793861409E+03  0.41800000000E+01 0.  1.
</event>
<event>
11    1  0.7882745E-009  0.1351103E+03  0.7561462E-02  0.1113145E+00
         22   -1    0    0    0    0  0.00000000000E+00  0.00000000000E+00  0.31900130014E+03  0.31900130014E+03  0.00000000000E+00 0.  1.
         22   -1    0    0    0    0 -0.00000000000E+00 -0.00000000000E+00 -0.47963791051E+03  0.47963791051E+03  0.00000000000E+00 0. -1.
         24    2    1    2    0    0  0.18562425655E+02 -0.13236306311E+02 -0.43066475547E+03  0.43884516105E+03  0.81198400971E+02 0.  0.
         25    2    1    2    0    0  0.17012899830E+02 -0.31765339814E+02  0.10095127159E+03  0.16473389870E+03  0.12509045756E+03 0.  0.
        -24    2    1    2    0    0 -0.35575325484E+02  0.45001646125E+02  0.16907687351E+03  0.19506015089E+03  0.78553939263E+02 0.  0.
        -13    1    3    3    0    0  0.23094968650E+02 -0.45881651407E+02 -0.26614192934E+03  0.27105355572E+03  0.00000000000E+00 0.  1.
         14    1    3    3    0    0 -0.45325429955E+01  0.32645345097E+02 -0.16452282613E+03  0.16779160533E+03  0.00000000000E+00 0. -1.
         13    1    5    5    0    0  0.15740518304E+02  0.29514376586E+02  0.26292163297E+02  0.42545742356E+02  0.00000000000E+00 0. -1.
        -14    1    5    5    0    0 -0.51315843788E+02  0.15487269538E+02  0.14278471021E+03  0.15251440854E+03  0.00000000000E+00 0.  1.
          5    1    4    4  501    0 -0.40129726719E+02 -0.53123916117E+02  0.37120621094E+02  0.76341065886E+02  0.41800000000E+01 0. -1.
         -5    1    4    4    0  501  0.57142626549E+02  0.21358576303E+02  0.63830650499E+02  0.88392832819E+02  0.41800000000E+01 0. -1.
</event>
<event>
11    1  0.7882745E-009  0.1362556E+03  0.7561462E-02  0.1111813E+00
         22   -1    0    0    0    0  0.00000000000E+00  0.00000000000E+00  0.14002868770E+03  0.14002868770E+03  0.00000000000E+00 0.  1.
         22   -1    0    0    0    0 -0.00000000000E+00 -0.00000000000E+00 -0.12743841774E+04  0.12743841774E+04  0.00000000000E+00 0. -1.
        -24    2    1    2    0    0  0.30522474147E+02  0.17915903287E+02 -0.52467342203E+03  0.53133300811E+03  0.76026079126E+02 0.  0.
         25    2    1    2    0    0 -0.15172524980E+02  0.34518406163E+02 -0.72239896368E+03  0.73411867452E+03  0.12509292415E+03 0.  0.
         24    2    1    2    0    0 -0.15349949167E+02 -0.52434309449E+02  0.11271689603E+03  0.14896118245E+03  0.80618592644E+02 0.  0.
        -13    1    5    5    0    0 -0.30760828937E+02 -0.53538220171E+02  0.11754354320E+03  0.13277444846E+03  0.00000000000E+00 0.  1.
         14    1    5    5    0    0  0.15410879770E+02  0.11039107217E+01 -0.48266471771E+01  0.16186733986E+02  0.00000000000E+00 0. -1.
         11    1    3    3    0    0  0.49423346797E+02  0.31048869521E+02 -0.42778621590E+03  0.43174963350E+03  0.00000000000E+00 0. -1.
        -12    1    3    3    0    0 -0.18900872650E+02 -0.13132966235E+02 -0.96887206123E+02  0.99583374613E+02  0.00000000000E+00 0.  1.
          5    1    4    4  501    0  0.54325782625E+02  0.14322877674E+02 -0.37775558872E+03  0.38193349249E+03  0.41800000000E+01 0. -1.
         -5    1    4    4    0  501 -0.69498307605E+02  0.20195528489E+02 -0.34464337496E+03  0.35218518202E+03  0.41800000000E+01 0. -1.
</event>
<event>
11    1  0.7882745E-009  0.1317516E+03  0.7561462E-02  0.1117135E+00
         22   -1    0    0    0    0  0.00000000000E+00  0.00000000000E+00  0.22724201588E+03  0.22724201588E+03  0.00000000000E+00 0. -1.
         22   -1    0    0    0    0 -0.00000000000E+00 -0.00000000000E+00 -0.28594021951E+03  0.28594021951E+03  0.00000000000E+00 0. -1.
         24    2    1    2    0    0 -0.41074642726E+02  0.70372091422E+01 -0.23148859226E+03  0.24895613276E+03  0.81581487514E+02 0.  0.
         25    2    1    2    0    0  0.35665818093E+02 -0.85513616453E+01  0.10319861722E+03  0.16626066280E+03  0.12508987582E+03 0.  0.
        -24    2    1    2    0    0  0.54088246330E+01  0.15141525031E+01  0.69591771420E+02  0.97965439826E+02  0.68721646583E+02 0.  0.
        -11    1    3    3    0    0 -0.48830005260E+02  0.33327865517E+02 -0.11524186912E+03  0.12952144391E+03  0.00000000000E+00 0.  1.
         12    1    3    3    0    0  0.77553625335E+01 -0.26290656375E+02 -0.11624672314E+03  0.11943468886E+03  0.00000000000E+00 0. -1.
         13    1    5    5    0    0 -0.31497081540E+02 -0.25321368349E+01  0.28073585395E+02  0.42268239370E+02  0.00000000000E+00 0. -1.
        -14    1    5    5    0    0  0.36905906173E+02  0.40462893380E+01  0.41518186025E+02  0.55697200456E+02  0.00000000000E+00 0.  1.
          5    1    4    4  501    0  0.16353721430E+02 -0.12811396391E+02 -0.27101174100E+02  0.34402356310E+02  0.41800000000E+01 0.  1.
         -5    1    4    4    0  501  0.19312096663E+02  0.42600347460E+01  0.13029979132E+03  0.13185830649E+03  0.41800000000E+01 0.  1.
</event>
<event>
11    1  0.7882745E-009  0.1633479E+03  0.7561462E-02  0.1083970E+00
         22   -1    0    0    0    0  0.00000000000E+00  0.00000000000E+00  0.37828861227E+04  0.37828861227E+04  0.00000000000E+00 0. -1.
         22   -1    0    0    0    0 -0.00000000000E+00 -0.00000000000E+00 -0.41121524887E+02  0.41121524887E+02  0.00000000000E+00 0. -1.
         24    2    1    2    0    0  0.33523596875E+02  0.51224914474E+02  0.62020873013E+02  0.12273142188E+03  0.86421003333E+02 0.  0.
         25    2    1    2    0    0  0.76001188818E+02 -0.52044550051E+02  0.64461178706E+03  0.66306601745E+03  0.12508945431E+03 0.  0.
        -24    2    1    2    0    0 -0.10952478569E+03  0.81963557750E+00  0.30351319378E+04  0.30382102083E+04  0.81847661086E+02 0.  0.
        -13    1    3    3    0    0  0.49456501957E+02  0.53281456843E+02  0.73195403178E+02  0.10316213586E+03  0.00000000000E+00 0.  1.
         14    1    3    3    0    0 -0.15932905082E+02 -0.20565423694E+01 -0.11174530165E+02  0.19569286018E+02  0.00000000000E+00 0. -1.
         11    1    5    5    0    0 -0.10457865098E+03 -0.25932070670E+02  0.25972856249E+04  0.25995195294E+04  0.00000000000E+00 0. -1.
        -12    1    5    5    0    0 -0.49461347112E+01  0.26751706248E+02  0.43784631289E+03  0.43869067889E+03  0.00000000000E+00 0.  1.
          5    1    4    4  501    0  0.33665069852E+02 -0.57622716249E+01  0.53945608018E+03  0.54055238002E+03  0.41800000000E+01 0.  1.
         -5    1    4    4    0  501  0.42336118967E+02 -0.46282278426E+02  0.10515570689E+03  0.12251363743E+03  0.41800000000E+01 0.  1.
</event>
<event>
11    1  0.7882745E-009  0.1396571E+03  0.7561462E-02  0.1107942E+00
         22   -1    0    0    0    0  0.00000000000E+00  0.00000000000E+00  0.15127962116E+04  0.15127962116E+04  0.00000000000E+00 0. -1.
         22   -1    0    0    0    0 -0.00000000000E+00 -0.00000000000E+00 -0.10056088280E+03  0.10056088280E+03  0.00000000000E+00 0.  1.
         24    2    1    2    0    0 -0.61145918445E+02 -0.17768613451E+02 -0.42066477551E+02  0.11200777622E+03  0.81985403784E+02 0.  0.
         25    2    1    2    0    0  0.31131550665E+02  0.65517041156E+02  0.22194252778E+03  0.26489137672E+03  0.12508916699E+03 0.  0.
        -24    2    1    2    0    0  0.30014367780E+02 -0.47748427705E+02  0.12323592786E+04  0.12364579415E+04  0.83295107225E+02 0.  0.
        -13    1    3    3    0    0  0.29844800268E+01  0.15303415069E+02 -0.36436861800E+02  0.39632644772E+02  0.00000000000E+00 0.  1.
         14    1    3    3    0    0 -0.64130398472E+02 -0.33072028520E+02 -0.56296157511E+01  0.72375131448E+02  0.00000000000E+00 0. -1.
         11    1    5    5    0    0 -0.20681230024E+02 -0.37943134327E+02  0.77273481898E+03  0.77394217819E+03  0.00000000000E+00 0. -1.
        -12    1    5    5    0    0  0.50695597804E+02 -0.98052933783E+01  0.45962445963E+03  0.46251576331E+03  0.00000000000E+00 0.  1.
          5    1    4    4  501    0  0.34049888969E+00  0.20407984341E+01 -0.16004652565E+02  0.16670395960E+02  0.41800000000E+01 0.  1.
         -5    1    4    4    0  501  0.30791051775E+02  0.63476242721E+02  0.23794718034E+03  0.24822098076E+03  0.41800000000E+01 0.  1.
</event>
<event>
11    1  0.7882745E-009  0.1363239E+03  0.7561462E-02  0.1111734E+00
         22   -1    0    0    0    0  0.00000000000E+00  0.00000000000E+00  0.93958578085E+03  0.93958578085E+03  0.00000000000E+00 0. -1.
         22   -1    0    0    0    0 -0.00000000000E+00 -0.00000000000E+00 -0.39598357352E+02  0.39598357352E+02  0.00000000000E+00 0. -1.
         24    2    1    2    0    0  0.11400155804E+02 -0.23089229282E+02  0.39825268976E+02  0.87558201135E+02  0.73602380911E+02 0.  0.
         25    2    1    2    0    0  0.35183760071E+02 -0.22398993563E+02  0.49866519869E+03  0.51580424861E+03  0.12508969026E+03 0.  0.
        -24    2    1    2    0    0 -0.46583915875E+02  0.45488222844E+02  0.36149695583E+03  0.37582168846E+03  0.79515110555E+02 0.  0.
        -13    1    3    3    0    0  0.78816154112E+01  0.25181805800E+02  0.26413559880E+02  0.37335229347E+02  0.00000000000E+00 0.  1.
         14    1    3    3    0    0  0.35185403933E+01 -0.48271035082E+02  0.13411709096E+02  0.50222971788E+02  0.00000000000E+00 0. -1.
         13    1    5    5    0    0  0.27687081074E+01  0.45218572669E+02  0.24731466255E+03  0.25142976627E+03  0.00000000000E+00 0. -1.
        -14    1    5    5    0    0 -0.49352623983E+02  0.26965017530E+00  0.11418229328E+03  0.12439192218E+03  0.00000000000E+00 0.  1.
          5    1    4    4  501    0  0.43946555984E+02  0.24662031175E+02  0.81723027436E+02  0.96102243354E+02  0.41800000000E+01 0. -1.
         -5    1    4    4    0  501 -0.87627959129E+01 -0.47061024737E+02  0.41694217126E+03  0.41970200525E+03  0.41800000000E+01 0. -1.
</event>
<event>
11    1  0.7882745E-009  0.2161861E+03  0.7561462E-02  0.1043633E+00
         22   -1    0    0    0    0  0.00000000000E+00  0.00000000000E+00  0.12521355543E+03  0.12521355543E+03  0.00000000000E+00 0.  1.
         22   -1    0    0    0    0 -0.00000000000E+00 -0.00000000000E+00 -0.15309177057E+04  0.15309177057E+04  0.00000000000E+00 0.  1.
         24    2    1    2    0    0  0.20051011847E+03  0.10000506309E+03 -0.25256354472E+03  0.34711450501E+03  0.80590416400E+02 0.  0.
         25    2    1    2    0    0 -0.17001448896E+03  0.42938152740E+02 -0.11170499285E+04  0.11376270073E+04  0.12508418573E+03 0.  0.
        -24    2    1    2    0    0 -0.30495629514E+02 -0.14294321583E+03 -0.36090677008E+02  0.17138974879E+03  0.81909478394E+02 0.  0.
        -13    1    3    3    0    0  0.11198996224E+03  0.96096969796E+02 -0.17873495731E+03  0.23178128529E+03  0.00000000000E+00 0.  1.
         14    1    3    3    0    0  0.88520156231E+02  0.39080932933E+01 -0.73828587411E+02  0.11533321972E+03  0.00000000000E+00 0. -1.
         13    1    5    5    0    0  0.18982569745E+02 -0.84454535064E+02  0.33310880067E+00  0.86562216980E+02  0.00000000000E+00 0. -1.
        -14    1    5    5    0    0 -0.49478199259E+02 -0.58488680765E+02 -0.36423785808E+02  0.84827531805E+02  0.00000000000E+00 0.  1.
          5    1    4    4  501    0 -0.47842549924E+02 -0.42565658765E+02 -0.26839732155E+03  0.27596256903E+03  0.41800000000E+01 0.  1.
         -5    1    4    4    0  501 -0.12217193903E+03  0.85503811506E+02 -0.84865260698E+03  0.86166443829E+03  0.41800000000E+01 0.  1.
</event>
<event>
11    1  0.7882745E-009  0.1474753E+03  0.7561462E-02  0.1099487E+00
         22   -1    0    0    0    0  0.00000000000E+00  0.00000000000E+00  0.24613381777E+04  0.24613381777E+04  0.00000000000E+00 0. -1.
         22   -1    0    0    0    0 -0.00000000000E+00 -0.00000000000E+00 -0.90701871552E+03  0.90701871552E+03  0.00000000000E+00 0.  1.
        -24    2    1    2    0    0  0.33735156549E+02  0.18235657589E+01 -0.87994541292E+03  0.88388191421E+03  0.76170351011E+02 0.  0.
         25    2    1    2    0    0  0.45442131711E+02 -0.12654479625E+02  0.16445232492E+03  0.21193599126E+03  0.12508866467E+03 0.  0.
         24    2    1    2    0    0 -0.79177288259E+02  0.10830913866E+02  0.22698125502E+04  0.22725389878E+04  0.77447312638E+02 0.  0.
        -13    1    5    5    0    0 -0.17649845259E+02 -0.25426325857E+01  0.15149749707E+04  0.15150799134E+04  0.00000000000E+00 0.  1.
         14    1    5    5    0    0 -0.61527443000E+02  0.13373546452E+02  0.75483757949E+03  0.75745907440E+03  0.00000000000E+00 0. -1.
         11    1    3    3    0    0  0.25366046348E+02 -0.31105370327E+02 -0.26745902272E+03  0.27045389479E+03  0.00000000000E+00 0. -1.
        -12    1    3    3    0    0  0.83691102010E+01  0.32928936086E+02 -0.61248639020E+03  0.61342801942E+03  0.00000000000E+00 0.  1.
          5    1    4    4  501    0 -0.22194148277E+02 -0.35048953489E+02  0.12192298939E+03  0.12885533400E+03  0.41800000000E+01 0. -1.
         -5    1    4    4    0  501  0.67636279988E+02  0.22394473863E+02  0.42529335533E+02  0.83080657262E+02  0.41800000000E+01 0. -1.
</event>
<event>
11    1  0.7882745E-009  0.1902491E+03  0.7561462E-02  0.1061641E+00
         22   -1    0    0    0    0  0.00000000000E+00  0.00000000000E+00  0.28909379104E+03  0.28909379104E+03  0.00000000000E+00 0.  1.
         22   -1    0    0    0    0 -0.00000000000E+00 -0.00000000000E+00 -0.91915656883E+03  0.91915656883E+03  0.00000000000E+00 0.  1.
        -24    2    1    2    0    0  0.23470749177E+02  0.24243509221E+02 -0.69095410869E+03  0.69632707254E+03  0.79468156092E+02 0.  0.
         25    2    1    2    0    0 -0.12452178062E+03 -0.11993567637E+03 -0.13999675685E+03  0.25521977274E+03  0.12509116736E+03 0.  0.
         24    2    1    2    0    0  0.10105103145E+03  0.95692167154E+02  0.20088808775E+03  0.25670351459E+03  0.78564424446E+02 0.  0.
        -13    1    5    5    0    0  0.50754017429E+02  0.85061826816E+02  0.87338033109E+02  0.13205838366E+03  0.00000000000E+00 0.  1.
         14    1    5    5    0    0  0.50297014017E+02  0.10630340337E+02  0.11355005464E+03  0.12464513093E+03  0.00000000000E+00 0. -1.
         11    1    3    3    0    0  0.29849422941E+02  0.29943657144E+02 -0.16588647440E+03  0.17118975741E+03  0.00000000000E+00 0. -1.
        -12    1    3    3    0    0 -0.63786737644E+01 -0.57001479232E+01 -0.52506763429E+03  0.52513731513E+03  0.00000000000E+00 0.  1.
          5    1    4    4  501    0 -0.65681376471E+02 -0.56644321729E+02  0.43361089912E+01  0.86941915326E+02  0.41800000000E+01 0.  1.
         -5    1    4    4    0  501 -0.58840404151E+02 -0.63291354646E+02 -0.14433286584E+03  0.16827785741E+03  0.41800000000E+01 0.  1.
</event>
<event>
11    1  0.7882745E-009  0.1879177E+03  0.7561462E-02  0.1063412E+00
         22   -1    0    0    0    0  0.00000000000E+00  0.00000000000E+00  0.64724942605E+03  0.64724942605E+03  0.00000000000E+00 0. -1.
         22   -1    0    0    0    0 -0.00000000000E+00 -0.00000000000E+00 -0.38136292495E+03  0.38136292495E+03  0.00000000000E+00 0.  1.
        -24    2    1    2    0    0  0.70797654778E+02  0.86748612449E+02 -0.17639929932E+03  0.22536136116E+03  0.84459461389E+02 0.  0.
         25    2    1    2    0    0 -0.19124542874E+03 -0.14345508807E+03 -0.59427348086E+02  0.27628361457E+03  0.12508736817E+03 0.  0.
         24    2    1    2    0    0  0.12044777396E+03  0.56706475616E+02  0.50171314850E+03  0.52696737527E+03  0.90858354543E+02 0.  0.
        -11    1    5    5    0    0  0.38286687883E+01  0.39616912896E+02  0.84145344596E+02  0.93083819804E+02  0.00000000000E+00 0.  1.
         12    1    5    5    0    0  0.11661910517E+03  0.17089562721E+02  0.41756780391E+03  0.43388355547E+03  0.00000000000E+00 0. -1.
         11    1    3    3    0    0  0.77327103465E+02  0.46988521740E+02 -0.79610524221E+02  0.12052069396E+03  0.00000000000E+00 0. -1.
        -12    1    3    3    0    0 -0.65294486876E+01  0.39760090710E+02 -0.96788775099E+02  0.10484066720E+03  0.00000000000E+00 0.  1.
          5    1    4    4  501    0 -0.43322684839E+02 -0.10912198359E+03 -0.33593611920E+02  0.12219028393E+03  0.41800000000E+01 0. -1.
         -5    1    4    4    0  501 -0.14792274390E+03 -0.34333104474E+02 -0.25833736165E+02  0.15409333065E+03  0.41800000000E+01 0. -1.
</event>
<event>
11    1  0.1068588E-008  0.1773569E+03  0.7561462E-02  0.1071801E+00
         22   -1    0    0    0    0  0.00000000000E+00  0.00000000000E+00  0.16975222858E+04  0.16975222858E+04  0.00000000000E+00 0.  1.
         22   -1    0    0    0    0 -0.00000000000E+00 -0.00000000000E+00 -0.60105823475E+03  0.60105823475E+03  0.00000000000E+00 0. -1.
         24    2    1    2    0    0  0.12624962655E+02  0.87148385512E+02 -0.39742011603E+03  0.41492395223E+03  0.80404643702E+02 0.  0.
         25    2    1    2    0    0  0.11313247864E+03 -0.78580152499E+02 -0.14626504857E+03  0.23667249697E+03  0.12508640334E+03 0.  0.
        -24    2    1    2    0    0 -0.12575744130E+03 -0.85682330136E+01  0.16401492156E+04  0.16469840713E+04  0.81109389077E+02 0.  0.
        -13    1    3    3    0    0 -0.22941156466E+02  0.43075170663E+02 -0.90479421304E+02  0.10280220166E+03  0.00000000000E+00 0.  1.
         14    1    3    3    0    0  0.35566119121E+02  0.44073214849E+02 -0.30694069473E+03  0.31212175057E+03  0.00000000000E+00 0. -1.
         13    1    5    5    0    0 -0.49766668749E+02 -0.28420663364E+02  0.37033618991E+03  0.37474437818E+03  0.00000000000E+00 0. -1.
        -14    1    5    5    0    0 -0.75990772548E+02  0.19852430350E+02  0.12698130257E+04  0.12722396931E+04  0.00000000000E+00 0.  1.
          5    1    4    4  501    0  0.12277537993E+03 -0.65388762957E+02 -0.64858180818E+02  0.15353677168E+03  0.41800000000E+01 0.  1.
         -5    1    4    4    0  501 -0.96429012905E+01 -0.13191389542E+02 -0.81406867748E+02  0.83135725292E+02  0.41800000000E+01 0.  1.
</event>
<event>
11    1  0.7882745E-009  0.1466560E+03  0.7561462E-02  0.1100346E+00
         22   -1    0    0    0    0  0.00000000000E+00  0.00000000000E+00  0.14091050708E+04  0.14091050708E+04  0.00000000000E+00 0.  1.
         22   -1    0    0    0    0 -0.00000000000E+00 -0.00000000000E+00 -0.26062203874E+03  0.26062203874E+03  0.00000000000E+00 0. -1.
         24    2    1    2    0    0 -0.14130952440E+02  0.76206630481E+02 -0.23616859218E+03  0.26140001425E+03  0.80914950254E+02 0.  0.
         25    2    1    2    0    0  0.22671471688E+02 -0.36864841681E+02  0.47005976970E+03  0.48834064554E+03  0.12508951521E+03 0.  0.
        -24    2    1    2    0    0 -0.85405192480E+01 -0.39341788801E+02  0.91459185457E+03  0.91998644977E+03  0.90973020765E+02 0.  0.
        -13    1    3    3    0    0  0.20951735396E+02  0.61752977205E+02 -0.95046196491E+02  0.11526571423E+03  0.00000000000E+00 0.  1.
         14    1    3    3    0    0 -0.35082687836E+02  0.14453653276E+02 -0.14112239569E+03  0.14613430002E+03  0.00000000000E+00 0. -1.
         11    1    5    5    0    0 -0.40354802392E+02 -0.15070314127E+02  0.21623051494E+03  0.22047961365E+03  0.00000000000E+00 0. -1.
        -12    1    5    5    0    0  0.31814283144E+02 -0.24271474674E+02  0.69836133963E+03  0.69950683612E+03  0.00000000000E+00 0.  1.
          5    1    4    4  501    0 -0.44256127258E+02 -0.53413045622E+01  0.29300478273E+03  0.29640581883E+03  0.41800000000E+01 0. -1.
         -5    1    4    4    0  501  0.66927598946E+02 -0.31523537118E+02  0.17705498697E+03  0.19193482671E+03  0.41800000000E+01 0. -1.
</event>
<event>
11    1  0.7882745E-009  0.1568273E+03  0.7561462E-02  0.1090100E+00
         22   -1    0    0    0    0  0.00000000000E+00  0.00000000000E+00  0.28513850017E+03  0.28513850017E+03  0.00000000000E+00 0.  1.
         22   -1    0    0    0    0 -0.00000000000E+00 -0.00000000000E+00 -0.14152230363E+03  0.14152230363E+03  0.00000000000E+00 0.  1.
        -24    2    1    2    0    0  0.95376578052E+01 -0.82687197741E+02  0.28276664244E+02  0.11686407089E+03  0.77003257972E+02 0.  0.
         25    2    1    2    0    0 -0.60257541220E+02 -0.24520829111E+02  0.17357217655E+02  0.14206716347E+03  0.12509821580E+03 0.  0.
         24    2    1    2    0    0  0.50719883414E+02  0.10720802685E+03  0.97982314645E+02  0.16772956944E+03  0.66832678288E+02 0.  0.
        -13    1    5    5    0    0  0.55853118002E+02  0.82508178835E+02  0.10153251735E+03  0.14225337411E+03  0.00000000000E+00 0.  1.
         14    1    5    5    0    0 -0.51332345875E+01  0.24699848017E+02 -0.35502027090E+01  0.25476195333E+02  0.00000000000E+00 0. -1.
         13    1    3    3    0    0  0.42814985636E+02 -0.56682766376E+02  0.15092990759E+02  0.72621328610E+02  0.00000000000E+00 0. -1.
        -14    1    3    3    0    0 -0.33277327831E+02 -0.26004431365E+02  0.13183673485E+02  0.44242742283E+02  0.00000000000E+00 0.  1.
          5    1    4    4  501    0  0.21938869062E+01 -0.20407949568E+02  0.61759978027E+02  0.65215525999E+02  0.41800000000E+01 0. -1.
         -5    1    4    4    0  501 -0.62451428126E+02 -0.41128795424E+01 -0.44402760372E+02  0.76851637469E+02  0.41800000000E+01 0. -1.
</event>
<event>
11    1  0.7882745E-009  0.1806091E+03  0.7561462E-02  0.1069151E+00
         22   -1    0    0    0    0  0.00000000000E+00  0.00000000000E+00  0.22503749060E+04  0.22503749060E+04  0.00000000000E+00 0. -1.
         22   -1    0    0    0    0 -0.00000000000E+00 -0.00000000000E+00 -0.10013461282E+04  0.10013461282E+04  0.00000000000E+00 0.  1.
        -24    2    1    2    0    0 -0.12401230839E+02 -0.12991006168E+03 -0.74856041932E+03  0.76298958599E+03  0.69137488343E+02 0.  0.
         25    2    1    2    0    0 -0.16249881974E+02  0.13069942884E+03 -0.21109844017E+03  0.27849914969E+03  0.12511125279E+03 0.  0.
         24    2    1    2    0    0  0.28651112814E+02 -0.78936716543E+00  0.22086876372E+04  0.22102322985E+04  0.77486935749E+02 0.  0.
        -13    1    5    5    0    0  0.11025828226E+01 -0.19591369897E+02  0.15042393576E+03  0.15169837808E+03  0.00000000000E+00 0.  1.
         14    1    5    5    0    0  0.27548529991E+02  0.18802002732E+02  0.20582637015E+04  0.20585339204E+04  0.00000000000E+00 0. -1.
         13    1    3    3    0    0  0.15287797992E+02 -0.25412173814E+01 -0.49087292684E+02  0.51475594763E+02  0.00000000000E+00 0. -1.
        -14    1    3    3    0    0 -0.27689028831E+02 -0.12736884430E+03 -0.69947312664E+03  0.71151399122E+03  0.00000000000E+00 0.  1.
          5    1    4    4  501    0 -0.12248107626E+01  0.90597198523E+02 -0.21688184507E+03  0.23508415443E+03  0.41800000000E+01 0. -1.
         -5    1    4    4    0  501 -0.15025071212E+02  0.40102230320E+02  0.57834049029E+01  0.43414995265E+02  0.41800000000E+01 0. -1.
</event>
<event>
11    1  0.7882745E-009  0.1350672E+03  0.7561462E-02  0.1113195E+00
         22   -1    0    0    0    0  0.00000000000E+00  0.00000000000E+00  0.24387990517E+04  0.24387990517E+04  0.00000000000E+00 0.  1.
         22   -1    0    0    0    0 -0.00000000000E+00 -0.00000000000E+00 -0.21503645249E+02  0.21503645249E+02  0.00000000000E+00 0. -1.
         24    2    1    2    0    0  0.45497438464E+02  0.28498790357E+02  0.15306314079E+03  0.17975005491E+03  0.77456821593E+02 0.  0.
         25    2    1    2    0    0 -0.41933263933E+02 -0.91184675894E+01  0.60546263334E+03  0.61973785822E+03  0.12509383466E+03 0.  0.
        -24    2    1    2    0    0 -0.35641745309E+01 -0.19380322768E+02  0.16587696323E+04  0.16608147838E+04  0.80004704798E+02 0.  0.
        -13    1    3    3    0    0 -0.12954532126E+02  0.31459338006E+02  0.73370148233E+02  0.80874523196E+02  0.00000000000E+00 0.  1.
         14    1    3    3    0    0  0.58451970590E+02 -0.29605476484E+01  0.79692992560E+02  0.98875531713E+02  0.00000000000E+00 0. -1.
         13    1    5    5    0    0  0.32850568672E+02  0.64956735354E+01  0.46215598468E+03  0.46336757312E+03  0.00000000000E+00 0. -1.
        -14    1    5    5    0    0 -0.36414743203E+02 -0.25875996303E+02  0.11966136476E+04  0.11974472107E+04  0.00000000000E+00 0.  1.
          5    1    4    4  501    0 -0.55335049365E+02  0.41792726530E+02  0.22090610590E+03  0.23157197521E+03  0.41800000000E+01 0.  1.
         -5    1    4    4    0  501  0.13401785432E+02 -0.50911194119E+02  0.38455652744E+03  0.38816588302E+03  0.41800000000E+01 0.  1.
</event>
<event>
11    1  0.7882745E-009  0.1288745E+03  0.7561462E-02  0.1120660E+00
         22   -1    0    0    0    0  0.00000000000E+00  0.00000000000E+00  0.36420868263E+03  0.36420868263E+03  0.00000000000E+00 0. -1.
         22   -1    0    0    0    0 -0.00000000000E+00 -0.00000000000E+00 -0.74190863905E+03  0.74190863905E+03  0.00000000000E+00 0. -1.
         24    2    1    2    0    0  0.25274872254E+02 -0.18032386165E+02 -0.64097095825E+03  0.64679552304E+03  0.80849818745E+02 0.  0.
         25    2    1    2    0    0 -0.28747342430E+02  0.13928634104E+02 -0.47859138011E+02  0.13767275646E+03  0.12507147651E+03 0.  0.
        -24    2    1    2    0    0  0.34724701761E+01  0.41037520612E+01  0.31113013984E+03  0.32164904218E+03  0.81407884078E+02 0.  0.
        -13    1    3    3    0    0  0.10030605232E+02 -0.30254874504E+02 -0.89989005756E+02  0.95467228040E+02  0.00000000000E+00 0.  1.
         14    1    3    3    0    0  0.15244267022E+02  0.12222488339E+02 -0.55098195249E+03  0.55132829500E+03  0.00000000000E+00 0. -1.
         11    1    5    5    0    0 -0.23442842885E+01 -0.18895363601E+02  0.28762032618E+03  0.28824986117E+03  0.00000000000E+00 0. -1.
        -12    1    5    5    0    0  0.58167544646E+01  0.22999115662E+02  0.23509813658E+02  0.33399181008E+02  0.00000000000E+00 0.  1.
          5    1    4    4  501    0 -0.35470827750E+02 -0.49903153162E+02 -0.39082430140E+02  0.72755845555E+02  0.41800000000E+01 0.  1.
         -5    1    4    4    0  501  0.67234853200E+01  0.63831787265E+02 -0.87767078710E+01  0.64916910905E+02  0.41800000000E+01 0.  1.
</event>
<event>
11    1  0.7882745E-009  0.1700408E+03  0.7561462E-02  0.1077996E+00
         22   -1    0    0    0    0  0.00000000000E+00  0.00000000000E+00  0.26206877876E+03  0.26206877876E+03  0.00000000000E+00 0. -1.
         22   -1    0    0    0    0 -0.00000000000E+00 -0.00000000000E+00 -0.21906830999E+03  0.21906830999E+03  0.00000000000E+00 0. -1.
         24    2    1    2    0    0  0.11770629485E+03 -0.57359204610E+02 -0.10419670764E+03  0.18506555202E+03  0.79040840454E+02 0.  0.
         25    2    1    2    0    0 -0.68172105047E+02  0.36628565750E+02  0.41414208967E+02  0.15281078613E+03  0.12508761696E+03 0.  0.
        -24    2    1    2    0    0 -0.49534189804E+02  0.20730638861E+02  0.10578296744E+03  0.14326075061E+03  0.80313206372E+02 0.  0.
        -11    1    3    3    0    0  0.13387095651E+02  0.36866995384E+01  0.11288529690E+02  0.17895166555E+02  0.00000000000E+00 0.  1.
         12    1    3    3    0    0  0.10431919920E+03 -0.61045904149E+02 -0.11548523733E+03  0.16717038546E+03  0.00000000000E+00 0. -1.
         11    1    5    5    0    0 -0.17461791560E+02  0.24493422019E+02  0.10679703480E+03  0.11095246067E+03  0.00000000000E+00 0. -1.
        -12    1    5    5    0    0 -0.32072398244E+02 -0.37627831588E+01 -0.10140673587E+01  0.32308289940E+02  0.00000000000E+00 0.  1.
          5    1    4    4  501    0  0.21582480526E+02  0.14554471703E+02 -0.27002538091E+02  0.37739178258E+02  0.41800000000E+01 0.  1.
         -5    1    4    4    0  501 -0.89754585573E+02  0.22074094047E+02  0.68416747059E+02  0.11507160787E+03  0.41800000000E+01 0.  1.
</event>
<event>
11    1  0.7882745E-009  0.3750276E+03  0.7561462E-02  0.9726457E-01
         22   -1    0    0    0    0  0.00000000000E+00  0.00000000000E+00  0.79598126758E+03  0.79598126758E+03  0.00000000000E+00 0. -1.
         22   -1    0    0    0    0 -0.00000000000E+00 -0.00000000000E+00 -0.14069118535E+04  0.14069118535E+04  0.00000000000E+00 0.  1.
        -24    2    1    2    0    0  0.31205484338E+03 -0.15173225257E+03 -0.87744662096E+03  0.94742159337E+03  0.85406095868E+02 0.  0.
         25    2    1    2    0    0 -0.31457569577E+03  0.19339172962E+03 -0.41358612613E+03  0.56838565400E+03  0.12510211227E+03 0.  0.
         24    2    1    2    0    0  0.25208523941E+01 -0.41659477049E+02  0.68010216112E+03  0.68708587376E+03  0.88352598311E+02 0.  0.
        -11    1    5    5    0    0 -0.30396118051E+02 -0.44798854917E+02  0.25414255421E+03  0.25984475991E+03  0.00000000000E+00 0.  1.
         12    1    5    5    0    0  0.32916970446E+02  0.31393778678E+01  0.42595960691E+03  0.42724111385E+03  0.00000000000E+00 0. -1.
         11    1    3    3    0    0  0.15471154320E+03 -0.32235650024E+02 -0.34408580842E+03  0.37864210317E+03  0.00000000000E+00 0. -1.
        -12    1    3    3    0    0  0.15734330018E+03 -0.11949660254E+03 -0.53336081254E+03  0.56877949021E+03  0.00000000000E+00 0.  1.
          5    1    4    4  501    0  0.11288886960E+02  0.29904037833E+01 -0.14690749549E+02  0.19226856370E+02  0.41800000000E+01 0.  1.
         -5    1    4    4    0  501 -0.32586458273E+03  0.19040132583E+03 -0.39889537658E+03  0.54915879763E+03  0.41800000000E+01 0.  1.
</event>
<event>
11    1  0.7882745E-009  0.1601391E+03  0.7561462E-02  0.1086947E+00
         22   -1    0    0    0    0  0.00000000000E+00  0.00000000000E+00  0.48809962567E+03  0.48809962567E+03  0.00000000000E+00 0.  1.
         22   -1    0    0    0    0 -0.00000000000E+00 -0.00000000000E+00 -0.18169228085E+04  0.18169228085E+04  0.00000000000E+00 0. -1.
         24    2    1    2    0    0  0.19132380080E+02  0.79351596468E+02 -0.16496742056E+04  0.16535855161E+04  0.79103416643E+02 0.  0.
         25    2    1    2    0    0  0.27079688380E+02 -0.16401416933E+03 -0.86312163296E+02  0.22523524011E+03  0.12508863495E+03 0.  0.
        -24    2    1    2    0    0 -0.46212068460E+02  0.84662572858E+02  0.40716318603E+03  0.42620167802E+03  0.81010516428E+02 0.  0.
        -11    1    3    3    0    0  0.20712209213E+02  0.43326041737E+02 -0.33578631685E+03  0.33920287748E+03  0.00000000000E+00 0.  1.
         12    1    3    3    0    0 -0.15798291334E+01  0.36025554731E+02 -0.13138878888E+04  0.13143826386E+04  0.00000000000E+00 0. -1.
         13    1    5    5    0    0 -0.78676782122E+01 -0.14131197640E+02  0.26348649528E+02  0.30916701621E+02  0.00000000000E+00 0. -1.
        -14    1    5    5    0    0 -0.38344390248E+02  0.98793770498E+02  0.38081453650E+03  0.39528497639E+03  0.00000000000E+00 0.  1.
          5    1    4    4  501    0  0.70326393067E+02 -0.13699384675E+03 -0.48120865433E+02  0.16138836916E+03  0.41800000000E+01 0.  1.
         -5    1    4    4    0  501 -0.43246704687E+02 -0.27020322574E+02 -0.38191297863E+02  0.63846870955E+02  0.41800000000E+01 0.  1.
</event>
<event>
11    1  0.7882745E-009  0.1529856E+03  0.7561462E-02  0.1093867E+00
         22   -1    0    0    0    0  0.00000000000E+00  0.00000000000E+00  0.26342039855E+03  0.26342039855E+03  0.00000000000E+00 0.  1.
         22   -1    0    0    0    0 -0.00000000000E+00 -0.00000000000E+00 -0.20127051270E+03  0.20127051270E+03  0.00000000000E+00 0. -1.
        -24    2    1    2    0    0 -0.55435680223E+02 -0.55005661693E+02 -0.23948277513E+02  0.11507096568E+03  0.81049797573E+02 0.  0.
         25    2    1    2    0    0  0.98426759044E+02 -0.25241707667E+02 -0.48359482488E+02  0.16825597081E+03  0.12508581640E+03 0.  0.
         24    2    1    2    0    0 -0.42991078821E+02  0.80247369360E+02  0.13445764585E+03  0.18136397477E+03  0.80784649948E+02 0.  0.
        -13    1    5    5    0    0 -0.53478128691E+02  0.45147866159E+02  0.12543098225E+03  0.14363555052E+03  0.00000000000E+00 0.  1.
         14    1    5    5    0    0  0.10487049869E+02  0.35099503201E+02  0.90266636060E+01  0.37728424242E+02  0.00000000000E+00 0. -1.
         13    1    3    3    0    0 -0.14669624582E+02 -0.51012580721E+02  0.18376561642E+02  0.56170982678E+02  0.00000000000E+00 0. -1.
        -14    1    3    3    0    0 -0.40766055641E+02 -0.39930809716E+01 -0.42324839155E+02  0.58899983002E+02  0.00000000000E+00 0.  1.
          5    1    4    4  501    0  0.90525097372E+02 -0.17000412891E+02 -0.87596274143E+02  0.12717856320E+03  0.41800000000E+01 0. -1.
         -5    1    4    4    0  501  0.79016616717E+01 -0.82412947761E+01  0.39236791655E+02  0.41077407612E+02  0.41800000000E+01 0. -1.
</event>
<event>
11    1  0.9956238E-009  0.1435888E+03  0.7561462E-02  0.1103616E+00
         22   -1    0    0    0    0  0.00000000000E+00  0.00000000000E+00  0.62016226797E+03  0.62016226797E+03  0.00000000000E+00 0.  1.
         22   -1    0    0    0    0 -0.00000000000E+00 -0.00000000000E+00 -0.77590688203E+03  0.77590688203E+03  0.00000000000E+00 0. -1.
         24    2    1    2    0    0  0.44494052251E+02 -0.32618133264E+02 -0.34407636322E+03  0.35759761275E+03  0.80273567356E+02 0.  0.
         25    2    1    2    0    0 -0.73807158668E+02  0.96180887631E+02 -0.40224955536E+03  0.43834345051E+03  0.12506804548E+03 0.  0.
        -24    2    1    2    0    0  0.29313106417E+02 -0.63562754367E+02  0.59058130453E+03  0.60012808674E+03  0.80423636316E+02 0.  0.
        -13    1    3    3    0    0 -0.97904221775E+01 -0.69585672653E+01 -0.21394505425E+03  0.21428196439E+03  0.00000000000E+00 0.  1.
         14    1    3    3    0    0  0.54284474429E+02 -0.25659565998E+02 -0.13013130897E+03  0.14331564836E+03  0.00000000000E+00 0. -1.
         11    1    5    5    0    0 -0.47294661096E+01  0.12421845564E+02  0.21581908581E+03  0.21622799979E+03  0.00000000000E+00 0. -1.
        -12    1    5    5    0    0  0.34042572526E+02 -0.75984599930E+02  0.37476221872E+03  0.38390008694E+03  0.00000000000E+00 0.  1.
          5    1    4    4  501    0 -0.98199066966E+02  0.29334628285E+02 -0.22387639958E+03  0.24625533874E+03  0.41800000000E+01 0.  1.
         -5    1    4    4    0  501  0.24391908298E+02  0.66846259346E+02 -0.17837315578E+03  0.19208811177E+03  0.41800000000E+01 0.  1.
</event>
<event>
11    1  0.7882745E-009  0.2269604E+03  0.7561462E-02  0.1036943E+00
         22   -1    0    0    0    0  0.00000000000E+00  0.00000000000E+00  0.81650214061E+03  0.81650214061E+03  0.00000000000E+00 0. -1.
         22   -1    0    0    0    0 -0.00000000000E+00 -0.00000000000E+00 -0.25076071548E+03  0.25076071548E+03  0.00000000000E+00 0. -1.
         24    2    1    2    0    0 -0.13547465617E+01 -0.62421650511E+02 -0.39737415716E+02  0.10862958124E+03  0.79517456710E+02 0.  0.
         25    2    1    2    0    0  0.15074230067E+03  0.17326016000E+03 -0.55307974979E+02  0.26730033699E+03  0.12509266088E+03 0.  0.
        -24    2    1    2    0    0 -0.14938755410E+03 -0.11083850949E+03  0.66078681582E+03  0.69133293785E+03  0.81854740162E+02 0.  0.
        -11    1    3    3    0    0 -0.26220958165E+02 -0.15123154283E+02  0.13550172057E+02  0.33164071000E+02  0.00000000000E+00 0.  1.
         12    1    3    3    0    0  0.24866211603E+02 -0.47298496228E+02 -0.53287587773E+02  0.75465510239E+02  0.00000000000E+00 0. -1.
         13    1    5    5    0    0 -0.13023099023E+03 -0.64238534007E+02  0.56176831353E+03  0.58023300333E+03  0.00000000000E+00 0. -1.
        -14    1    5    5    0    0 -0.19156563870E+02 -0.46599975481E+02  0.99018502292E+02  0.11109993452E+03  0.00000000000E+00 0.  1.
          5    1    4    4  501    0  0.29544214399E+00  0.77596897744E+02 -0.42337865199E+02  0.88494819369E+02  0.41800000000E+01 0.  1.
         -5    1    4    4    0  501  0.15044685852E+03  0.95663262255E+02 -0.12970109780E+02  0.17880551762E+03  0.41800000000E+01 0.  1.
</event>
<event>
11    1  0.7882745E-009  0.1425889E+03  0.7561462E-02  0.1104701E+00
         22   -1    0    0    0    0  0.00000000000E+00  0.00000000000E+00  0.12280758132E+03  0.12280758132E+03  0.00000000000E+00 0.  1.
         22   -1    0    0    0    0 -0.00000000000E+00 -0.00000000000E+00 -0.63245118690E+03  0.63245118690E+03  0.00000000000E+00 0. -1.
        -24    2    1    2    0    0 -0.23413876662E+02 -0.46220358855E+02 -0.39069235278E+03  0.40210957938E+03  0.79793910277E+02 0.  0.
         25    2    1    2    0    0 -0.14762986952E+01  0.10491473589E+03 -0.17197397229E+03  0.23713959959E+03  0.12510340237E+03 0.  0.
         24    2    1    2    0    0  0.24890175357E+02 -0.58694377033E+02  0.53022719485E+02  0.11600958925E+03  0.81131161035E+02 0.  0.
        -11    1    5    5    0    0  0.51907524060E+02 -0.53237203257E+02  0.30312903327E+02  0.80296095626E+02  0.00000000000E+00 0.  1.
         12    1    5    5    0    0 -0.27017348703E+02 -0.54571737751E+01  0.22709816158E+02  0.35713493619E+02  0.00000000000E+00 0. -1.
         11    1    3    3    0    0  0.88615059412E+01  0.10178325196E+01 -0.25096174309E+03  0.25112020780E+03  0.00000000000E+00 0. -1.
        -12    1    3    3    0    0 -0.32275382603E+02 -0.47238191375E+02 -0.13973060969E+03  0.15098937158E+03  0.00000000000E+00 0.  1.
          5    1    4    4  501    0  0.26755809474E+02  0.25972644720E+02  0.81668869868E+01  0.38400808031E+02  0.41800000000E+01 0. -1.
         -5    1    4    4    0  501 -0.28232108169E+02  0.78942091168E+02 -0.18014085927E+03  0.19873879156E+03  0.41800000000E+01 0. -1.
</event>
<event>
11    1  0.7882745E-009  0.1627181E+03  0.7561462E-02  0.1084548E+00
         22   -1    0    0    0    0  0.00000000000E+00  0.00000000000E+00  0.10548229514E+04  0.10548229514E+04  0.00000000000E+00 0.  1.
         22   -1    0    0    0    0 -0.00000000000E+00 -0.00000000000E+00 -0.51027107346E+03  0.51027107346E+03  0.00000000000E+00 0.  1.
         24    2    1    2    0    0 -0.98010355506E+02  0.34156511720E+02 -0.47625140946E+03  0.49383043241E+03  0.79248936189E+02 0.  0.
         25    2    1    2    0    0  0.12722421705E+03  0.14702937081E+02  0.34489520177E+03  0.38858935459E+03  0.12508720374E+03 0.  0.
        -24    2    1    2    0    0 -0.29213861545E+02 -0.48859448800E+02  0.67590808560E+03  0.68267423782E+03  0.77147127980E+02 0.  0.
        -13    1    3    3    0    0 -0.30064681327E+02  0.40497615847E+02 -0.31067874685E+03  0.31474628782E+03  0.00000000000E+00 0.  1.
         14    1    3    3    0    0 -0.67945674179E+02 -0.63411041270E+01 -0.16557266261E+03  0.17908414459E+03  0.00000000000E+00 0. -1.
         13    1    5    5    0    0 -0.58945056141E+01  0.14474161736E+02  0.36379922523E+02  0.39594763759E+02  0.00000000000E+00 0. -1.
        -14    1    5    5    0    0 -0.23319355931E+02 -0.63333610537E+02  0.63952816308E+03  0.64307947406E+03  0.00000000000E+00 0.  1.
          5    1    4    4  501    0  0.44327833828E+02 -0.52945791040E+02  0.16975544122E+03  0.18331010846E+03  0.41800000000E+01 0. -1.
         -5    1    4    4    0  501  0.82896383223E+02  0.67648728121E+02  0.17513976055E+03  0.20527924613E+03  0.41800000000E+01 0. -1.
</event>
<event>
11    1  0.7882745E-009  0.1532106E+03  0.7561462E-02  0.1093643E+00
         22   -1    0    0    0    0  0.00000000000E+00  0.00000000000E+00  0.13103047047E+04  0.13103047047E+04  0.00000000000E+00 0. -1.
         22   -1    0    0    0    0 -0.00000000000E+00 -0.00000000000E+00 -0.58393786920E+03  0.58393786920E+03  0.00000000000E+00 0.  1.
        -24    2    1    2    0    0  0.86001559774E+02  0.16164464012E+02 -0.52750456037E+03  0.54073922928E+03  0.80500277593E+02 0.  0.
         25    2    1    2    0    0 -0.10942489388E+03 -0.12155222147E+02  0.96877654516E+02  0.19274672550E+03  0.12507782945E+03 0.  0.
         24    2    1    2    0    0  0.23423334108E+02 -0.40092418651E+01  0.11569937414E+04  0.11607566192E+04  0.90314366067E+02 0.  0.
        -13    1    5    5    0    0 -0.34240460429E+02 -0.55442480715E+01  0.35476628136E+03  0.35645793890E+03  0.00000000000E+00 0.  1.
         14    1    5    5    0    0  0.57663794537E+02  0.15350062063E+01  0.80222746003E+03  0.80429868026E+03  0.00000000000E+00 0. -1.
         13    1    3    3    0    0 -0.57157519070E+01 -0.19268622377E+02 -0.10921781588E+03  0.11105170388E+03  0.00000000000E+00 0. -1.
        -14    1    3    3    0    0  0.91717311681E+02  0.35433086390E+02 -0.41828674449E+03  0.42968752540E+03  0.00000000000E+00 0.  1.
          5    1    4    4  501    0 -0.17283838944E+02 -0.31076544711E+02  0.91706612404E+02  0.98448249748E+02  0.41800000000E+01 0. -1.
         -5    1    4    4    0  501 -0.92141054939E+02  0.18921322564E+02  0.51710421121E+01  0.94298475753E+02  0.41800000000E+01 0. -1.
</event>
<event>
11    1  0.7882745E-009  0.1690039E+03  0.7561462E-02  0.1078902E+00
         22   -1    0    0    0    0  0.00000000000E+00  0.00000000000E+00  0.19516690482E+04  0.19516690482E+04  0.00000000000E+00 0.  1.
         22   -1    0    0    0    0 -0.00000000000E+00 -0.00000000000E+00 -0.97481663922E+02  0.97481663922E+02  0.00000000000E+00 0. -1.
         24    2    1    2    0    0 -0.13692233337E+02  0.29605976375E+02 -0.62002168271E+02  0.10700273177E+03  0.80878456001E+02 0.  0.
         25    2    1    2    0    0 -0.70784754443E+02 -0.10018554269E+03  0.90849533874E+03  0.92523458143E+03  0.12509047022E+03 0.  0.
        -24    2    1    2    0    0  0.84476987780E+02  0.70579566318E+02  0.10076942138E+04  0.10169133989E+04  0.80915979331E+02 0.  0.
        -13    1    3    3    0    0  0.38625713290E+01  0.35335398034E+02  0.64300585835E+01  0.36122783183E+02  0.00000000000E+00 0.  1.
         14    1    3    3    0    0 -0.17554804666E+02 -0.57294216591E+01 -0.68432226854E+02  0.70879948587E+02  0.00000000000E+00 0. -1.
         13    1    5    5    0    0  0.34595349531E+01  0.44683170688E+02  0.21195504169E+03  0.21664139452E+03  0.00000000000E+00 0. -1.
        -14    1    5    5    0    0  0.81017452827E+02  0.25896395630E+02  0.79573917210E+03  0.80027200438E+03  0.00000000000E+00 0.  1.
          5    1    4    4  501    0  0.24648574707E+02  0.73265064883E+01  0.24204065795E+03  0.24343866257E+03  0.41800000000E+01 0. -1.
         -5    1    4    4    0  501 -0.95433329150E+02 -0.10751204918E+03  0.66645468079E+03  0.68179591886E+03  0.41800000000E+01 0. -1.
</event>
<event>
11    1  0.7882745E-009  0.1338834E+03  0.7561462E-02  0.1114587E+00
         22   -1    0    0    0    0  0.00000000000E+00  0.00000000000E+00  0.28659602608E+03  0.28659602608E+03  0.00000000000E+00 0. -1.
         22   -1    0    0    0    0 -0.00000000000E+00 -0.00000000000E+00 -0.32443904393E+04  0.32443904393E+04  0.00000000000E+00 0.  1.
        -24    2    1    2    0    0  0.45187200754E+02  0.15446064419E+02 -0.31807227980E+04  0.31821098596E+04  0.80902267698E+02 0.  0.
         25    2    1    2    0    0 -0.32401282244E+02 -0.70385905022E+02  0.51982023180E+02  0.15603438174E+03  0.12506229981E+03 0.  0.
         24    2    1    2    0    0 -0.12785918510E+02  0.54939840602E+02  0.17094636162E+03  0.19284222400E+03  0.69163567057E+02 0.  0.
        -11    1    5    5    0    0 -0.16430812792E+02  0.68416783987E+02  0.16098974766E+03  0.17569441309E+03  0.00000000000E+00 0.  1.
         12    1    5    5    0    0  0.36448942819E+01 -0.13476943384E+02  0.99566139575E+01  0.17147810904E+02  0.00000000000E+00 0. -1.
         11    1    3    3    0    0  0.32173817886E+02  0.13803031306E+02 -0.45142078801E+03  0.45277633118E+03  0.00000000000E+00 0. -1.
        -12    1    3    3    0    0  0.13013382869E+02  0.16430331131E+01 -0.27293020100E+04  0.27293335284E+04  0.00000000000E+00 0.  1.
          5    1    4    4  501    0  0.89709853395E+01 -0.95879469234E+02  0.46289460842E+02  0.10692772224E+03  0.41800000000E+01 0.  1.
         -5    1    4    4    0  501 -0.41372267584E+02  0.25493564212E+02  0.56925623373E+01  0.49106659500E+02  0.41800000000E+01 0.  1.
</event>
<event>
11    1  0.7882745E-009  0.1373282E+03  0.7561462E-02  0.1110579E+00
         22   -1    0    0    0    0  0.00000000000E+00  0.00000000000E+00  0.26240530526E+03  0.26240530526E+03  0.00000000000E+00 0.  1.
         22   -1    0    0    0    0 -0.00000000000E+00 -0.00000000000E+00 -0.86884102598E+03  0.86884102598E+03  0.00000000000E+00 0.  1.
         24    2    1    2    0    0  0.56167899309E+02  0.40814991191E+01 -0.76649296491E+03  0.77302292690E+03  0.82954738862E+02 0.  0.
         25    2    1    2    0    0 -0.62084017349E+02 -0.65297653154E+01 -0.36840919393E+02  0.14457728392E+03  0.12509306391E+03 0.  0.
        -24    2    1    2    0    0  0.59161180395E+01  0.24482661964E+01  0.19689816359E+03  0.21364612043E+03  0.82672749372E+02 0.  0.
        -11    1    3    3    0    0  0.46001796827E+01  0.15938682083E+02 -0.54665612334E+03  0.54690778055E+03  0.00000000000E+00 0.  1.
         12    1    3    3    0    0  0.51567719626E+02 -0.11857182964E+02 -0.21983684157E+03  0.22611514635E+03  0.00000000000E+00 0. -1.
         11    1    5    5    0    0  0.16409006517E+02  0.35466310277E+02  0.54301971714E+02  0.66901560457E+02  0.00000000000E+00 0. -1.
        -12    1    5    5    0    0 -0.10492888478E+02 -0.33018044081E+02  0.14259619188E+03  0.14674455997E+03  0.00000000000E+00 0.  1.
          5    1    4    4  501    0 -0.52913678338E+01  0.51577233364E+02  0.64551803556E+01  0.52415182232E+02  0.41800000000E+01 0. -1.
         -5    1    4    4    0  501 -0.56792649515E+02 -0.58106998679E+02 -0.43296099749E+02  0.92162101690E+02  0.41800000000E+01 0. -1.
</event>
<event>
11    1  0.7882745E-009  0.1508975E+03  0.7561462E-02  0.1095965E+00
         22   -1    0    0    0    0  0.00000000000E+00  0.00000000000E+00  0.60303127093E+03  0.60303127093E+03  0.00000000000E+00 0.  1.
         22   -1    0    0    0    0 -0.00000000000E+00 -0.00000000000E+00 -0.34795819231E+03  0.34795819231E+03  0.00000000000E+00 0.  1.
         24    2    1    2    0    0 -0.68437184510E+02  0.52927434985E+02 -0.29218373204E+03  0.31577502275E+03  0.82810446968E+02 0.  0.
         25    2    1    2    0    0  0.61350215754E+02 -0.21731142550E+02  0.84000262644E+02  0.16413541952E+03  0.12509316643E+03 0.  0.
        -24    2    1    2    0    0  0.70869687561E+01 -0.31196292436E+02  0.46325654802E+03  0.47107902098E+03  0.79280394366E+02 0.  0.
        -13    1    3    3    0    0 -0.74092779336E+02  0.68115717724E+02 -0.22207136108E+03  0.24381382316E+03  0.00000000000E+00 0.  1.
         14    1    3    3    0    0  0.56555948257E+01 -0.15188282739E+02 -0.70112370955E+02  0.71961199589E+02  0.00000000000E+00 0. -1.
         13    1    5    5    0    0 -0.17428038411E+02  0.18957910808E+02  0.87920204807E+02  0.91613870775E+02  0.00000000000E+00 0. -1.
        -14    1    5    5    0    0  0.24515007167E+02 -0.50154203244E+02  0.37533634321E+03  0.37946515020E+03  0.00000000000E+00 0.  1.
          5    1    4    4  501    0 -0.84831792937E+01  0.42171234305E+02  0.42766262451E+02  0.60801339934E+02  0.41800000000E+01 0. -1.
         -5    1    4    4    0  501  0.69833395048E+02 -0.63902376854E+02  0.41234000193E+02  0.10333407958E+03  0.41800000000E+01 0. -1.
</event>
<event>
11    1  0.7882745E-009  0.4920329E+03  0.7561462E-02  0.9411502E-01
         22   -1    0    0    0    0  0.00000000000E+00  0.00000000000E+00  0.20315124622E+04  0.20315124622E+04  0.00000000000E+00 0. -1.
         22   -1    0    0    0    0 -0.00000000000E+00 -0.00000000000E+00 -0.36761996778E+03  0.36761996778E+03  0.00000000000E+00 0.  1.
         24    2    1    2    0    0  0.14607335361E+03  0.33757997470E+03  0.24811367073E+03  0.45125584836E+03  0.82302995803E+02 0.  0.
         25    2    1    2    0    0 -0.13658693965E+03 -0.57373247992E+03  0.10303315391E+03  0.61162715633E+03  0.12508795690E+03 0.  0.
        -24    2    1    2    0    0 -0.94864139549E+01  0.23615250522E+03  0.13127456698E+04  0.13362494253E+04  0.80020842978E+02 0.  0.
        -13    1    3    3    0    0  0.95123062358E+02  0.23337753974E+03  0.12227895611E+03  0.28011714720E+03  0.00000000000E+00 0.  1.
         14    1    3    3    0    0  0.50950291249E+02  0.10420243496E+03  0.12583471462E+03  0.17113870115E+03  0.00000000000E+00 0. -1.
         13    1    5    5    0    0 -0.19214076315E+02  0.23157843550E+03  0.12934844416E+04  0.13141916730E+04  0.00000000000E+00 0. -1.
        -14    1    5    5    0    0  0.97276623598E+01  0.45740697176E+01  0.19261228168E+02  0.22057752363E+02  0.00000000000E+00 0.  1.
          5    1    4    4  501    0 -0.74149680790E+02 -0.27114341618E+03  0.11171347263E+03  0.30251330494E+03  0.41800000000E+01 0.  1.
         -5    1    4    4    0  501 -0.62437258861E+02 -0.30258906374E+03 -0.86803187234E+01  0.30911385139E+03  0.41800000000E+01 0.  1.
</event>
<event>
11    1  0.7882745E-009  0.1442341E+03  0.7561462E-02  0.1102920E+00
         22   -1    0    0    0    0  0.00000000000E+00  0.00000000000E+00  0.28378430222E+03  0.28378430222E+03  0.00000000000E+00 0.  1.
         22   -1    0    0    0    0 -0.00000000000E+00 -0.00000000000E+00 -0.89991569492E+03  0.89991569492E+03  0.00000000000E+00 0. -1.
        -24    2    1    2    0    0 -0.81638727295E+01  0.76605870125E+02 -0.67565098456E+03  0.68746849983E+03  0.10086415202E+03 0.  0.
         25    2    1    2    0    0  0.32548926782E+02 -0.47576092338E+02 -0.18806194185E+03  0.23310539348E+03  0.12509161962E+03 0.  0.
         24    2    1    2    0    0 -0.24385054053E+02 -0.29029777787E+02  0.24758153371E+03  0.26312610383E+03  0.80631084716E+02 0.  0.
        -13    1    5    5    0    0 -0.46871848108E+02 -0.31756782738E+02  0.22131206427E+03  0.22843925491E+03  0.00000000000E+00 0.  1.
         14    1    5    5    0    0  0.22486794056E+02  0.27270049513E+01  0.26269469442E+02  0.34686848916E+02  0.00000000000E+00 0. -1.
         13    1    3    3    0    0 -0.20132942305E+02 -0.20559257597E+02 -0.13628267611E+03  0.13928742315E+03  0.00000000000E+00 0. -1.
        -14    1    3    3    0    0  0.11969069576E+02  0.97165127722E+02 -0.53936830845E+03  0.54818107668E+03  0.00000000000E+00 0.  1.
          5    1    4    4  501    0 -0.32879117509E+02 -0.17974072458E+02 -0.70950226758E+01  0.38365549594E+02  0.41800000000E+01 0.  1.
         -5    1    4    4    0  501  0.65428044291E+02 -0.29602019881E+02 -0.18096691917E+03  0.19473984388E+03  0.41800000000E+01 0.  1.
</event>
<event>
11    1  0.7882745E-009  0.1374835E+03  0.7561462E-02  0.1110401E+00
         22   -1    0    0    0    0  0.00000000000E+00  0.00000000000E+00  0.61983645361E+03  0.61983645361E+03  0.00000000000E+00 0.  1.
         22   -1    0    0    0    0 -0.00000000000E+00 -0.00000000000E+00 -0.27717716908E+03  0.27717716908E+03  0.00000000000E+00 0.  1.
        -24    2    1    2    0    0  0.23427868814E+02  0.32257825141E+02 -0.21414937104E+03  0.23097411859E+03  0.76809231354E+02 0.  0.
         25    2    1    2    0    0 -0.74850613305E+02 -0.49742805676E+02  0.68378075329E+02  0.16851957908E+03  0.12508527619E+03 0.  0.
         24    2    1    2    0    0  0.51422744491E+02  0.17484980535E+02  0.48843058024E+03  0.49751992502E+03  0.77534643143E+02 0.  0.
        -11    1    5    5    0    0  0.63699420402E+01  0.42186973537E+02  0.25019188713E+03  0.25380365892E+03  0.00000000000E+00 0.  1.
         12    1    5    5    0    0  0.45052802451E+02 -0.24701993002E+02  0.23823869311E+03  0.24371626610E+03  0.00000000000E+00 0. -1.
         13    1    3    3    0    0  0.32973145263E+02 -0.15418771965E+02 -0.11352779499E+03  0.11922049771E+03  0.00000000000E+00 0. -1.
        -14    1    3    3    0    0 -0.95452764496E+01  0.47676597106E+02 -0.10062157604E+03  0.11175362088E+03  0.00000000000E+00 0.  1.
          5    1    4    4  501    0  0.39810602329E+01  0.33703711834E+02 -0.12083890363E+01  0.34215809738E+02  0.41800000000E+01 0. -1.
         -5    1    4    4    0  501 -0.78831673537E+02 -0.83446517510E+02  0.69586464366E+02  0.13430376934E+03  0.41800000000E+01 0. -1.
</event>
<event>
11    1  0.7882745E-009  0.1287964E+03  0.7561462E-02  0.1120757E+00
         22   -1    0    0    0    0  0.00000000000E+00  0.00000000000E+00  0.87670114140E+03  0.87670114140E+03  0.00000000000E+00 0.  1.
         22   -1    0    0    0    0 -0.00000000000E+00 -0.00000000000E+00 -0.62498536676E+03  0.62498536676E+03  0.00000000000E+00 0. -1.
         24    2    1    2    0    0  0.43677383396E+01  0.14574140456E+02 -0.55290440058E+03  0.55895301572E+03  0.80583589486E+02 0.  0.
         25    2    1    2    0    0 -0.26050184702E+02 -0.35633937571E+02 -0.88751429827E+00  0.13265444180E+03  0.12509206057E+03 0.  0.
        -24    2    1    2    0    0  0.21682446362E+02  0.21059797115E+02  0.80550768951E+03  0.81007905064E+03  0.80447416902E+02 0.  0.
        -13    1    3    3    0    0  0.24601450446E+02  0.34012550309E+02 -0.17323575598E+03  0.17824901709E+03  0.00000000000E+00 0.  1.
         14    1    3    3    0    0 -0.20233712107E+02 -0.19438409853E+02 -0.37966864460E+03  0.38070399863E+03  0.00000000000E+00 0. -1.
         11    1    5    5    0    0  0.26651582745E+02 -0.16470859658E+02  0.13857015452E+03  0.14206788450E+03  0.00000000000E+00 0. -1.
        -12    1    5    5    0    0 -0.49691363826E+01  0.37530656773E+02  0.66693753498E+03  0.66801116614E+03  0.00000000000E+00 0.  1.
          5    1    4    4  501    0 -0.48657369292E+02 -0.67177070904E+02  0.23891672533E+02  0.86420963071E+02  0.41800000000E+01 0.  1.
         -5    1    4    4    0  501  0.22607184590E+02  0.31543133333E+02 -0.24779186831E+02  0.46233478731E+02  0.41800000000E+01 0.  1.
</event>
<event>
11    1  0.7882745E-009  0.1659129E+03  0.7561462E-02  0.1081644E+00
         22   -1    0    0    0    0  0.00000000000E+00  0.00000000000E+00  0.18265060433E+03  0.18265060433E+03  0.00000000000E+00 0. -1.
         22   -1    0    0    0    0 -0.00000000000E+00 -0.00000000000E+00 -0.27955486860E+03  0.27955486860E+03  0.00000000000E+00 0. -1.
         24    2    1    2    0    0 -0.33000779047E+02  0.17943461782E+02 -0.89319742994E+02  0.12195836999E+03  0.74059491512E+02 0.  0.
         25    2    1    2    0    0  0.11917004580E+03  0.41889197717E+02 -0.75871384089E+02  0.19329215089E+03  0.12509669849E+03 0.  0.
        -24    2    1    2    0    0 -0.86169266754E+02 -0.59832659499E+02  0.68286862812E+02  0.14695495205E+03  0.76990730761E+02 0.  0.
        -11    1    3    3    0    0  0.15244138844E+02  0.28720813019E+02 -0.26033340366E+02  0.41653375375E+02  0.00000000000E+00 0.  1.
         12    1    3    3    0    0 -0.48244917891E+02 -0.10777351237E+02 -0.63286402629E+02  0.80304994613E+02  0.00000000000E+00 0. -1.
         13    1    5    5    0    0 -0.72031384509E+02 -0.78552308513E+02  0.53854327283E+02  0.11941220245E+03  0.00000000000E+00 0. -1.
        -14    1    5    5    0    0 -0.14137882245E+02  0.18719649014E+02  0.14432535529E+02  0.27542749597E+02  0.00000000000E+00 0.  1.
          5    1    4    4  501    0  0.42799167463E+02  0.23961670626E+02 -0.99707061624E+02  0.11119757611E+03  0.41800000000E+01 0. -1.
         -5    1    4    4    0  501  0.76370878338E+02  0.17927527092E+02  0.23835677535E+02  0.82094574786E+02  0.41800000000E+01 0. -1.
</event>
<event>
11    1  0.7882745E-009  0.1458204E+03  0.7561462E-02  0.1101228E+00
         22   -1    0    0    0    0  0.00000000000E+00  0.00000000000E+00  0.23025288048E+04  0.23025288048E+04  0.00000000000E+00 0.  1.
         22   -1    0    0    0    0 -0.00000000000E+00 -0.00000000000E+00 -0.56536828385E+02  0.56536828385E+02  0.00000000000E+00 0.  1.
         24    2    1    2    0    0 -0.12792845007E+02 -0.46473461779E+02  0.10892004677E+01  0.93606990757E+02  0.80234922745E+02 0.  0.
         25    2    1    2    0    0 -0.48620824298E+02 -0.82534997759E+01  0.53077462221E+03  0.54753954836E+03  0.12508298297E+03 0.  0.
        -24    2    1    2    0    0  0.61413669306E+02  0.54726961555E+02  0.17141281537E+04  0.17179190940E+04  0.79019030652E+02 0.  0.
        -11    1    3    3    0    0 -0.29530333191E+02  0.83116034357E+01 -0.14939453375E+02  0.34121995798E+02  0.00000000000E+00 0.  1.
         12    1    3    3    0    0  0.16737488184E+02 -0.54785065215E+02  0.16028653843E+02  0.59484994960E+02  0.00000000000E+00 0. -1.
         11    1    5    5    0    0 -0.55694896899E+01  0.34526128198E+01  0.11761535158E+02  0.13463783271E+02  0.00000000000E+00 0. -1.
        -12    1    5    5    0    0  0.66983158995E+02  0.51274348735E+02  0.17023666185E+04  0.17044553107E+04  0.00000000000E+00 0.  1.
          5    1    4    4  501    0 -0.72447051797E+01  0.20141406186E+02  0.46087303344E+03  0.46138875945E+03  0.41800000000E+01 0. -1.
         -5    1    4    4    0  501 -0.41376119119E+02 -0.28394905962E+02  0.69901588764E+02  0.86150788909E+02  0.41800000000E+01 0. -1.
</event>
<event>
11    1  0.7882745E-009  0.1936729E+03  0.7561462E-02  0.1059090E+00
         22   -1    0    0    0    0  0.00000000000E+00  0.00000000000E+00  0.26565819486E+03  0.26565819486E+03  0.00000000000E+00 0. -1.
         22   -1    0    0    0    0 -0.00000000000E+00 -0.00000000000E+00 -0.79777347487E+03  0.79777347487E+03  0.00000000000E+00 0. -1.
         24    2    1    2    0    0  0.15019587684E+03  0.98163284793E+01 -0.63730340027E+03  0.65975987887E+03  0.80450680801E+02 0.  0.
         25    2    1    2    0    0 -0.13436873034E+03  0.39737337798E+02 -0.73366685656E+02  0.20165285182E+03  0.12508873000E+03 0.  0.
        -24    2    1    2    0    0 -0.15827146494E+02 -0.49553666277E+02  0.17855480592E+03  0.20201893904E+03  0.78890865148E+02 0.  0.
        -11    1    3    3    0    0 -0.86710907172E+01  0.33269162444E+01 -0.16663848141E+02  0.19077212081E+02  0.00000000000E+00 0.  1.
         12    1    3    3    0    0  0.15886696755E+03  0.64894122349E+01 -0.62063955213E+03  0.64068266679E+03  0.00000000000E+00 0. -1.
         11    1    5    5    0    0 -0.30404108065E+02 -0.50249724024E+02  0.17797326377E+03  0.18741378596E+03  0.00000000000E+00 0. -1.
        -12    1    5    5    0    0  0.14576961571E+02  0.69605774638E+00  0.58154215126E+00  0.14605153073E+02  0.00000000000E+00 0.  1.
          5    1    4    4  501    0 -0.10533497240E+03 -0.31416314488E+02 -0.33560818149E+02  0.11500540049E+03  0.41800000000E+01 0.  1.
         -5    1    4    4    0  501 -0.29033757946E+02  0.71153652286E+02 -0.39805867507E+02  0.86647451331E+02  0.41800000000E+01 0.  1.
</event>
<event>
11    1  0.7882745E-009  0.3219861E+03  0.7561462E-02  0.9912929E-01
         22   -1    0    0    0    0  0.00000000000E+00  0.00000000000E+00  0.54224733034E+03  0.54224733034E+03  0.00000000000E+00 0.  1.
         22   -1    0    0    0    0 -0.00000000000E+00 -0.00000000000E+00 -0.61397948615E+03  0.61397948615E+03  0.00000000000E+00 0. -1.
         24    2    1    2    0    0  0.12633261258E+03 -0.41773956575E+02 -0.36748592883E+03  0.39955871440E+03  0.83043759075E+02 0.  0.
         25    2    1    2    0    0  0.71406778832E+02  0.48399612617E+02 -0.17970445402E+03  0.23533682864E+03  0.12509309156E+03 0.  0.
        -24    2    1    2    0    0 -0.19773939141E+03 -0.66256560416E+01  0.47545822703E+03  0.52133127344E+03  0.81123392332E+02 0.  0.
        -11    1    3    3    0    0  0.72900645416E+02  0.30838687752E+01 -0.26996891640E+03  0.27965555630E+03  0.00000000000E+00 0.  1.
         12    1    3    3    0    0  0.53431967164E+02 -0.44857825350E+02 -0.97517012430E+02  0.11990315810E+03  0.00000000000E+00 0. -1.
         11    1    5    5    0    0 -0.17760326004E+02  0.58974143644E+01  0.13249033764E+03  0.13380544923E+03  0.00000000000E+00 0. -1.
        -12    1    5    5    0    0 -0.17997906541E+03 -0.12523070406E+02  0.34296788940E+03  0.38752582422E+03  0.00000000000E+00 0.  1.
          5    1    4    4  501    0 -0.24461630797E+02  0.50077868478E+02 -0.62270964967E+02  0.83673829663E+02  0.41800000000E+01 0.  1.
         -5    1    4    4    0  501  0.95868409628E+02 -0.16782558608E+01 -0.11743348906E+03  0.15166299898E+03  0.41800000000E+01 0.  1.
</event>
<event>
11    1  0.7882745E-009  0.1793254E+03  0.7561462E-02  0.1070190E+00
         22   -1    0    0    0    0  0.00000000000E+00  0.00000000000E+00  0.51210387126E+03  0.51210387126E+03  0.00000000000E+00 0.  1.
         22   -1    0    0    0    0 -0.00000000000E+00 -0.00000000000E+00 -0.10909064264E+04  0.10909064264E+04  0.00000000000E+00 0.  1.
         24    2    1    2    0    0 -0.42793834065E+02  0.12780141257E+02 -0.92381207315E+03  0.92835333894E+03  0.80103253276E+02 0.  0.
         25    2    1    2    0    0 -0.88001005755E+02  0.32142468973E+01 -0.11419456223E+03  0.19089940977E+03  0.12509067995E+03 0.  0.
        -24    2    1    2    0    0  0.13079483982E+03 -0.15994388155E+02  0.45920408021E+03  0.48375754898E+03  0.76091184329E+02 0.  0.
        -11    1    3    3    0    0 -0.41690217488E+02 -0.92702820513E+01 -0.85543083639E+03  0.85649630952E+03  0.00000000000E+00 0.  1.
         12    1    3    3    0    0 -0.11036165768E+01  0.22050423309E+02 -0.68381236756E+02  0.71857029426E+02  0.00000000000E+00 0. -1.
         13    1    5    5    0    0  0.13434396496E+02 -0.30159163211E+01  0.53107368608E+01  0.14757462061E+02  0.00000000000E+00 0. -1.
        -14    1    5    5    0    0  0.11736044332E+03 -0.12978471834E+02  0.45389334335E+03  0.46900008692E+03  0.00000000000E+00 0.  1.
          5    1    4    4  501    0 -0.72403347167E+01 -0.53484602036E+02 -0.43375980062E+02  0.69368387239E+02  0.41800000000E+01 0.  1.
         -5    1    4    4    0  501 -0.80760671039E+02  0.56698848933E+02 -0.70818582169E+02  0.12153102253E+03  0.41800000000E+01 0.  1.
</event>
<event>
11    1  0.7882745E-009  0.1489235E+03  0.7561462E-02  0.1097984E+00
         22   -1    0    0    0    0  0.00000000000E+00  0.00000000000E+00  0.24418628670E+04  0.24418628670E+04  0.00000000000E+00 0. -1.
         22   -1    0    0    0    0 -0.00000000000E+00 -0.00000000000E+00 -0.21976380825E+03  0.21976380825E+03  0.00000000000E+00 0.  1.
         24    2    1    2    0    0 -0.13579644846E+02 -0.47273266221E+02 -0.19702116198E+03  0.21906344826E+03  0.82172304594E+02 0.  0.
         25    2    1    2    0    0 -0.50197419889E+02 -0.12773507281E+02  0.45717500606E+03  0.47680105752E+03  0.12508924350E+03 0.  0.
        -24    2    1    2    0    0  0.63777064736E+02  0.60046773502E+02  0.19619452146E+04  0.19657621694E+04  0.85549708182E+02 0.  0.
        -13    1    3    3    0    0  0.17421998856E+02 -0.32599702230E+02 -0.17369459684E+03  0.17758400716E+03  0.00000000000E+00 0.  1.
         14    1    3    3    0    0 -0.31001643702E+02 -0.14673563991E+02 -0.23326565146E+02  0.41479441100E+02  0.00000000000E+00 0. -1.
         13    1    5    5    0    0 -0.11716722643E+02  0.43635666489E+02  0.73069655555E+03  0.73209207705E+03  0.00000000000E+00 0. -1.
        -14    1    5    5    0    0  0.75493787379E+02  0.16411107013E+02  0.12312486591E+04  0.12336700924E+04  0.00000000000E+00 0.  1.
          5    1    4    4  501    0 -0.35899870722E+02 -0.13631799164E+02  0.28840047315E+02  0.48206300370E+02  0.41800000000E+01 0. -1.
         -5    1    4    4    0  501 -0.14297549168E+02  0.85829188333E+00  0.42833495874E+03  0.42859475715E+03  0.41800000000E+01 0. -1.
</event>
<event>
11    1  0.7882745E-009  0.1303434E+03  0.7561462E-02  0.1118848E+00
         22   -1    0    0    0    0  0.00000000000E+00  0.00000000000E+00  0.19550674050E+03  0.19550674050E+03  0.00000000000E+00 0. -1.
         22   -1    0    0    0    0 -0.00000000000E+00 -0.00000000000E+00 -0.59552937738E+03  0.59552937738E+03  0.00000000000E+00 0. -1.
        -24    2    1    2    0    0  0.32475151410E+02  0.16258058172E+02 -0.47150661724E+03  0.47999344728E+03  0.82196468390E+02 0.  0.
         25    2    1    2    0    0 -0.43709078227E+02  0.57925613023E+00 -0.67737000757E+02  0.14882412221E+03  0.12509795771E+03 0.  0.
         24    2    1    2    0    0  0.11233926817E+02 -0.16837314302E+02  0.13922098112E+03  0.16221854839E+03  0.80763107873E+02 0.  0.
        -13    1    5    5    0    0 -0.14269989789E+02 -0.39496772589E+02  0.42897344369E+02  0.60031740000E+02  0.00000000000E+00 0.  1.
         14    1    5    5    0    0  0.25503916606E+02  0.22659458287E+02  0.96323636751E+02  0.10218680839E+03  0.00000000000E+00 0. -1.
         13    1    3    3    0    0  0.58951907351E+02  0.56267662239E+01 -0.36297764733E+03  0.36777678059E+03  0.00000000000E+00 0. -1.
        -14    1    3    3    0    0 -0.26476755941E+02  0.10631291948E+02 -0.10852896991E+03  0.11221666669E+03  0.00000000000E+00 0.  1.
          5    1    4    4  501    0 -0.40692880909E+02 -0.27566869486E+01 -0.10413311446E+03  0.11191375165E+03  0.41800000000E+01 0. -1.
         -5    1    4    4    0  501 -0.30161973182E+01  0.33359430788E+01  0.36396113706E+02  0.36910370567E+02  0.41800000000E+01 0. -1.
</event>
<event>
11    1  0.7882745E-009  0.1518518E+03  0.7561462E-02  0.1095001E+00
         22   -1    0    0    0    0  0.00000000000E+00  0.00000000000E+00  0.17963259195E+03  0.17963259195E+03  0.00000000000E+00 0.  1.
         22   -1    0    0    0    0 -0.00000000000E+00 -0.00000000000E+00 -0.28714365608E+04  0.28714365608E+04  0.00000000000E+00 0.  1.
         24    2    1    2    0    0  0.83253766062E+02 -0.17421496908E+02 -0.24446016746E+04  0.24474293421E+04  0.81230159731E+02 0.  0.
         25    2    1    2    0    0 -0.82296775232E+02  0.81896961751E+02 -0.39104358973E+03  0.42666527914E+03  0.12509316446E+03 0.  0.
        -24    2    1    2    0    0 -0.95699082937E+00 -0.64475464843E+02  0.14384129543E+03  0.17697453159E+03  0.80446660361E+02 0.  0.
        -13    1    3    3    0    0  0.60898114742E+02  0.21853117362E+02 -0.18417923097E+04  0.18429283901E+04  0.00000000000E+00 0.  1.
         14    1    3    3    0    0  0.22355651320E+02 -0.39274614270E+02 -0.60280936492E+03  0.60450095195E+03  0.00000000000E+00 0. -1.
         13    1    5    5    0    0  0.66085590054E+01  0.11762032865E+02 -0.56595518291E+00  0.13503287544E+02  0.00000000000E+00 0. -1.
        -14    1    5    5    0    0 -0.75655498347E+01 -0.76237497708E+02  0.14440725061E+03  0.16347124405E+03  0.00000000000E+00 0.  1.
          5    1    4    4  501    0 -0.36095572532E+02  0.17693945520E+02 -0.31254783657E+03  0.31515010489E+03  0.41800000000E+01 0. -1.
         -5    1    4    4    0  501 -0.46201202700E+02  0.64203016231E+02 -0.78495753152E+02  0.11151517425E+03  0.41800000000E+01 0. -1.
</event>
<event>
11    1  0.7882745E-009  0.1571975E+03  0.7561462E-02  0.1089743E+00
         22   -1    0    0    0    0  0.00000000000E+00  0.00000000000E+00  0.11522026499E+04  0.11522026499E+04  0.00000000000E+00 0. -1.
         22   -1    0    0    0    0 -0.00000000000E+00 -0.00000000000E+00 -0.28010738224E+03  0.28010738224E+03  0.00000000000E+00 0.  1.
         24    2    1    2    0    0  0.85334805875E+02 -0.61849851339E+01 -0.22257684171E+03  0.25194695589E+03  0.81342086160E+02 0.  0.
         25    2    1    2    0    0 -0.15898463309E+03  0.53446690325E+02  0.24569396449E+03  0.32271594288E+03  0.12508954127E+03 0.  0.
        -24    2    1    2    0    0  0.73649827220E+02 -0.47261705192E+02  0.84897814489E+03  0.85764713339E+03  0.84479281969E+02 0.  0.
        -13    1    3    3    0    0  0.12005308683E+02 -0.16072857919E+02 -0.13850838030E+03  0.13995369096E+03  0.00000000000E+00 0.  1.
         14    1    3    3    0    0  0.73329497192E+02  0.98878727855E+01 -0.84068461406E+02  0.11199326493E+03  0.00000000000E+00 0. -1.
         11    1    5    5    0    0  0.72607159137E+02 -0.57115048907E+02  0.83708681075E+03  0.84216878184E+03  0.00000000000E+00 0. -1.
        -12    1    5    5    0    0  0.10426680828E+01  0.98533437153E+01  0.11891334137E+02  0.15478351548E+02  0.00000000000E+00 0.  1.
          5    1    4    4  501    0 -0.73356215584E+02  0.11104102485E+02  0.20634761891E+03  0.21931996646E+03  0.41800000000E+01 0.  1.
         -5    1    4    4    0  501 -0.85628417510E+02  0.42342587841E+02  0.39346345585E+02  0.10339597643E+03  0.41800000000E+01 0.  1.
</event>
<event>
11    1  0.7882745E-009  0.1421421E+03  0.7561462E-02  0.1105190E+00
         22   -1    0    0    0    0  0.00000000000E+00  0.00000000000E+00  0.40369198773E+03  0.40369198773E+03  0.00000000000E+00 0. -1.
         22   -1    0    0    0    0 -0.00000000000E+00 -0.00000000000E+00 -0.65094737295E+03  0.65094737295E+03  0.00000000000E+00 0. -1.
        -24    2    1    2    0    0 -0.26035399247E+02  0.31574353061E+02 -0.39111101131E+03  0.40165697905E+03  0.81766275852E+02 0.  0.
         25    2    1    2    0    0  0.32988180420E+01  0.33173847498E+02 -0.23019754580E+03  0.26410136514E+03  0.12508890686E+03 0.  0.
         24    2    1    2    0    0  0.22736581205E+02 -0.64748200560E+02  0.37405317189E+03  0.38888101649E+03  0.81261232989E+02 0.  0.
        -11    1    5    5    0    0  0.25229196277E+02  0.12858863039E+02  0.85742324524E+02  0.90297336163E+02  0.00000000000E+00 0.  1.
         12    1    5    5    0    0 -0.24926150710E+01 -0.77607063599E+02  0.28831084737E+03  0.29858368033E+03  0.00000000000E+00 0. -1.
         13    1    3    3    0    0  0.86761805567E+01  0.21795200747E+02 -0.32900284585E+03  0.32983811099E+03  0.00000000000E+00 0. -1.
        -14    1    3    3    0    0 -0.34711579804E+02  0.97791523148E+01 -0.62108165458E+02  0.71818868058E+02  0.00000000000E+00 0.  1.
          5    1    4    4  501    0 -0.18614878639E+02 -0.31238813865E+02 -0.17165494776E+02  0.40428997135E+02  0.41800000000E+01 0. -1.
         -5    1    4    4    0  501  0.21913696681E+02  0.64412661363E+02 -0.21303205102E+03  0.22367236800E+03  0.41800000000E+01 0. -1.
</event>
<event>
11    1  0.7882745E-009  0.1731742E+03  0.7561462E-02  0.1075302E+00
         22   -1    0    0    0    0  0.00000000000E+00  0.00000000000E+00  0.26525423764E+04  0.26525423764E+04  0.00000000000E+00 0.  1.
         22   -1    0    0    0    0 -0.00000000000E+00 -0.00000000000E+00 -0.27901838366E+03  0.27901838366E+03  0.00000000000E+00 0.  1.
        -24    2    1    2    0    0  0.98102304153E+02  0.68194845124E+02 -0.25026933629E+03  0.29042291798E+03  0.86233007716E+02 0.  0.
         25    2    1    2    0    0 -0.10982834103E+03 -0.79648230537E+02  0.11309479484E+04  0.11459044726E+04  0.12509073981E+03 0.  0.
         24    2    1    2    0    0  0.11726036876E+02  0.11453385413E+02  0.14928453807E+04  0.14952333695E+04  0.82866270640E+02 0.  0.
        -13    1    5    5    0    0  0.15537011426E+02  0.26633073361E+02  0.14343226529E+04  0.14346540322E+04  0.00000000000E+00 0.  1.
         14    1    5    5    0    0 -0.38109745497E+01 -0.15179687948E+02  0.58522727711E+02  0.60579337335E+02  0.00000000000E+00 0. -1.
         13    1    3    3    0    0  0.34435143494E+02  0.53473346726E+02 -0.53580208561E+02  0.83162591752E+02  0.00000000000E+00 0. -1.
        -14    1    3    3    0    0  0.63667160660E+02  0.14721498398E+02 -0.19668912773E+03  0.20726032623E+03  0.00000000000E+00 0.  1.
          5    1    4    4  501    0 -0.11341164998E+03 -0.16039426555E+02  0.57576835949E+03  0.58706570480E+03  0.41800000000E+01 0.  1.
         -5    1    4    4    0  501  0.35833089508E+01 -0.63608803982E+02  0.55517958888E+03  0.55883876777E+03  0.41800000000E+01 0.  1.
</event>
<event>
11    1  0.7882745E-009  0.1292548E+03  0.7561462E-02  0.1120188E+00
         22   -1    0    0    0    0  0.00000000000E+00  0.00000000000E+00  0.16338004808E+04  0.16338004808E+04  0.00000000000E+00 0. -1.
         22   -1    0    0    0    0 -0.00000000000E+00 -0.00000000000E+00 -0.90935578182E+02  0.90935578182E+02  0.00000000000E+00 0. -1.
         24    2    1    2    0    0  0.27344159364E+01 -0.15912360552E+02 -0.42825328836E+02  0.92390296397E+02  0.80257571790E+02 0.  0.
         25    2    1    2    0    0 -0.66198791322E+01  0.47339189277E+02  0.18134659717E+03  0.22542926416E+03  0.12508774197E+03 0.  0.
        -24    2    1    2    0    0  0.38854631958E+01 -0.31426828725E+02  0.14043436342E+04  0.14069164984E+04  0.78931920095E+02 0.  0.
        -11    1    3    3    0    0 -0.22335564448E+02 -0.40449492019E+02 -0.18866742868E+02  0.49909847027E+02  0.00000000000E+00 0.  1.
         12    1    3    3    0    0  0.25069980385E+02  0.24537131467E+02 -0.23958585968E+02  0.42480449370E+02  0.00000000000E+00 0. -1.
         11    1    5    5    0    0  0.35699356029E+02 -0.26165129566E+02  0.10955570092E+04  0.10964507369E+04  0.00000000000E+00 0. -1.
        -12    1    5    5    0    0 -0.31813892834E+02 -0.52616991588E+01  0.30878662505E+03  0.31046576150E+03  0.00000000000E+00 0.  1.
          5    1    4    4  501    0  0.30765057990E+02  0.53214505126E+02  0.28446032816E+02  0.67859572147E+02  0.41800000000E+01 0.  1.
         -5    1    4    4    0  501 -0.37384937122E+02 -0.58753158491E+01  0.15290056436E+03  0.15756969201E+03  0.41800000000E+01 0.  1.
</event>
<event>
11    1  0.7882745E-009  0.1670069E+03  0.7561462E-02  0.1080666E+00
         22   -1    0    0    0    0  0.00000000000E+00  0.00000000000E+00  0.25431478746E+03  0.25431478746E+03  0.00000000000E+00 0. -1.
         22   -1    0    0    0    0 -0.00000000000E+00 -0.00000000000E+00 -0.10927009551E+04  0.10927009551E+04  0.00000000000E+00 0.  1.
         24    2    1    2    0    0  0.11681865781E+02 -0.71071849914E+02 -0.41907570117E+03  0.43281844716E+03  0.80744603855E+02 0.  0.
         25    2    1    2    0    0 -0.12137352163E+03  0.57294029774E+02 -0.63426403958E+03  0.66026669959E+03  0.12508838908E+03 0.  0.
        -24    2    1    2    0    0  0.10969165585E+03  0.13777820141E+02  0.21495357306E+03  0.25393059586E+03  0.77805020725E+02 0.  0.
        -11    1    3    3    0    0 -0.21022606010E+02 -0.71135233135E+02 -0.31999185424E+03  0.32847672389E+03  0.00000000000E+00 0.  1.
         12    1    3    3    0    0  0.32704471791E+02  0.63383220573E-01 -0.99083846926E+02  0.10434172327E+03  0.00000000000E+00 0. -1.
         11    1    5    5    0    0  0.88719765818E+02  0.36462166249E+02  0.19453998952E+03  0.21690203765E+03  0.00000000000E+00 0. -1.
        -12    1    5    5    0    0  0.20971890035E+02 -0.22684346109E+02  0.20413583541E+02  0.37028558209E+02  0.00000000000E+00 0.  1.
          5    1    4    4  501    0 -0.90723699369E+02 -0.11469717862E+02 -0.20611237331E+03  0.22552633302E+03  0.41800000000E+01 0.  1.
         -5    1    4    4    0  501 -0.30649822266E+02  0.68763747636E+02 -0.42815166627E+03  0.43474036657E+03  0.41800000000E+01 0.  1.
</event>
<event>
11    1  0.7882745E-009  0.1475577E+03  0.7561462E-02  0.1099401E+00
         22   -1    0    0    0    0  0.00000000000E+00  0.00000000000E+00  0.13308201814E+04  0.13308201814E+04  0.00000000000E+00 0. -1.
         22   -1    0    0    0    0 -0.00000000000E+00 -0.00000000000E+00 -0.93009738495E+02  0.93009738495E+02  0.00000000000E+00 0. -1.
        -24    2    1    2    0    0 -0.82733173655E+01 -0.45308350621E+02 -0.32560920471E+02  0.97906385584E+02  0.80025948167E+02 0.  0.
         25    2    1    2    0    0  0.74085615556E+02  0.81435766410E+02  0.25494779824E+03  0.30457557450E+03  0.12508972089E+03 0.  0.
         24    2    1    2    0    0 -0.65812298190E+02 -0.36127415789E+02  0.10154235651E+04  0.10213479598E+04  0.80188463047E+02 0.  0.
        -13    1    5    5    0    0 -0.47958104781E+02 -0.22171167966E+02  0.24687920381E+03  0.25246956604E+03  0.00000000000E+00 0.  1.
         14    1    5    5    0    0 -0.17854193410E+02 -0.13956247823E+02  0.76854436132E+03  0.76887839376E+03  0.00000000000E+00 0. -1.
         11    1    3    3    0    0 -0.40977101090E+02 -0.14233881898E+02 -0.29958810204E+02  0.52718654350E+02  0.00000000000E+00 0. -1.
        -12    1    3    3    0    0  0.32703783724E+02 -0.31074468723E+02 -0.26021102669E+01  0.45187731235E+02  0.00000000000E+00 0.  1.
          5    1    4    4  501    0  0.56611420378E+02  0.11516944345E+03  0.19832229632E+03  0.23625845856E+03  0.41800000000E+01 0. -1.
         -5    1    4    4    0  501  0.17474195177E+02 -0.33733677038E+02  0.56625501915E+02  0.68317115943E+02  0.41800000000E+01 0. -1.
</event>
<event>
11    1  0.7882745E-009  0.1700761E+03  0.7561462E-02  0.1077965E+00
         22   -1    0    0    0    0  0.00000000000E+00  0.00000000000E+00  0.21350791667E+04  0.21350791667E+04  0.00000000000E+00 0. -1.
         22   -1    0    0    0    0 -0.00000000000E+00 -0.00000000000E+00 -0.11909010830E+03  0.11909010830E+03  0.00000000000E+00 0. -1.
         24    2    1    2    0    0 -0.35456207985E+01  0.57990456817E+02 -0.59096001444E+02  0.11532681178E+03  0.80202690860E+02 0.  0.
         25    2    1    2    0    0  0.72989084811E+02 -0.14478220780E+03  0.33015170944E+03  0.38851293911E+03  0.12511138401E+03 0.  0.
        -24    2    1    2    0    0 -0.69443464013E+02  0.86791750986E+02  0.17449333504E+04  0.17503295241E+04  0.80658805512E+02 0.  0.
        -11    1    3    3    0    0  0.72090892781E+01  0.17373647631E+02  0.18943098050E+02  0.26695609451E+02  0.00000000000E+00 0.  1.
         12    1    3    3    0    0 -0.10754710077E+02  0.40616809186E+02 -0.78039099494E+02  0.88631202334E+02  0.00000000000E+00 0. -1.
         13    1    5    5    0    0 -0.39392654442E+02  0.93632241240E+02  0.11065981711E+04  0.11112507773E+04  0.00000000000E+00 0. -1.
        -14    1    5    5    0    0 -0.30050809571E+02 -0.68404902538E+01  0.63833517933E+03  0.63907874681E+03  0.00000000000E+00 0.  1.
          5    1    4    4  501    0  0.51323536204E+02 -0.89708026737E+02  0.78200564894E+02  0.12967049078E+03  0.41800000000E+01 0. -1.
         -5    1    4    4    0  501  0.21665548607E+02 -0.55074181066E+02  0.25195114455E+03  0.25884244833E+03  0.41800000000E+01 0. -1.
</event>
<event>
11    1  0.7882745E-009  0.1417493E+03  0.7561462E-02  0.1105621E+00
         22   -1    0    0    0    0  0.00000000000E+00  0.00000000000E+00  0.12719540483E+04  0.12719540483E+04  0.00000000000E+00 0. -1.
         22   -1    0    0    0    0 -0.00000000000E+00 -0.00000000000E+00 -0.25855977760E+04  0.25855977760E+04  0.00000000000E+00 0. -1.
         24    2    1    2    0    0 -0.49258087185E+02  0.27873288879E+01 -0.25400269578E+04  0.25417776621E+04  0.80390354296E+02 0.  0.
         25    2    1    2    0    0 -0.11187798085E+02  0.30815722628E+02  0.56911644246E+02  0.14128310651E+03  0.12508878986E+03 0.  0.
        -24    2    1    2    0    0  0.60445885270E+02 -0.33603051515E+02  0.11694715858E+04  0.11744910557E+04  0.83561831207E+02 0.  0.
        -11    1    3    3    0    0 -0.56972954017E+02  0.13646912960E+01 -0.93698102007E+03  0.93871252886E+03  0.00000000000E+00 0.  1.
         12    1    3    3    0    0  0.77148668324E+01  0.14226375919E+01 -0.16030459377E+04  0.16030651333E+04  0.00000000000E+00 0. -1.
         13    1    5    5    0    0  0.83755367700E+01 -0.11494898267E+02  0.84537068603E+03  0.84549031875E+03  0.00000000000E+00 0. -1.
        -14    1    5    5    0    0  0.52070348500E+02 -0.22108153248E+02  0.32410089979E+03  0.32900073690E+03  0.00000000000E+00 0.  1.
          5    1    4    4  501    0 -0.15326022230E+02  0.49719410850E+02 -0.24384825430E+02  0.57610753197E+02  0.41800000000E+01 0. -1.
         -5    1    4    4    0  501  0.41382241457E+01 -0.18903688222E+02  0.81296469676E+02  0.83672353315E+02  0.41800000000E+01 0. -1.
</event>
<event>
11    1  0.7882745E-009  0.1435345E+03  0.7561462E-02  0.1103675E+00
         22   -1    0    0    0    0  0.00000000000E+00  0.00000000000E+00  0.49289935945E+03  0.49289935945E+03  0.00000000000E+00 0.  1.
         22   -1    0    0    0    0 -0.00000000000E+00 -0.00000000000E+00 -0.12112104373E+04  0.12112104373E+04  0.00000000000E+00 0. -1.
        -24    2    1    2    0    0 -0.63503637094E+02  0.17928038008E+02 -0.76776906952E+03  0.77489389798E+03  0.81468291618E+02 0.  0.
         25    2    1    2    0    0  0.73254043926E+02 -0.56432501341E+02 -0.42174609844E+03  0.44951989613E+03  0.12509030063E+03 0.  0.
         24    2    1    2    0    0 -0.97504068315E+01  0.38504463334E+02  0.47120409006E+03  0.47969600269E+03  0.80605808558E+02 0.  0.
        -11    1    5    5    0    0 -0.19218836327E+02  0.20302622930E+02  0.44738925951E+03  0.44826187624E+03  0.00000000000E+00 0.  1.
         12    1    5    5    0    0  0.94684294952E+01  0.18201840403E+02  0.23814830554E+02  0.31434126447E+02  0.00000000000E+00 0. -1.
         13    1    3    3    0    0 -0.35636694192E+02  0.40825213368E+02 -0.63515817968E+03  0.63746575220E+03  0.00000000000E+00 0. -1.
        -14    1    3    3    0    0 -0.27866942903E+02 -0.22897175361E+02 -0.13261088984E+03  0.13742814577E+03  0.00000000000E+00 0.  1.
          5    1    4    4  501    0  0.80666008973E+02  0.13812708570E+02 -0.26849720852E+03  0.28072409819E+03  0.41800000000E+01 0. -1.
         -5    1    4    4    0  501 -0.74119650470E+01 -0.70245209911E+02 -0.15324888991E+03  0.16879579794E+03  0.41800000000E+01 0. -1.
</event>
<event>
11    1  0.7882745E-009  0.1929754E+03  0.7561462E-02  0.1059605E+00
         22   -1    0    0    0    0  0.00000000000E+00  0.00000000000E+00  0.51130062372E+03  0.51130062372E+03  0.00000000000E+00 0. -1.
         22   -1    0    0    0    0 -0.00000000000E+00 -0.00000000000E+00 -0.41240437046E+03  0.41240437046E+03  0.00000000000E+00 0. -1.
        -24    2    1    2    0    0  0.64533627562E+02 -0.14817384200E+03 -0.24427407785E+03  0.30390468318E+03  0.81044153447E+02 0.  0.
         25    2    1    2    0    0 -0.28230823394E+02  0.11704119414E+03 -0.76615312559E+02  0.18977245402E+03  0.12509219667E+03 0.  0.
         24    2    1    2    0    0 -0.36302804168E+02  0.31132647852E+02  0.41978564367E+03  0.43002785699E+03  0.80105154670E+02 0.  0.
        -13    1    5    5    0    0  0.10283852052E+02 -0.20885154002E+02  0.93622231915E+02  0.96473154709E+02  0.00000000000E+00 0.  1.
         14    1    5    5    0    0 -0.46586656220E+02  0.52017801853E+02  0.32616341176E+03  0.33355470229E+03  0.00000000000E+00 0. -1.
         11    1    3    3    0    0  0.71663773234E+02 -0.94003912916E+02 -0.20492534124E+03  0.23657309128E+03  0.00000000000E+00 0. -1.
        -12    1    3    3    0    0 -0.71301456723E+01 -0.54169929080E+02 -0.39348736615E+02  0.67331591895E+02  0.00000000000E+00 0.  1.
          5    1    4    4  501    0 -0.13626577745E+02  0.78702953663E+02 -0.11049255692E+03  0.13640350462E+03  0.41800000000E+01 0.  1.
         -5    1    4    4    0  501 -0.14604245648E+02  0.38338240482E+02  0.33877244364E+02  0.53368949399E+02  0.41800000000E+01 0.  1.
</event>
<event>
11    1  0.7882745E-009  0.1564119E+03  0.7561462E-02  0.1090501E+00
         22   -1    0    0    0    0  0.00000000000E+00  0.00000000000E+00  0.19008433076E+04  0.19008433076E+04  0.00000000000E+00 0.  1.
         22   -1    0    0    0    0 -0.00000000000E+00 -0.00000000000E+00 -0.16749454026E+03  0.16749454026E+03  0.00000000000E+00 0.  1.
        -24    2    1    2    0    0 -0.76782406751E+02 -0.24251170847E+02 -0.83408649075E+02  0.14029921434E+03  0.79013983127E+02 0.  0.
         25    2    1    2    0    0  0.43167282782E+02  0.11207305859E+03  0.87288174264E+02  0.19414089929E+03  0.12509068168E+03 0.  0.
         24    2    1    2    0    0  0.33615123969E+02 -0.87821887745E+02  0.17294692421E+04  0.17338977342E+04  0.80590524820E+02 0.  0.
        -13    1    5    5    0    0  0.32137956511E+02 -0.39698579884E+02  0.13997793321E+04  0.14007108924E+04  0.00000000000E+00 0.  1.
         14    1    5    5    0    0  0.14771674585E+01 -0.48123307861E+02  0.32968991005E+03  0.33318684184E+03  0.00000000000E+00 0. -1.
         13    1    3    3    0    0 -0.27156069672E+01 -0.30546053512E+02 -0.30273946330E+01  0.30815597100E+02  0.00000000000E+00 0. -1.
        -14    1    3    3    0    0 -0.74066799784E+02  0.62948826652E+01 -0.80381254442E+02  0.10948361724E+03  0.00000000000E+00 0.  1.
          5    1    4    4  501    0  0.49363313755E+02  0.79708201605E+02  0.11671346950E+03  0.14976528473E+03  0.41800000000E+01 0. -1.
         -5    1    4    4    0  501 -0.61960309736E+01  0.32364856987E+02 -0.29425295233E+02  0.44375614556E+02  0.41800000000E+01 0. -1.
</event>
<event>
11    1  0.7882745E-009  0.1339129E+03  0.7561462E-02  0.1114553E+00
         22   -1    0    0    0    0  0.00000000000E+00  0.00000000000E+00  0.66924189005E+03  0.66924189005E+03  0.00000000000E+00 0. -1.
         22   -1    0    0    0    0 -0.00000000000E+00 -0.00000000000E+00 -0.31617986296E+03  0.31617986296E+03  0.00000000000E+00 0.  1.
         24    2    1    2    0    0  0.33948392079E+02  0.34783245379E+02 -0.27947242867E+03  0.29539879682E+03  0.82421133783E+02 0.  0.
         25    2    1    2    0    0 -0.44871195917E+02  0.32838201757E+01  0.15547719338E+03  0.20456197318E+03  0.12509290752E+03 0.  0.
        -24    2    1    2    0    0  0.10922803838E+02 -0.38067065555E+02  0.47705726237E+03  0.48546098301E+03  0.80748531415E+02 0.  0.
        -11    1    3    3    0    0  0.58648501594E+02  0.12633832491E+02 -0.21015943341E+03  0.21855490824E+03  0.00000000000E+00 0.  1.
         12    1    3    3    0    0 -0.24700109515E+02  0.22149412888E+02 -0.69312995257E+02  0.76843888584E+02  0.00000000000E+00 0. -1.
         13    1    5    5    0    0  0.34788824067E+02 -0.34952804229E+02  0.42785198458E+03  0.43068466599E+03  0.00000000000E+00 0. -1.
        -14    1    5    5    0    0 -0.23866020229E+02 -0.31142613258E+01  0.49205277788E+02  0.54776317030E+02  0.00000000000E+00 0.  1.
          5    1    4    4  501    0  0.31712861797E-01  0.32661187960E+01  0.15922141078E+03  0.15930975673E+03  0.41800000000E+01 0.  1.
         -5    1    4    4    0  501 -0.44902908779E+02  0.17701379788E-01 -0.37442173963E+01  0.45252216455E+02  0.41800000000E+01 0.  1.
</event>
<event>
11    1  0.7882745E-009  0.1254952E+03  0.7561462E-02  0.1124931E+00
         22   -1    0    0    0    0  0.00000000000E+00  0.00000000000E+00  0.20970633498E+03  0.20970633498E+03  0.00000000000E+00 0. -1.
         22   -1    0    0    0    0 -0.00000000000E+00 -0.00000000000E+00 -0.38247567393E+03  0.38247567393E+03  0.00000000000E+00 0. -1.
        -24    2    1    2    0    0  0.13983827466E+02  0.16308488414E+01 -0.25914255429E+03  0.27103852933E+03  0.78158901202E+02 0.  0.
         25    2    1    2    0    0 -0.78986251108E+01 -0.10302702012E+02 -0.71185394244E+02  0.14450930881E+03  0.12508815304E+03 0.  0.
         24    2    1    2    0    0 -0.60852023554E+01  0.86718531703E+01  0.15755860959E+03  0.17663417077E+03  0.79137122154E+02 0.  0.
        -13    1    5    5    0    0  0.22169102037E+02 -0.94334117211E+01  0.11365264524E+02  0.26638835927E+02  0.00000000000E+00 0.  1.
         14    1    5    5    0    0 -0.28254304392E+02  0.18105264891E+02  0.14619334506E+03  0.14999533484E+03  0.00000000000E+00 0. -1.
         13    1    3    3    0    0  0.20149714069E+02 -0.20591974218E+02 -0.23804422740E+03  0.23978134743E+03  0.00000000000E+00 0. -1.
        -14    1    3    3    0    0 -0.61658866031E+01  0.22222823060E+02 -0.21098326895E+02  0.31257181896E+02  0.00000000000E+00 0.  1.
          5    1    4    4  501    0 -0.96452477528E+01 -0.34067632692E+02 -0.10042079971E+03  0.10656192480E+03  0.41800000000E+01 0. -1.
         -5    1    4    4    0  501  0.17466226420E+01  0.23764930680E+02  0.29235405467E+02  0.37947384017E+02  0.41800000000E+01 0. -1.
</event>
<event>
11    1  0.7882745E-009  0.3495639E+03  0.7561462E-02  0.9811542E-01
         22   -1    0    0    0    0  0.00000000000E+00  0.00000000000E+00  0.10763665481E+04  0.10763665481E+04  0.00000000000E+00 0.  1.
         22   -1    0    0    0    0 -0.00000000000E+00 -0.00000000000E+00 -0.15065089199E+04  0.15065089199E+04  0.00000000000E+00 0.  1.
        -24    2    1    2    0    0  0.67915899715E+02  0.29781842964E+01 -0.98583479509E+03  0.99144641516E+03  0.80463108971E+02 0.  0.
         25    2    1    2    0    0 -0.16344902201E+03  0.30815328899E+03 -0.41978360408E+03  0.55994902355E+03  0.12510236772E+03 0.  0.
         24    2    1    2    0    0  0.95533122297E+02 -0.31113147328E+03  0.97547602738E+03  0.10314800293E+04  0.80425118516E+02 0.  0.
        -13    1    5    5    0    0  0.10041247721E+03 -0.26917452038E+03  0.77339792248E+03  0.82503450504E+03  0.00000000000E+00 0.  1.
         14    1    5    5    0    0 -0.48793549081E+01 -0.41956952899E+02  0.20207810490E+03  0.20644552425E+03  0.00000000000E+00 0. -1.
         11    1    3    3    0    0  0.33849723687E+02  0.21505215646E+02 -0.16905392811E+03  0.17374552858E+03  0.00000000000E+00 0. -1.
        -12    1    3    3    0    0  0.34066176028E+02 -0.18527031350E+02 -0.81678086698E+03  0.81770088658E+03  0.00000000000E+00 0.  1.
          5    1    4    4  501    0 -0.12923466127E+03  0.14010762358E+03 -0.27957672231E+03  0.33839674927E+03  0.41800000000E+01 0.  1.
         -5    1    4    4    0  501 -0.34214360741E+02  0.16804566540E+03 -0.14020688177E+03  0.22155227428E+03  0.41800000000E+01 0.  1.
</event>
<event>
11    1  0.7882745E-009  0.1423636E+03  0.7561462E-02  0.1104947E+00
         22   -1    0    0    0    0  0.00000000000E+00  0.00000000000E+00  0.87467652879E+03  0.87467652879E+03  0.00000000000E+00 0. -1.
         22   -1    0    0    0    0 -0.00000000000E+00 -0.00000000000E+00 -0.20379231995E+03  0.20379231995E+03  0.00000000000E+00 0.  1.
        -24    2    1    2    0    0 -0.51074552724E+02 -0.41617937308E+02 -0.15481685475E+03  0.18663950952E+03  0.80779857367E+02 0.  0.
         25    2    1    2    0    0  0.76219506445E+02  0.56256017313E+02  0.17307588084E+03  0.23361694994E+03  0.12508983221E+03 0.  0.
         24    2    1    2    0    0 -0.25144953721E+02 -0.14638080004E+02  0.65262518275E+03  0.65821238929E+03  0.80482160599E+02 0.  0.
        -11    1    5    5    0    0  0.14360350995E+02 -0.35888194467E+02  0.37494166211E+03  0.37692894843E+03  0.00000000000E+00 0.  1.
         12    1    5    5    0    0 -0.39505304716E+02  0.21250114462E+02  0.27768352064E+03  0.28128344085E+03  0.00000000000E+00 0. -1.
         11    1    3    3    0    0 -0.32501038212E+02 -0.65212682905E+02 -0.95161526675E+02  0.11985294179E+03  0.00000000000E+00 0. -1.
        -12    1    3    3    0    0 -0.18573514513E+02  0.23594745596E+02 -0.59655328073E+02  0.66786567726E+02  0.00000000000E+00 0.  1.
          5    1    4    4  501    0 -0.27666776192E+01 -0.32624662917E+02  0.64904642001E+02  0.72815575866E+02  0.41800000000E+01 0. -1.
         -5    1    4    4    0  501  0.78986184065E+02  0.88880680229E+02  0.10817123884E+03  0.16080137407E+03  0.41800000000E+01 0. -1.
</event>
<event>
11    1  0.7882745E-009  0.1333957E+03  0.7561462E-02  0.1115166E+00
         22   -1    0    0    0    0  0.00000000000E+00  0.00000000000E+00  0.16166433341E+03  0.16166433341E+03  0.00000000000E+00 0.  1.
         22   -1    0    0    0    0 -0.00000000000E+00 -0.00000000000E+00 -0.13136044667E+04  0.13136044667E+04  0.00000000000E+00 0.  1.
        -24    2    1    2    0    0 -0.97500601648E+01  0.43317866349E+01 -0.10705462261E+04  0.10735080570E+04  0.78971502721E+02 0.  0.
         25    2    1    2    0    0 -0.37072276773E+02 -0.18766928273E+01 -0.20710891492E+03  0.24480192921E+03  0.12512396343E+03 0.  0.
         24    2    1    2    0    0  0.46822336938E+02 -0.24550938075E+01  0.12571500778E+03  0.15695881383E+03  0.81445978029E+02 0.  0.
        -11    1    5    5    0    0  0.33415239756E+01  0.33896793224E+02  0.68088173257E+02  0.76132501015E+02  0.00000000000E+00 0.  1.
         12    1    5    5    0    0  0.43480812962E+02 -0.36351887032E+02  0.57626834518E+02  0.80826312815E+02  0.00000000000E+00 0. -1.
         13    1    3    3    0    0 -0.19548528857E+02 -0.10262116961E+02 -0.85487932421E+02  0.88292936380E+02  0.00000000000E+00 0. -1.
        -14    1    3    3    0    0  0.97984686920E+01  0.14593903596E+02 -0.98505829368E+03  0.98521512065E+03  0.00000000000E+00 0.  1.
          5    1    4    4  501    0 -0.24326878590E+02  0.50360486422E+02 -0.39151436461E+02  0.68397975054E+02  0.41800000000E+01 0.  1.
         -5    1    4    4    0  501 -0.12745398184E+02 -0.52237179249E+02 -0.16795747846E+03  0.17640395415E+03  0.41800000000E+01 0.  1.
</event>
<event>
11    1  0.7882745E-009  0.1267315E+03  0.7561462E-02  0.1123351E+00
         22   -1    0    0    0    0  0.00000000000E+00  0.00000000000E+00  0.25126897944E+04  0.25126897944E+04  0.00000000000E+00 0.  1.
         22   -1    0    0    0    0 -0.00000000000E+00 -0.00000000000E+00 -0.22667243656E+03  0.22667243656E+03  0.00000000000E+00 0.  1.
        -24    2    1    2    0    0  0.19231448125E+02 -0.94055604421E+01 -0.19727380013E+03  0.21452013127E+03  0.81508412674E+02 0.  0.
         25    2    1    2    0    0  0.40490676956E+01 -0.25330383478E+01  0.17557496696E+03  0.21563398826E+03  0.12509451083E+03 0.  0.
         24    2    1    2    0    0 -0.23280515821E+02  0.11938598790E+02  0.23077161910E+04  0.23092081114E+04  0.78762751807E+02 0.  0.
        -13    1    5    5    0    0 -0.46478094341E+02 -0.62611481538E+01  0.18182098685E+04  0.18188145978E+04  0.00000000000E+00 0.  1.
         14    1    5    5    0    0  0.23197578520E+02  0.18199746944E+02  0.48950632244E+03  0.49039351357E+03  0.00000000000E+00 0. -1.
         13    1    3    3    0    0  0.44265568986E+01 -0.33792545776E+02 -0.31826322783E+02  0.46630948713E+02  0.00000000000E+00 0. -1.
        -14    1    3    3    0    0  0.14804891227E+02  0.24386985334E+02 -0.16544747735E+03  0.16788918256E+03  0.00000000000E+00 0.  1.
          5    1    4    4  501    0 -0.36766455311E+02  0.47647783829E+02  0.81985465991E+02  0.10178984514E+03  0.41800000000E+01 0.  1.
         -5    1    4    4    0  501  0.40815523007E+02 -0.50180822176E+02  0.93589500966E+02  0.11384414312E+03  0.41800000000E+01 0.  1.
</event>
<event>
11    1  0.7882745E-009  0.2826741E+03  0.7561462E-02  0.1007803E+00
         22   -1    0    0    0    0  0.00000000000E+00  0.00000000000E+00  0.42552735142E+03  0.42552735142E+03  0.00000000000E+00 0. -1.
         22   -1    0    0    0    0 -0.00000000000E+00 -0.00000000000E+00 -0.14215483496E+04  0.14215483496E+04  0.00000000000E+00 0. -1.
        -24    2    1    2    0    0 -0.13151708815E+03  0.21623460210E+03 -0.12781162566E+04  0.13054561274E+04  0.81119587716E+02 0.  0.
         25    2    1    2    0    0  0.11574970739E+03 -0.23183236698E+03  0.46348349115E+02  0.29145428766E+03  0.12511271394E+03 0.  0.
         24    2    1    2    0    0  0.15767380758E+02  0.15597764882E+02  0.23574690938E+03  0.25016528591E+03  0.80710373719E+02 0.  0.
        -11    1    5    5    0    0 -0.18628720584E+02  0.13787445227E+02  0.17048286449E+02  0.28770939285E+02  0.00000000000E+00 0.  1.
         12    1    5    5    0    0  0.34396101342E+02  0.18103196556E+01  0.21869862293E+03  0.22139434662E+03  0.00000000000E+00 0. -1.
         11    1    3    3    0    0 -0.12285729847E+03  0.12914245768E+03 -0.86049347565E+03  0.87876089569E+03  0.00000000000E+00 0. -1.
        -12    1    3    3    0    0 -0.86597896779E+01  0.87092144420E+02 -0.41762278099E+03  0.42669523172E+03  0.00000000000E+00 0.  1.
          5    1    4    4  501    0  0.67023285735E+02 -0.66074190543E+02  0.69523633341E+02  0.11708512920E+03  0.41800000000E+01 0. -1.
         -5    1    4    4    0  501  0.48726421654E+02 -0.16575817644E+03 -0.23175284225E+02  0.17436915846E+03  0.41800000000E+01 0. -1.
</event>
<event>
11    1  0.7882745E-009  0.1379298E+03  0.7561462E-02  0.1109892E+00
         22   -1    0    0    0    0  0.00000000000E+00  0.00000000000E+00  0.24902013781E+03  0.24902013781E+03  0.00000000000E+00 0. -1.
         22   -1    0    0    0    0 -0.00000000000E+00 -0.00000000000E+00 -0.11897421965E+04  0.11897421965E+04  0.00000000000E+00 0.  1.
        -24    2    1    2    0    0  0.52209098316E+01 -0.47494575261E+02 -0.32472714063E+03  0.33825854645E+03  0.81781023506E+02 0.  0.
         25    2    1    2    0    0 -0.30711296817E+02  0.61695433365E+02 -0.84302906927E+03  0.85504071813E+03  0.12508839983E+03 0.  0.
         24    2    1    2    0    0  0.25490386985E+02 -0.14200858104E+02  0.22703415123E+03  0.24546306971E+03  0.88635142973E+02 0.  0.
        -11    1    5    5    0    0 -0.12947315521E+01 -0.94900397658E+01 -0.56997142742E+01  0.11145578825E+02  0.00000000000E+00 0.  1.
         12    1    5    5    0    0  0.26785118537E+02 -0.47108183384E+01  0.23273386550E+03  0.23431749089E+03  0.00000000000E+00 0. -1.
         11    1    3    3    0    0 -0.10858587284E+01 -0.25072686979E+02 -0.18577281289E+02  0.31223934756E+02  0.00000000000E+00 0. -1.
        -12    1    3    3    0    0  0.63067685600E+01 -0.22421888282E+02 -0.30614985934E+03  0.30703461169E+03  0.00000000000E+00 0.  1.
          5    1    4    4  501    0 -0.51727597655E+02  0.89919009764E+02 -0.70159565766E+03  0.70923558281E+03  0.41800000000E+01 0. -1.
         -5    1    4    4    0  501  0.21016300838E+02 -0.28223576399E+02 -0.14143341161E+03  0.14580513532E+03  0.41800000000E+01 0. -1.
</event>
<event>
11    1  0.7882745E-009  0.3128519E+03  0.7561462E-02  0.9948941E-01
         22   -1    0    0    0    0  0.00000000000E+00  0.00000000000E+00  0.94482944785E+03  0.94482944785E+03  0.00000000000E+00 0. -1.
         22   -1    0    0    0    0 -0.00000000000E+00 -0.00000000000E+00 -0.51457510088E+03  0.51457510088E+03  0.00000000000E+00 0.  1.
        -24    2    1    2    0    0 -0.36873434438E+02 -0.56086969140E+02 -0.36330569221E+03  0.37687835950E+03  0.74437044465E+02 0.  0.
         25    2    1    2    0    0 -0.70250964540E+02 -0.22500374021E+03  0.43463514268E+02  0.27037046220E+03  0.12509687698E+03 0.  0.
         24    2    1    2    0    0  0.10712439898E+03  0.28109070935E+03  0.75009652491E+03  0.81215572704E+03  0.80402142666E+02 0.  0.
        -13    1    5    5    0    0  0.19991254886E+02  0.16492605280E+03  0.39495884698E+03  0.42847723857E+03  0.00000000000E+00 0.  1.
         14    1    5    5    0    0  0.87133144092E+02  0.11616465654E+03  0.35513767793E+03  0.38367848847E+03  0.00000000000E+00 0. -1.
         11    1    3    3    0    0 -0.34715230476E+02 -0.40028494903E+02 -0.10083836973E+03  0.11391138855E+03  0.00000000000E+00 0. -1.
        -12    1    3    3    0    0 -0.21582039618E+01 -0.16058474237E+02 -0.26246732248E+03  0.26296697095E+03  0.00000000000E+00 0.  1.
          5    1    4    4  501    0 -0.12385095197E+02 -0.16465546725E+03  0.74357329134E+02  0.18113889222E+03  0.41800000000E+01 0. -1.
         -5    1    4    4    0  501 -0.57865869343E+02 -0.60348272957E+02 -0.30893814866E+02  0.89231569978E+02  0.41800000000E+01 0. -1.
</event>
<event>
11    1  0.7882745E-009  0.1620438E+03  0.7561462E-02  0.1085171E+00
         22   -1    0    0    0    0  0.00000000000E+00  0.00000000000E+00  0.29869485914E+03  0.29869485914E+03  0.00000000000E+00 0.  1.
         22   -1    0    0    0    0 -0.00000000000E+00 -0.00000000000E+00 -0.25856566484E+03  0.25856566484E+03  0.00000000000E+00 0. -1.
        -24    2    1    2    0    0  0.49516802076E+02 -0.92297520512E+02 -0.14372243512E+03  0.19537931484E+03  0.80908542999E+02 0.  0.
         25    2    1    2    0    0 -0.24608478843E+02  0.96806517964E+02  0.18591317358E+00  0.16007774785E+03  0.12509105340E+03 0.  0.
         24    2    1    2    0    0 -0.24908323233E+02 -0.45089974524E+01  0.18366571625E+03  0.20180346129E+03  0.79691819132E+02 0.  0.
        -11    1    5    5    0    0  0.15633241787E+01  0.49106219519E+01  0.17083870478E+03  0.17091641595E+03  0.00000000000E+00 0.  1.
         12    1    5    5    0    0 -0.26471647411E+02 -0.94196194042E+01  0.12827011475E+02  0.30887045339E+02  0.00000000000E+00 0. -1.
         11    1    3    3    0    0  0.26482760449E+01 -0.84314957363E+02 -0.84036143843E+02  0.11907182233E+03  0.00000000000E+00 0. -1.
        -12    1    3    3    0    0  0.46868526031E+02 -0.79825631488E+01 -0.59686291278E+02  0.76307492511E+02  0.00000000000E+00 0.  1.
          5    1    4    4  501    0  0.41141406851E+01  0.11250345634E+02  0.53628630134E+02  0.55108972051E+02  0.41800000000E+01 0.  1.
         -5    1    4    4    0  501 -0.28722619528E+02  0.85556172330E+02 -0.53442716961E+02  0.10496877580E+03  0.41800000000E+01 0.  1.
</event>
<event>
11    1  0.7882745E-009  0.1301485E+03  0.7561462E-02  0.1119087E+00
         22   -1    0    0    0    0  0.00000000000E+00  0.00000000000E+00  0.72017988525E+02  0.72017988525E+02  0.00000000000E+00 0.  1.
         22   -1    0    0    0    0 -0.00000000000E+00 -0.00000000000E+00 -0.91430863307E+03  0.91430863307E+03  0.00000000000E+00 0.  1.
        -24    2    1    2    0    0 -0.37078532936E+02  0.72176191076E+01 -0.43869363485E+03  0.44762594943E+03  0.80560373083E+02 0.  0.
         25    2    1    2    0    0  0.33483486454E+02  0.13049605385E+02 -0.43244882308E+03  0.45160835752E+03  0.12508672166E+03 0.  0.
         24    2    1    2    0    0  0.35950464817E+01 -0.20267224492E+02  0.28851813386E+02  0.87092314644E+02  0.79554757159E+02 0.  0.
        -11    1    5    5    0    0 -0.26700169451E+02 -0.32720994321E+02  0.33635296497E+02  0.53989773925E+02  0.00000000000E+00 0.  1.
         12    1    5    5    0    0  0.30295215933E+02  0.12453769829E+02 -0.47834831106E+01  0.33102540719E+02  0.00000000000E+00 0. -1.
         13    1    3    3    0    0  0.41050042865E+01 -0.31901666157E+02 -0.15527461280E+03  0.15857103374E+03  0.00000000000E+00 0. -1.
        -14    1    3    3    0    0 -0.41183537222E+02  0.39119285264E+02 -0.28341902206E+03  0.28905491569E+03  0.00000000000E+00 0.  1.
          5    1    4    4  501    0 -0.20888026251E+02 -0.45194524947E+02 -0.14970512273E+03  0.15782252975E+03  0.41800000000E+01 0. -1.
         -5    1    4    4    0  501  0.54371512705E+02  0.58244130331E+02 -0.28274370035E+03  0.29378582777E+03  0.41800000000E+01 0. -1.
</event>
<event>
11    1  0.7882745E-009  0.1467807E+03  0.7561462E-02  0.1100214E+00
         22   -1    0    0    0    0  0.00000000000E+00  0.00000000000E+00  0.26625718121E+03  0.26625718121E+03  0.00000000000E+00 0. -1.
         22   -1    0    0    0    0 -0.00000000000E+00 -0.00000000000E+00 -0.72060782978E+03  0.72060782978E+03  0.00000000000E+00 0. -1.
         24    2    1    2    0    0  0.98389075216E+01 -0.31668612960E+02 -0.63251992450E+03  0.63849331236E+03  0.80576360583E+02 0.  0.
         25    2    1    2    0    0  0.67284808487E+02  0.41039651111E+02  0.12440858925E+02  0.14837930620E+03  0.12510054005E+03 0.  0.
        -24    2    1    2    0    0 -0.77123716009E+02 -0.93710381509E+01  0.16572841701E+03  0.19999239244E+03  0.80592585900E+02 0.  0.
        -11    1    3    3    0    0 -0.19617415365E+01 -0.29266845292E+02 -0.70687231353E+02  0.76531570868E+02  0.00000000000E+00 0.  1.
         12    1    3    3    0    0  0.11800649058E+02 -0.24017676677E+01 -0.56183269315E+03  0.56196174149E+03  0.00000000000E+00 0. -1.
         13    1    5    5    0    0 -0.43160736249E+02 -0.44778387297E+02  0.81543370621E+02  0.10255376353E+03  0.00000000000E+00 0. -1.
        -14    1    5    5    0    0 -0.33962979760E+02  0.35407349146E+02  0.84185046386E+02  0.97438628905E+02  0.00000000000E+00 0.  1.
          5    1    4    4  501    0  0.95989745800E+02  0.35514920572E+02  0.38069074149E+02  0.10927976797E+03  0.41800000000E+01 0.  1.
         -5    1    4    4    0  501 -0.28704937312E+02  0.55247305389E+01 -0.25628215223E+02  0.39099538222E+02  0.41800000000E+01 0.  1.
</event>
<event>
11    1  0.7882745E-009  0.1306931E+03  0.7561462E-02  0.1118420E+00
         22   -1    0    0    0    0  0.00000000000E+00  0.00000000000E+00  0.72434028908E+03  0.72434028908E+03  0.00000000000E+00 0.  1.
         22   -1    0    0    0    0 -0.00000000000E+00 -0.00000000000E+00 -0.27511162420E+03  0.27511162420E+03  0.00000000000E+00 0. -1.
        -24    2    1    2    0    0  0.35934423467E+02  0.70447655418E+01 -0.23445662239E+03  0.25080256866E+03  0.81185646199E+02 0.  0.
         25    2    1    2    0    0 -0.59528778405E+02 -0.27871276686E+02  0.14235574055E+03  0.20058132188E+03  0.12508887360E+03 0.  0.
         24    2    1    2    0    0  0.23594354938E+02  0.20826511144E+02  0.54132954673E+03  0.54806802274E+03  0.79689662044E+02 0.  0.
        -11    1    5    5    0    0  0.42330476974E+02  0.18173256217E+02  0.16633298449E+03  0.17259431698E+03  0.00000000000E+00 0.  1.
         12    1    5    5    0    0 -0.18736122035E+02  0.26532549272E+01  0.37499656223E+03  0.37547370576E+03  0.00000000000E+00 0. -1.
         13    1    3    3    0    0  0.41379623532E+02  0.34593163139E+02 -0.19534532129E+03  0.20265427390E+03  0.00000000000E+00 0. -1.
        -14    1    3    3    0    0 -0.54452000649E+01 -0.27548397598E+02 -0.39111301100E+02  0.48148294754E+02  0.00000000000E+00 0.  1.
          5    1    4    4  501    0  0.22749331427E+02 -0.49763058610E+02  0.43336029721E+02  0.69924087085E+02  0.41800000000E+01 0.  1.
         -5    1    4    4    0  501 -0.82278109833E+02  0.21891781925E+02  0.99019710825E+02  0.13065723480E+03  0.41800000000E+01 0.  1.
</event>
<event>
11    1  0.7882745E-009  0.1559167E+03  0.7561462E-02  0.1090982E+00
         22   -1    0    0    0    0  0.00000000000E+00  0.00000000000E+00  0.41774507610E+03  0.41774507610E+03  0.00000000000E+00 0.  1.
         22   -1    0    0    0    0 -0.00000000000E+00 -0.00000000000E+00 -0.27980979066E+04  0.27980979066E+04  0.00000000000E+00 0.  1.
         24    2    1    2    0    0 -0.56737073726E+02 -0.48414836348E+02 -0.26702049431E+04  0.26724706362E+04  0.80881215277E+02 0.  0.
         25    2    1    2    0    0 -0.42558930722E+02  0.49024917615E+02 -0.68231575194E+02  0.15658227841E+03  0.12509099459E+03 0.  0.
        -24    2    1    2    0    0  0.99296004448E+02 -0.61008126720E+00  0.35808368777E+03  0.38679006817E+03  0.10734319114E+03 0.  0.
        -13    1    3    3    0    0 -0.51076177504E+02 -0.42520755243E+02 -0.26475969844E+04  0.26484309661E+04  0.00000000000E+00 0.  1.
         14    1    3    3    0    0 -0.56608962218E+01 -0.58940811045E+01 -0.22607958743E+02  0.24039670061E+02  0.00000000000E+00 0. -1.
         13    1    5    5    0    0  0.86308833533E+02  0.91525007699E+01  0.11970828987E+03  0.14786161666E+03  0.00000000000E+00 0. -1.
        -14    1    5    5    0    0  0.12987170915E+02 -0.97625820371E+01  0.23837539790E+03  0.23892845151E+03  0.00000000000E+00 0.  1.
          5    1    4    4  501    0  0.29169519867E+01 -0.16043705960E+02 -0.74937429962E+02  0.76804947231E+02  0.41800000000E+01 0.  1.
         -5    1    4    4    0  501 -0.45475882709E+02  0.65068623575E+02  0.67058547673E+01  0.79777331180E+02  0.41800000000E+01 0.  1.
</event>
<event>
11    1  0.7882745E-009  0.1467423E+03  0.7561462E-02  0.1100255E+00
         22   -1    0    0    0    0  0.00000000000E+00  0.00000000000E+00  0.50835042008E+03  0.50835042008E+03  0.00000000000E+00 0.  1.
         22   -1    0    0    0    0 -0.00000000000E+00 -0.00000000000E+00 -0.55394738993E+03  0.55394738993E+03  0.00000000000E+00 0. -1.
        -24    2    1    2    0    0  0.16562032864E+02  0.46882602902E+00 -0.14735635730E+03  0.16936148892E+03  0.81822351253E+02 0.  0.
         25    2    1    2    0    0  0.40056283271E+02 -0.52524008917E+02 -0.37629432519E+03  0.40200532199E+03  0.12509029698E+03 0.  0.
         24    2    1    2    0    0 -0.56618316135E+02  0.52055182888E+02  0.47805371264E+03  0.49093099909E+03  0.81009369318E+02 0.  0.
        -11    1    5    5    0    0 -0.73733809111E+02  0.37319928808E+02  0.42954584643E+03  0.43742323427E+03  0.00000000000E+00 0.  1.
         12    1    5    5    0    0  0.17115492976E+02  0.14735254080E+02  0.48507866203E+02  0.53507764822E+02  0.00000000000E+00 0. -1.
         11    1    3    3    0    0  0.41969916682E+02  0.79626987749E+01 -0.13200432331E+03  0.13874444079E+03  0.00000000000E+00 0. -1.
        -12    1    3    3    0    0 -0.25407883817E+02 -0.74938727459E+01 -0.15352033985E+02  0.30617048132E+02  0.00000000000E+00 0.  1.
          5    1    4    4  501    0  0.11005148923E+02 -0.87579368968E+02 -0.30297760079E+03  0.31560126449E+03  0.41800000000E+01 0.  1.
         -5    1    4    4    0  501  0.29051134348E+02  0.35055360052E+02 -0.73316724405E+02  0.86404057502E+02  0.41800000000E+01 0.  1.
</event>
<event>
11    1  0.7882745E-009  0.1298257E+03  0.7561462E-02  0.1119483E+00
         22   -1    0    0    0    0  0.00000000000E+00  0.00000000000E+00  0.27359903158E+03  0.27359903158E+03  0.00000000000E+00 0. -1.
         22   -1    0    0    0    0 -0.00000000000E+00 -0.00000000000E+00 -0.22724890506E+03  0.22724890506E+03  0.00000000000E+00 0. -1.
        -24    2    1    2    0    0  0.41247356439E+01 -0.21195624977E+02 -0.15149368854E+03  0.17264596361E+03  0.79937620190E+02 0.  0.
         25    2    1    2    0    0  0.24396017756E+02 -0.42459136830E+01  0.27284197776E+02  0.13040612781E+03  0.12509251479E+03 0.  0.
         24    2    1    2    0    0 -0.28520753400E+02  0.25441538660E+02  0.17055961729E+03  0.19779584522E+03  0.92584599535E+02 0.  0.
        -11    1    5    5    0    0 -0.99786359874E+01 -0.17098878978E+02 -0.12426274569E+01  0.19836556190E+02  0.00000000000E+00 0.  1.
         12    1    5    5    0    0 -0.18542117412E+02  0.42540417638E+02  0.17180224475E+03  0.17795928903E+03  0.00000000000E+00 0. -1.
         13    1    3    3    0    0  0.35902653626E+02 -0.29382450282E+02 -0.62812854019E+02  0.78088306115E+02  0.00000000000E+00 0. -1.
        -14    1    3    3    0    0 -0.31777917982E+02  0.81868253046E+01 -0.88680834525E+02  0.94557657500E+02  0.00000000000E+00 0.  1.
          5    1    4    4  501    0  0.73310129555E+02 -0.19141838784E+02  0.20893831751E+02  0.78707113354E+02  0.41800000000E+01 0.  1.
         -5    1    4    4    0  501 -0.48914111799E+02  0.14895925101E+02  0.63903660258E+01  0.51699014455E+02  0.41800000000E+01 0.  1.
</event>
<event>
11    1  0.7882745E-009  0.1949784E+03  0.7561462E-02  0.1058133E+00
         22   -1    0    0    0    0  0.00000000000E+00  0.00000000000E+00  0.48163816020E+03  0.48163816020E+03  0.00000000000E+00 0. -1.
         22   -1    0    0    0    0 -0.00000000000E+00 -0.00000000000E+00 -0.57655763745E+03  0.57655763745E+03  0.00000000000E+00 0.  1.
         24    2    1    2    0    0 -0.10613339651E+03 -0.11172617362E+03 -0.52065306493E+03  0.54855001311E+03  0.77977350132E+02 0.  0.
         25    2    1    2    0    0  0.52821811892E+02  0.73237296889E+02  0.15234610055E+03  0.21681946962E+03  0.12508997796E+03 0.  0.
        -24    2    1    2    0    0  0.53311584614E+02  0.38488876730E+02  0.27338748713E+03  0.29282631491E+03  0.81749702770E+02 0.  0.
        -13    1    3    3    0    0 -0.30422248259E+02 -0.87340085035E+02 -0.30397497869E+03  0.31773352249E+03  0.00000000000E+00 0.  1.
         14    1    3    3    0    0 -0.75711148247E+02 -0.24386088585E+02 -0.21667808624E+03  0.23081649062E+03  0.00000000000E+00 0. -1.
         13    1    5    5    0    0  0.39972361831E+02 -0.68867447296E+01  0.20920091511E+03  0.21309678516E+03  0.00000000000E+00 0. -1.
        -14    1    5    5    0    0  0.13339222782E+02  0.45375621460E+02  0.64186572014E+02  0.79729529751E+02  0.00000000000E+00 0.  1.
          5    1    4    4  501    0  0.83215219294E+02  0.27672478810E+02  0.13139813765E+03  0.15803000279E+03  0.41800000000E+01 0. -1.
         -5    1    4    4    0  501 -0.30393407402E+02  0.45564818079E+02  0.20947962906E+02  0.58789466829E+02  0.41800000000E+01 0. -1.
</event>
<event>
11    1  0.7882745E-009  0.1764063E+03  0.7561462E-02  0.1072587E+00
         22   -1    0    0    0    0  0.00000000000E+00  0.00000000000E+00  0.12018474208E+04  0.12018474208E+04  0.00000000000E+00 0.  1.
         22   -1    0    0    0    0 -0.00000000000E+00 -0.00000000000E+00 -0.26011939744E+03  0.26011939744E+03  0.00000000000E+00 0.  1.
        -24    2    1    2    0    0  0.11887518137E+03  0.35722716061E+02 -0.22123542500E+03  0.26606265436E+03  0.80229680200E+02 0.  0.
         25    2    1    2    0    0 -0.13924080912E+03  0.65971488236E+01  0.74834755285E+03  0.77143596521E+03  0.12513138403E+03 0.  0.
         24    2    1    2    0    0  0.20365627748E+02 -0.42319864884E+02  0.41461589546E+03  0.42446819862E+03  0.77853587686E+02 0.  0.
        -11    1    5    5    0    0  0.91017327382E+01 -0.30323770757E+02  0.40319882729E+03  0.40443994231E+03  0.00000000000E+00 0.  1.
         12    1    5    5    0    0  0.11263895010E+02 -0.11996094127E+02  0.11417068171E+02  0.20028256308E+02  0.00000000000E+00 0. -1.
         13    1    3    3    0    0  0.74765657695E+02 -0.17552625885E+02 -0.95397056184E+02  0.12246875754E+03  0.00000000000E+00 0. -1.
        -14    1    3    3    0    0  0.44109523677E+02  0.53275341945E+02 -0.12583836881E+03  0.14359389682E+03  0.00000000000E+00 0.  1.
          5    1    4    4  501    0 -0.83126367485E+02  0.46968065396E+02  0.60188905525E+03  0.60942915862E+03  0.41800000000E+01 0.  1.
         -5    1    4    4    0  501 -0.56114441635E+02 -0.40370916573E+02  0.14645849760E+03  0.16200680660E+03  0.41800000000E+01 0.  1.
</event>
<event>
11    1  0.7882745E-009  0.1663295E+03  0.7561462E-02  0.1081271E+00
         22   -1    0    0    0    0  0.00000000000E+00  0.00000000000E+00  0.67958302583E+03  0.67958302583E+03  0.00000000000E+00 0. -1.
         22   -1    0    0    0    0 -0.00000000000E+00 -0.00000000000E+00 -0.74462843663E+03  0.74462843663E+03  0.00000000000E+00 0. -1.
        -24    2    1    2    0    0  0.64423884777E+02  0.86925289023E+02 -0.67907691042E+03  0.69231650633E+03  0.80313460039E+02 0.  0.
         25    2    1    2    0    0 -0.86078079968E+02 -0.11785276624E+03  0.11307482791E+03  0.22300699997E+03  0.12508994750E+03 0.  0.
         24    2    1    2    0    0  0.21654195191E+02  0.30927477221E+02  0.50095667172E+03  0.50888795616E+03  0.81141555144E+02 0.  0.
        -13    1    5    5    0    0  0.13041536967E+01 -0.17064531048E+02  0.26304766036E+02  0.31382156602E+02  0.00000000000E+00 0.  1.
         14    1    5    5    0    0  0.20350041494E+02  0.47992008269E+02  0.47465190568E+03  0.47750579956E+03  0.00000000000E+00 0. -1.
         13    1    3    3    0    0  0.48188526908E+01  0.23018978092E+02 -0.38017653366E+03  0.38090325733E+03  0.00000000000E+00 0. -1.
        -14    1    3    3    0    0  0.59605032087E+02  0.63906310931E+02 -0.29890037676E+03  0.31141324900E+03  0.00000000000E+00 0.  1.
          5    1    4    4  501    0  0.24440113908E+02  0.43638512493E+01  0.43507785797E+01  0.25549247344E+02  0.41800000000E+01 0. -1.
         -5    1    4    4    0  501 -0.11051819388E+03 -0.12221661749E+03  0.10872404933E+03  0.19745775263E+03  0.41800000000E+01 0. -1.
</event>
<event>
11    1  0.7882745E-009  0.1611905E+03  0.7561462E-02  0.1085963E+00
         22   -1    0    0    0    0  0.00000000000E+00  0.00000000000E+00  0.46399354905E+03  0.46399354905E+03  0.00000000000E+00 0. -1.
         22   -1    0    0    0    0 -0.00000000000E+00 -0.00000000000E+00 -0.24450670940E+03  0.24450670940E+03  0.00000000000E+00 0. -1.
        -24    2    1    2    0    0  0.65314842663E+02  0.43571304485E+02 -0.13071371887E+03  0.17222045741E+03  0.80058243818E+02 0.  0.
         25    2    1    2    0    0  0.44815649805E+02 -0.35433055624E+02 -0.22522402991E+02  0.13934892739E+03  0.12508765339E+03 0.  0.
         24    2    1    2    0    0 -0.11013049247E+03 -0.81382488606E+01  0.37272296152E+03  0.39693087364E+03  0.80229395741E+02 0.  0.
        -11    1    5    5    0    0 -0.12772678344E+02  0.17114484917E+02  0.17099126793E+02  0.27357394670E+02  0.00000000000E+00 0.  1.
         12    1    5    5    0    0 -0.97357814123E+02 -0.25252733777E+02  0.35562383473E+03  0.36957347897E+03  0.00000000000E+00 0. -1.
         13    1    3    3    0    0  0.23195451650E+02 -0.23304769124E+02 -0.33619536742E+02  0.47025679070E+02  0.00000000000E+00 0. -1.
        -14    1    3    3    0    0  0.42119391013E+02  0.66876073609E+02 -0.97094182133E+02  0.12519477834E+03  0.00000000000E+00 0.  1.
          5    1    4    4  501    0 -0.38762955783E+02  0.12015779583E+01 -0.27716491973E+02  0.47850672492E+02  0.41800000000E+01 0. -1.
         -5    1    4    4    0  501  0.83578605587E+02 -0.36634633582E+02  0.51940889824E+01  0.91498254901E+02  0.41800000000E+01 0. -1.
</event>
<event>
11    1  0.7882745E-009  0.1724723E+03  0.7561462E-02  0.1075900E+00
         22   -1    0    0    0    0  0.00000000000E+00  0.00000000000E+00  0.78514665479E+03  0.78514665479E+03  0.00000000000E+00 0. -1.
         22   -1    0    0    0    0 -0.00000000000E+00 -0.00000000000E+00 -0.74957971346E+03  0.74957971346E+03  0.00000000000E+00 0.  1.
        -24    2    1    2    0    0 -0.56911364894E+02 -0.10035993138E+03 -0.57606274674E+03  0.59317723916E+03  0.81853097583E+02 0.  0.
         25    2    1    2    0    0  0.14292817170E+03  0.81802000029E+02 -0.93201603362E+02  0.22683431549E+03  0.12508892173E+03 0.  0.
         24    2    1    2    0    0 -0.86016806811E+02  0.18557931352E+02  0.70483129144E+03  0.71471481360E+03  0.79289517067E+02 0.  0.
        -13    1    5    5    0    0 -0.55672249278E+01  0.30712869639E+02  0.10992997270E+03  0.11427542716E+03  0.00000000000E+00 0.  1.
         14    1    5    5    0    0 -0.80449581883E+02 -0.12154938287E+02  0.59490131873E+03  0.60043938643E+03  0.00000000000E+00 0. -1.
         11    1    3    3    0    0 -0.36877394226E+01 -0.44004729175E+01  0.95332952875E+00  0.58200018159E+01  0.00000000000E+00 0. -1.
        -12    1    3    3    0    0 -0.53223625471E+02 -0.95959458464E+02 -0.57701607627E+03  0.58735723734E+03  0.00000000000E+00 0.  1.
          5    1    4    4  501    0  0.47972303229E+02  0.47703888507E+02 -0.10519890409E+03  0.12514505455E+03  0.41800000000E+01 0. -1.
         -5    1    4    4    0  501  0.94955868475E+02  0.34098111522E+02  0.11997300726E+02  0.10168926095E+03  0.41800000000E+01 0. -1.
</event>
<event>
11    1  0.7882745E-009  0.1526508E+03  0.7561462E-02  0.1094201E+00
         22   -1    0    0    0    0  0.00000000000E+00  0.00000000000E+00  0.10758099187E+03  0.10758099187E+03  0.00000000000E+00 0.  1.
         22   -1    0    0    0    0 -0.00000000000E+00 -0.00000000000E+00 -0.10393925804E+04  0.10393925804E+04  0.00000000000E+00 0.  1.
        -24    2    1    2    0    0  0.24979764874E+02  0.98468623598E+01 -0.80994173378E+03  0.81480933627E+03  0.84780263051E+02 0.  0.
         25    2    1    2    0    0  0.20255765815E+02 -0.85619326382E+02 -0.14511653785E+03  0.21082348264E+03  0.12508703441E+03 0.  0.
         24    2    1    2    0    0 -0.45235530689E+02  0.75772464023E+02  0.23246683062E+02  0.12134075338E+03  0.79971561304E+02 0.  0.
        -13    1    5    5    0    0 -0.60899313294E+02  0.81474874373E+02  0.15264108944E+02  0.10285851708E+03  0.00000000000E+00 0.  1.
         14    1    5    5    0    0  0.15663782604E+02 -0.57024103502E+01  0.79825741177E+01  0.18482236305E+02  0.00000000000E+00 0. -1.
         11    1    3    3    0    0  0.35637806164E+02 -0.30481496233E+02 -0.46307647738E+03  0.46544494706E+03  0.00000000000E+00 0. -1.
        -12    1    3    3    0    0 -0.10658041291E+02  0.40328358593E+02 -0.34686525641E+03  0.34936438922E+03  0.00000000000E+00 0.  1.
          5    1    4    4  501    0  0.25583052370E+02 -0.49171120831E+01  0.15745391568E+02  0.30725564526E+02  0.41800000000E+01 0. -1.
         -5    1    4    4    0  501 -0.53272865546E+01 -0.80702214299E+02 -0.16086192942E+03  0.18009791812E+03  0.41800000000E+01 0. -1.
</event>
<event>
11    1  0.7882745E-009  0.1657902E+03  0.7561462E-02  0.1081754E+00
         22   -1    0    0    0    0  0.00000000000E+00  0.00000000000E+00  0.11561410030E+03  0.11561410030E+03  0.00000000000E+00 0. -1.
         22   -1    0    0    0    0 -0.00000000000E+00 -0.00000000000E+00 -0.83744423383E+03  0.83744423383E+03  0.00000000000E+00 0. -1.
        -24    2    1    2    0    0  0.23334779377E+00  0.87889577006E+01 -0.62852455604E+03  0.63381540751E+03  0.81249941675E+02 0.  0.
         25    2    1    2    0    0  0.10791603491E+03  0.73464863853E+01 -0.71623026699E+02  0.18021615602E+03  0.12509261962E+03 0.  0.
         24    2    1    2    0    0 -0.10814938271E+03 -0.16135444086E+02 -0.21682550796E+02  0.13902677060E+03  0.83076280598E+02 0.  0.
        -11    1    5    5    0    0 -0.42146463302E+02 -0.40547050172E+01 -0.50585534675E+02  0.65967123024E+02  0.00000000000E+00 0.  1.
         12    1    5    5    0    0 -0.66002919405E+02 -0.12080739069E+02  0.28902983879E+02  0.73059647573E+02  0.00000000000E+00 0. -1.
         11    1    3    3    0    0 -0.10944577407E+02  0.39910669540E+02 -0.21339157848E+03  0.21736745636E+03  0.00000000000E+00 0. -1.
        -12    1    3    3    0    0  0.11177925200E+02 -0.31121711839E+02 -0.41513297755E+03  0.41644795115E+03  0.00000000000E+00 0.  1.
          5    1    4    4  501    0  0.12865060755E+02 -0.29472368979E+02 -0.71155410610E+02  0.78196516422E+02  0.41800000000E+01 0.  1.
         -5    1    4    4    0  501  0.95050974158E+02  0.36818855364E+02 -0.46761608962E+00  0.10201963960E+03  0.41800000000E+01 0.  1.
</event>
<event>
11    1  0.7882745E-009  0.1493129E+03  0.7561462E-02  0.1097583E+00
         22   -1    0    0    0    0  0.00000000000E+00  0.00000000000E+00  0.31451601031E+03  0.31451601031E+03  0.00000000000E+00 0.  1.
         22   -1    0    0    0    0 -0.00000000000E+00 -0.00000000000E+00 -0.10204149672E+04  0.10204149672E+04  0.00000000000E+00 0.  1.
        -24    2    1    2    0    0 -0.26960290027E+02 -0.76320984283E+02 -0.95633530944E+03  0.96300611643E+03  0.79068364882E+02 0.  0.
         25    2    1    2    0    0  0.18205844121E+02  0.11718995536E+03  0.20556959625E+03  0.26830207890E+03  0.12514874447E+03 0.  0.
         24    2    1    2    0    0  0.87544459059E+01 -0.40868971077E+02  0.44866756276E+02  0.10362278221E+03  0.83532880073E+02 0.  0.
        -13    1    5    5    0    0 -0.19444153785E+02 -0.51373286044E+02  0.48545410072E+02  0.73307206156E+02  0.00000000000E+00 0.  1.
         14    1    5    5    0    0  0.28198599691E+02  0.10504314967E+02 -0.36786537962E+01  0.30315576049E+02  0.00000000000E+00 0. -1.
         11    1    3    3    0    0 -0.45936873603E+01 -0.45233342102E+02 -0.17752336846E+03  0.18325311334E+03  0.00000000000E+00 0. -1.
        -12    1    3    3    0    0 -0.22366602667E+02 -0.31087642180E+02 -0.77881194098E+03  0.77975300309E+03  0.00000000000E+00 0.  1.
          5    1    4    4  501    0 -0.44650791115E+02  0.83554586707E+01  0.68371603807E+02  0.82192794355E+02  0.41800000000E+01 0. -1.
         -5    1    4    4    0  501  0.62856635237E+02  0.10883449669E+03  0.13719799244E+03  0.18610928454E+03  0.41800000000E+01 0. -1.
</event>
<event>
11    1  0.7882745E-009  0.1570399E+03  0.7561462E-02  0.1089895E+00
         22   -1    0    0    0    0  0.00000000000E+00  0.00000000000E+00  0.93426147913E+03  0.93426147913E+03  0.00000000000E+00 0.  1.
         22   -1    0    0    0    0 -0.00000000000E+00 -0.00000000000E+00 -0.14969265692E+03  0.14969265692E+03  0.00000000000E+00 0. -1.
        -24    2    1    2    0    0  0.34288080429E+02  0.51332446219E+02 -0.74599493944E+02  0.12691807302E+03  0.82051327035E+02 0.  0.
         25    2    1    2    0    0 -0.12257265260E+03 -0.22145556191E+02  0.13439544367E+03  0.22186529425E+03  0.12509033811E+03 0.  0.
         24    2    1    2    0    0  0.88284572172E+02 -0.29186890027E+02  0.72477287249E+03  0.73517076878E+03  0.80835031655E+02 0.  0.
        -13    1    5    5    0    0  0.72961243617E+02 -0.31634903312E+02  0.70748346976E+03  0.71193888092E+03  0.00000000000E+00 0.  1.
         14    1    5    5    0    0  0.15323328555E+02  0.24480132842E+01  0.17289402729E+02  0.23231887865E+02  0.00000000000E+00 0. -1.
         13    1    3    3    0    0  0.12980689482E+02  0.62636656308E+02 -0.79769592678E+02  0.10224987496E+03  0.00000000000E+00 0. -1.
        -14    1    3    3    0    0  0.21307390948E+02 -0.11304210089E+02  0.51700987337E+01  0.24668198063E+02  0.00000000000E+00 0.  1.
          5    1    4    4  501    0 -0.11062430503E+02  0.12698533685E+02 -0.21105598186E+02  0.27323045240E+02  0.41800000000E+01 0.  1.
         -5    1    4    4    0  501 -0.11151022210E+03 -0.34844089876E+02  0.15550104185E+03  0.19454224901E+03  0.41800000000E+01 0.  1.
</event>
<event>
11    1  0.8870663E-009  0.1656480E+03  0.7561462E-02  0.1081882E+00
         22   -1    0    0    0    0  0.00000000000E+00  0.00000000000E+00  0.17088061391E+04  0.17088061391E+04  0.00000000000E+00 0. -1.
         22   -1    0    0    0    0 -0.00000000000E+00 -0.00000000000E+00 -0.11753241404E+04  0.11753241404E+04  0.00000000000E+00 0. -1.
        -24    2    1    2    0    0  0.75944133366E+02 -0.88426146211E+02 -0.10885390117E+04  0.10978937597E+04  0.82866356686E+02 0.  0.
         25    2    1    2    0    0 -0.16718407422E+02  0.15061352868E+02 -0.29177724087E+02  0.13040411313E+03  0.12509014206E+03 0.  0.
         24    2    1    2    0    0 -0.59225725944E+02  0.73364793342E+02  0.16511987345E+04  0.16558324067E+04  0.80209843116E+02 0.  0.
        -11    1    5    5    0    0  0.10925250213E+02  0.34349628560E+01  0.40423558624E+02  0.42014570733E+02  0.00000000000E+00 0.  1.
         12    1    5    5    0    0 -0.70150976157E+02  0.69929830486E+02  0.16107751758E+04  0.16138178360E+04  0.00000000000E+00 0. -1.
         13    1    3    3    0    0  0.91605905058E+02 -0.70465173196E+02 -0.97864740833E+03  0.98544798559E+03  0.00000000000E+00 0. -1.
        -14    1    3    3    0    0 -0.15661771692E+02 -0.17960973015E+02 -0.10989160333E+03  0.11244577416E+03  0.00000000000E+00 0.  1.
          5    1    4    4  501    0  0.86295095774E+01 -0.51032878781E+02 -0.29035528637E+02  0.59492499321E+02  0.41800000000E+01 0.  1.
         -5    1    4    4    0  501 -0.25347916999E+02  0.66094231650E+02 -0.14219545060E+00  0.70911613810E+02  0.41800000000E+01 0.  1.
</event>
<event>
11    1  0.7882745E-009  0.1394568E+03  0.7561462E-02  0.1108166E+00
         22   -1    0    0    0    0  0.00000000000E+00  0.00000000000E+00  0.14999963968E+03  0.14999963968E+03  0.00000000000E+00 0. -1.
         22   -1    0    0    0    0 -0.00000000000E+00 -0.00000000000E+00 -0.12362188168E+04  0.12362188168E+04  0.00000000000E+00 0.  1.
        -24    2    1    2    0    0  0.11180707070E+02 -0.58511660970E+02 -0.10055262584E+04  0.10105624964E+04  0.81270414176E+02 0.  0.
         25    2    1    2    0    0 -0.22241595024E+02  0.81057073577E+02 -0.18691330768E+03  0.24009738861E+03  0.12508090863E+03 0.  0.
         24    2    1    2    0    0  0.11060887955E+02 -0.22545412608E+02  0.10622038888E+03  0.13555857150E+03  0.80391022026E+02 0.  0.
        -13    1    5    5    0    0  0.22376400665E+01  0.29480710368E+02  0.52523108636E+02  0.60272682516E+02  0.00000000000E+00 0.  1.
         14    1    5    5    0    0  0.88232478880E+01 -0.52026122975E+02  0.53697280241E+02  0.75285888986E+02  0.00000000000E+00 0. -1.
         11    1    3    3    0    0 -0.10948660439E+02  0.81502174572E+01 -0.36086225525E+02  0.38581276322E+02  0.00000000000E+00 0. -1.
        -12    1    3    3    0    0  0.22129367509E+02 -0.66661878427E+02 -0.96944003284E+03  0.97198122009E+03  0.00000000000E+00 0.  1.
          5    1    4    4  501    0 -0.59404648648E+02  0.28821220679E+02 -0.34318208315E+02  0.74530442535E+02  0.41800000000E+01 0. -1.
         -5    1    4    4    0  501  0.37163053624E+02  0.52235852898E+02 -0.15259509936E+03  0.16556694607E+03  0.41800000000E+01 0. -1.
</event>
<event>
11    1  0.7882745E-009  0.1466907E+03  0.7561462E-02  0.1100309E+00
         22   -1    0    0    0    0  0.00000000000E+00  0.00000000000E+00  0.73819650877E+03  0.73819650877E+03  0.00000000000E+00 0.  1.
         22   -1    0    0    0    0 -0.00000000000E+00 -0.00000000000E+00 -0.17253488232E+04  0.17253488232E+04  0.00000000000E+00 0.  1.
        -24    2    1    2    0    0 -0.58445095030E+02  0.11226220366E+02 -0.16884698083E+04  0.16913688822E+04  0.79098324901E+02 0.  0.
         25    2    1    2    0    0  0.54409987671E+02  0.67010883015E+02  0.16446537306E+03  0.22393581535E+03  0.12508990871E+03 0.  0.
         24    2    1    2    0    0  0.40351073589E+01 -0.78237103381E+02  0.53685212079E+03  0.54824063442E+03  0.78868670596E+02 0.  0.
        -11    1    5    5    0    0 -0.76304400307E+01 -0.45341858521E+02  0.47500208458E+03  0.47722226279E+03  0.00000000000E+00 0.  1.
         12    1    5    5    0    0  0.11665547390E+02 -0.32895244860E+02  0.61850036214E+02  0.71018371637E+02  0.00000000000E+00 0. -1.
         11    1    3    3    0    0 -0.66300294858E+01  0.34624552911E+02 -0.37050797101E+03  0.37218137183E+03  0.00000000000E+00 0. -1.
        -12    1    3    3    0    0 -0.51815065545E+02 -0.23398332544E+02 -0.13179618373E+04  0.13191875104E+04  0.00000000000E+00 0.  1.
          5    1    4    4  501    0  0.51701010802E+02  0.29512163329E+02  0.48224036148E+01  0.59872283061E+02  0.41800000000E+01 0. -1.
         -5    1    4    4    0  501  0.27089768692E+01  0.37498719685E+02  0.15964296945E+03  0.16406353229E+03  0.41800000000E+01 0. -1.
</event>
<event>
11    1  0.7882745E-009  0.1358744E+03  0.7561462E-02  0.1112255E+00
         22   -1    0    0    0    0  0.00000000000E+00  0.00000000000E+00  0.27357253277E+03  0.27357253277E+03  0.00000000000E+00 0. -1.
         22   -1    0    0    0    0 -0.00000000000E+00 -0.00000000000E+00 -0.95839843837E+03  0.95839843837E+03  0.00000000000E+00 0. -1.
         24    2    1    2    0    0  0.15441360754E+02  0.49818429986E+02 -0.88901594768E+03  0.89420673846E+03  0.80845681939E+02 0.  0.
         25    2    1    2    0    0 -0.51512284126E+02 -0.73777565160E+02  0.61049806696E+02  0.16578898676E+03  0.12514897002E+03 0.  0.
        -24    2    1    2    0    0  0.36070923372E+02  0.23959135174E+02  0.14314023539E+03  0.17197524592E+03  0.84918823312E+02 0.  0.
        -13    1    3    3    0    0 -0.25526569545E+02 -0.10407621480E+01 -0.40497113119E+03  0.40577617727E+03  0.00000000000E+00 0.  1.
         14    1    3    3    0    0  0.40967930299E+02  0.50859192134E+02 -0.48404481649E+03  0.48843056119E+03  0.00000000000E+00 0. -1.
         13    1    5    5    0    0  0.36420082101E+02  0.18015122373E+02  0.15417349158E+03  0.15943786413E+03  0.00000000000E+00 0. -1.
        -14    1    5    5    0    0 -0.34915872906E+00  0.59440128010E+01 -0.11033256190E+02  0.12537381790E+02  0.00000000000E+00 0.  1.
          5    1    4    4  501    0 -0.87689098908E+02 -0.36311407290E+02  0.15070574136E+02  0.96189869380E+02  0.41800000000E+01 0.  1.
         -5    1    4    4    0  501  0.36176814782E+02 -0.37466157871E+02  0.45979232561E+02  0.69599117381E+02  0.41800000000E+01 0.  1.
</event>
<event>
11    1  0.7882745E-009  0.1944372E+03  0.7561462E-02  0.1058529E+00
         22   -1    0    0    0    0  0.00000000000E+00  0.00000000000E+00  0.13645147443E+04  0.13645147443E+04  0.00000000000E+00 0. -1.
         22   -1    0    0    0    0 -0.00000000000E+00 -0.00000000000E+00 -0.15600144532E+03  0.15600144532E+03  0.00000000000E+00 0. -1.
         24    2    1    2    0    0  0.41759049640E+02 -0.16222144573E+02 -0.10258492977E+03  0.14018812181E+03  0.84392330687E+02 0.  0.
         25    2    1    2    0    0 -0.16653768508E+03 -0.52849925212E+02  0.39553127393E+03  0.45013337316E+03  0.12508856796E+03 0.  0.
        -24    2    1    2    0    0  0.12477863544E+03  0.69072069785E+02  0.91556695483E+03  0.93019469465E+03  0.81600627981E+02 0.  0.
        -11    1    3    3    0    0 -0.16129206477E+02 -0.29514184865E+02 -0.53219786025E+02  0.62957001472E+02  0.00000000000E+00 0.  1.
         12    1    3    3    0    0  0.57888256117E+02  0.13292040293E+02 -0.49365143746E+02  0.77231120337E+02  0.00000000000E+00 0. -1.
         11    1    5    5    0    0  0.45845225374E+02  0.70865683920E+02  0.42273309993E+03  0.43107656353E+03  0.00000000000E+00 0. -1.
        -12    1    5    5    0    0  0.78933410062E+02 -0.17936141348E+01  0.49283385490E+03  0.49911813112E+03  0.00000000000E+00 0.  1.
          5    1    4    4  501    0 -0.10831494841E+03  0.30459564942E+02  0.22404192065E+03  0.25074323073E+03  0.41800000000E+01 0.  1.
         -5    1    4    4    0  501 -0.58222736670E+02 -0.83309490154E+02  0.17148935327E+03  0.19939014244E+03  0.41800000000E+01 0.  1.
</event>
<event>
11    1  0.7882745E-009  0.1568126E+03  0.7561462E-02  0.1090114E+00
         22   -1    0    0    0    0  0.00000000000E+00  0.00000000000E+00  0.25063838120E+03  0.25063838120E+03  0.00000000000E+00 0.  1.
         22   -1    0    0    0    0 -0.00000000000E+00 -0.00000000000E+00 -0.35791911504E+03  0.35791911504E+03  0.00000000000E+00 0. -1.
         24    2    1    2    0    0  0.95043246818E+02 -0.10749348734E+02 -0.27637669033E+03  0.30327754984E+03  0.80277207316E+02 0.  0.
         25    2    1    2    0    0 -0.87235966540E+02 -0.41820826131E+02  0.97765821795E+02  0.18591370372E+03  0.12508658586E+03 0.  0.
        -24    2    1    2    0    0 -0.78072802777E+01  0.52570174864E+02  0.71330134701E+02  0.11936624268E+03  0.79597329512E+02 0.  0.
        -13    1    3    3    0    0  0.30896487892E+02  0.12530847165E+02 -0.22093138110E+02  0.39996522928E+02  0.00000000000E+00 0.  1.
         14    1    3    3    0    0  0.64146758925E+02 -0.23280195898E+02 -0.25428355222E+03  0.26328102691E+03  0.00000000000E+00 0. -1.
         13    1    5    5    0    0 -0.39007116215E+02  0.40019540192E+02  0.22876848991E+02  0.60385999473E+02  0.00000000000E+00 0. -1.
        -14    1    5    5    0    0  0.31199835937E+02  0.12550634672E+02  0.48453285710E+02  0.58980243211E+02  0.00000000000E+00 0.  1.
          5    1    4    4  501    0 -0.76947159433E+02  0.22083792409E+02  0.16339240230E+02  0.81810771927E+02  0.41800000000E+01 0.  1.
         -5    1    4    4    0  501 -0.10288807107E+02 -0.63904618540E+02  0.81426581565E+02  0.10410293179E+03  0.41800000000E+01 0.  1.
</event>
<event>
11    1  0.7882745E-009  0.1520603E+03  0.7561462E-02  0.1094792E+00
         22   -1    0    0    0    0  0.00000000000E+00  0.00000000000E+00  0.11416451828E+04  0.11416451828E+04  0.00000000000E+00 0.  1.
         22   -1    0    0    0    0 -0.00000000000E+00 -0.00000000000E+00 -0.36179761860E+03  0.36179761860E+03  0.00000000000E+00 0.  1.
        -24    2    1    2    0    0 -0.37120474941E+02 -0.88998187286E+01 -0.31914045347E+03  0.33115276092E+03  0.79714400132E+02 0.  0.
         25    2    1    2    0    0 -0.26800926118E+02 -0.54002632630E+02  0.11292600005E+03  0.17897626744E+03  0.12508256812E+03 0.  0.
         24    2    1    2    0    0  0.63921401059E+02  0.62902451359E+02  0.98606201759E+03  0.99331377301E+03  0.79443597669E+02 0.  0.
        -11    1    5    5    0    0  0.52110813033E+02  0.74105289489E+02  0.58975014940E+03  0.59666772116E+03  0.00000000000E+00 0.  1.
         12    1    5    5    0    0  0.11810588025E+02 -0.11202838130E+02  0.39631186820E+03  0.39664605185E+03  0.00000000000E+00 0. -1.
         13    1    3    3    0    0  0.12024247409E+02 -0.17929597185E+02 -0.26046650580E+02  0.33830178648E+02  0.00000000000E+00 0. -1.
        -14    1    3    3    0    0 -0.49144722350E+02  0.90297784567E+01 -0.29309380289E+03  0.29732258227E+03  0.00000000000E+00 0.  1.
          5    1    4    4  501    0  0.17144419009E+02 -0.77720719375E+02  0.36674740378E+02  0.87732264904E+02  0.41800000000E+01 0.  1.
         -5    1    4    4    0  501 -0.43945345127E+02  0.23718086745E+02  0.76251259670E+02  0.91244002534E+02  0.41800000000E+01 0.  1.
</event>
<event>
11    1  0.7882745E-009  0.1587335E+03  0.7561462E-02  0.1088275E+00
         22   -1    0    0    0    0  0.00000000000E+00  0.00000000000E+00  0.12116558386E+03  0.12116558386E+03  0.00000000000E+00 0. -1.
         22   -1    0    0    0    0 -0.00000000000E+00 -0.00000000000E+00 -0.15868164986E+04  0.15868164986E+04  0.00000000000E+00 0.  1.
        -24    2    1    2    0    0  0.10765083043E+02 -0.49759307925E+02 -0.12300832992E+04  0.12337873932E+04  0.80836458065E+02 0.  0.
         25    2    1    2    0    0  0.27904345696E+02 -0.46364199509E+02 -0.29840854220E+03  0.32805774333E+03  0.12508370555E+03 0.  0.
         24    2    1    2    0    0 -0.38669428739E+02  0.96123507434E+02  0.62840926668E+02  0.14613694591E+03  0.81682136944E+02 0.  0.
        -13    1    5    5    0    0  0.74955722598E+01  0.31669482240E+01  0.38741599457E+02  0.39586925784E+02  0.00000000000E+00 0.  1.
         14    1    5    5    0    0 -0.46165000999E+02  0.92956559210E+02  0.24099327211E+02  0.10655002013E+03  0.00000000000E+00 0. -1.
         13    1    3    3    0    0  0.32812699924E+01 -0.19184830936E+02 -0.56067886734E+02  0.59350083350E+02  0.00000000000E+00 0. -1.
        -14    1    3    3    0    0  0.74838130509E+01 -0.30574476989E+02 -0.11740154125E+04  0.11744373099E+04  0.00000000000E+00 0.  1.
          5    1    4    4  501    0  0.32561060586E+02 -0.88044523018E+02 -0.21353032967E+03  0.23329109454E+03  0.41800000000E+01 0.  1.
         -5    1    4    4    0  501 -0.46567148897E+01  0.41680323509E+02 -0.84878212522E+02  0.94766648788E+02  0.41800000000E+01 0.  1.
</event>
<event>
11    1  0.7882745E-009  0.2055066E+03  0.7561462E-02  0.1050697E+00
         22   -1    0    0    0    0  0.00000000000E+00  0.00000000000E+00  0.33894229809E+03  0.33894229809E+03  0.00000000000E+00 0. -1.
         22   -1    0    0    0    0 -0.00000000000E+00 -0.00000000000E+00 -0.13237769889E+04  0.13237769889E+04  0.00000000000E+00 0.  1.
         24    2    1    2    0    0 -0.16376372166E+01  0.12080362701E+03 -0.11320290254E+04  0.11412812756E+04  0.80231150881E+02 0.  0.
         25    2    1    2    0    0  0.20318487126E+02 -0.26123389422E+03 -0.16765464139E+02  0.29083455092E+03  0.12509063440E+03 0.  0.
        -24    2    1    2    0    0 -0.18680849910E+02  0.14043026721E+03  0.16395979875E+03  0.23060346043E+03  0.78901877364E+02 0.  0.
        -11    1    3    3    0    0 -0.63309499700E+01  0.12673273869E+03 -0.11193442809E+04  0.11265135983E+04  0.00000000000E+00 0.  1.
         12    1    3    3    0    0  0.46933127533E+01 -0.59291116822E+01 -0.12684744448E+02  0.14767677260E+02  0.00000000000E+00 0. -1.
         11    1    5    5    0    0  0.13833859297E+02  0.53460170099E+02  0.11033223723E+03  0.12337977152E+03  0.00000000000E+00 0. -1.
        -12    1    5    5    0    0 -0.32514709206E+02  0.86970097113E+02  0.53627561524E+02  0.10722368890E+03  0.00000000000E+00 0.  1.
          5    1    4    4  501    0  0.67695528125E+02 -0.19487284977E+03  0.47837349955E+01  0.20639396461E+03  0.41800000000E+01 0. -1.
         -5    1    4    4    0  501 -0.47377040998E+02 -0.66361044451E+02 -0.21549199135E+02  0.84440586318E+02  0.41800000000E+01 0. -1.
</event>
<event>
11    1  0.7882745E-009  0.1340558E+03  0.7561462E-02  0.1114384E+00
         22   -1    0    0    0    0  0.00000000000E+00  0.00000000000E+00  0.25546036817E+03  0.25546036817E+03  0.00000000000E+00 0. -1.
         22   -1    0    0    0    0 -0.00000000000E+00 -0.00000000000E+00 -0.29650238898E+03  0.29650238898E+03  0.00000000000E+00 0. -1.
         24    2    1    2    0    0 -0.56351888718E+02  0.97242494697E+01 -0.21017096490E+03  0.23159472374E+03  0.78703145981E+02 0.  0.
         25    2    1    2    0    0  0.22345952948E+01  0.11680670048E+02  0.15505087469E+01  0.12566365504E+03  0.12509004217E+03 0.  0.
        -24    2    1    2    0    0  0.54117293423E+02 -0.21404919518E+02  0.16757843534E+03  0.19470437838E+03  0.80252170935E+02 0.  0.
        -13    1    3    3    0    0 -0.15137251316E+02 -0.53927462697E+01  0.81526173462E+00  0.16089833480E+02  0.00000000000E+00 0.  1.
         14    1    3    3    0    0 -0.41214637402E+02  0.15116995739E+02 -0.21098622663E+03  0.21550489026E+03  0.00000000000E+00 0. -1.
         11    1    5    5    0    0  0.57103353461E+02 -0.45977623450E+02  0.11197491335E+03  0.13383988962E+03  0.00000000000E+00 0. -1.
        -12    1    5    5    0    0 -0.29860600384E+01  0.24572703932E+02  0.55603521999E+02  0.60864488757E+02  0.00000000000E+00 0.  1.
          5    1    4    4  501    0  0.56312971049E+02 -0.16573442977E+02 -0.17859154333E+02  0.61500012309E+02  0.41800000000E+01 0. -1.
         -5    1    4    4    0  501 -0.54078375755E+02  0.28254113026E+02  0.19409663080E+02  0.64163642727E+02  0.41800000000E+01 0. -1.
</event>
<event>
11    1  0.7882745E-009  0.1368059E+03  0.7561462E-02  0.1111179E+00
         22   -1    0    0    0    0  0.00000000000E+00  0.00000000000E+00  0.41391336086E+03  0.41391336086E+03  0.00000000000E+00 0.  1.
         22   -1    0    0    0    0 -0.00000000000E+00 -0.00000000000E+00 -0.19286387979E+03  0.19286387979E+03  0.00000000000E+00 0.  1.
         24    2    1    2    0    0  0.44583721810E+02  0.26750982470E+02 -0.12136224069E+03  0.15202746713E+03  0.75367327021E+02 0.  0.
         25    2    1    2    0    0 -0.75578137515E+02 -0.28708123903E+02  0.61381765565E+02  0.16110506531E+03  0.12510359578E+03 0.  0.
        -24    2    1    2    0    0  0.30994415705E+02  0.19571414330E+01  0.28102995619E+03  0.29364470821E+03  0.79277324465E+02 0.  0.
        -13    1    3    3    0    0 -0.82333599691E+01  0.36873379728E+02 -0.50580675341E+02  0.63133501937E+02  0.00000000000E+00 0.  1.
         14    1    3    3    0    0  0.52817081779E+02 -0.10122397258E+02 -0.70781565351E+02  0.88893965191E+02  0.00000000000E+00 0. -1.
         13    1    5    5    0    0 -0.16425464743E+02 -0.24784276174E+02  0.12135123081E+03  0.12494069576E+03  0.00000000000E+00 0. -1.
        -14    1    5    5    0    0  0.47419880448E+02  0.26741417607E+02  0.15967872538E+03  0.16870401245E+03  0.00000000000E+00 0.  1.
          5    1    4    4  501    0  0.15244080932E+02  0.31029747573E+02 -0.25594108176E+01  0.34917763697E+02  0.41800000000E+01 0. -1.
         -5    1    4    4    0  501 -0.90822218447E+02 -0.59737871475E+02  0.63941176383E+02  0.12618730162E+03  0.41800000000E+01 0. -1.
</event>
<event>
11    1  0.7882745E-009  0.1468965E+03  0.7561462E-02  0.1100093E+00
         22   -1    0    0    0    0  0.00000000000E+00  0.00000000000E+00  0.13422686356E+04  0.13422686356E+04  0.00000000000E+00 0.  1.
         22   -1    0    0    0    0 -0.00000000000E+00 -0.00000000000E+00 -0.16025810444E+03  0.16025810444E+03  0.00000000000E+00 0. -1.
         24    2    1    2    0    0 -0.24986296670E+02  0.44750479691E+02 -0.11404528883E+03  0.14965780838E+03  0.82244825067E+02 0.  0.
         25    2    1    2    0    0  0.68374856131E+02  0.21324878491E+02  0.17515202862E+03  0.22683663761E+03  0.12508699228E+03 0.  0.
        -24    2    1    2    0    0 -0.43388559461E+02 -0.66075358182E+02  0.11209037913E+04  0.11260322940E+04  0.72628490982E+02 0.  0.
        -13    1    3    3    0    0  0.13021267470E+02  0.65564232018E+01  0.77247677795E+01  0.16498852353E+02  0.00000000000E+00 0.  1.
         14    1    3    3    0    0 -0.38007564140E+02  0.38194056489E+02 -0.12177005661E+03  0.13315895602E+03  0.00000000000E+00 0. -1.
         11    1    5    5    0    0 -0.42201385048E+02 -0.57493092510E+01  0.31394807571E+03  0.31682393486E+03  0.00000000000E+00 0. -1.
        -12    1    5    5    0    0 -0.11871744131E+01 -0.60326048931E+02  0.80695571562E+03  0.80920835916E+03  0.00000000000E+00 0.  1.
          5    1    4    4  501    0  0.14683585230E+02 -0.49983692918E+02  0.45034509486E+02  0.68989540349E+02  0.41800000000E+01 0. -1.
         -5    1    4    4    0  501  0.53691270901E+02  0.71308571409E+02  0.13011751913E+03  0.15784709726E+03  0.41800000000E+01 0. -1.
</event>
<event>
11    1  0.7882745E-009  0.1670885E+03  0.7561462E-02  0.1080594E+00
         22   -1    0    0    0    0  0.00000000000E+00  0.00000000000E+00  0.30582979580E+03  0.30582979580E+03  0.00000000000E+00 0.  1.
         22   -1    0    0    0    0 -0.00000000000E+00 -0.00000000000E+00 -0.11619866702E+04  0.11619866702E+04  0.00000000000E+00 0.  1.
        -24    2    1    2    0    0 -0.13400268794E+02 -0.21365911497E+02 -0.10706208936E+04  0.10739194251E+04  0.80235681082E+02 0.  0.
         25    2    1    2    0    0 -0.10094126647E+03  0.68599168031E+01  0.37892019949E+02  0.16529085160E+03  0.12509621382E+03 0.  0.
         24    2    1    2    0    0  0.11434153526E+03  0.14505994694E+02  0.17657199923E+03  0.22860618927E+03  0.88310295509E+02 0.  0.
        -13    1    5    5    0    0  0.11831809968E+03  0.28140754971E+02  0.17657218110E+03  0.21440338136E+03  0.00000000000E+00 0.  1.
         14    1    5    5    0    0 -0.39765644128E+01 -0.13634760278E+02 -0.18187456668E-03  0.14202807905E+02  0.00000000000E+00 0. -1.
         13    1    3    3    0    0  0.21949887497E+02 -0.21058829637E+02 -0.17664861917E+03  0.17924844915E+03  0.00000000000E+00 0. -1.
        -14    1    3    3    0    0 -0.35350156291E+02 -0.30708185958E+00 -0.89397227441E+03  0.89467097598E+03  0.00000000000E+00 0.  1.
          5    1    4    4  501    0 -0.40753944945E+02  0.20178948398E+02  0.78880265125E+02  0.91146270430E+02  0.41800000000E+01 0.  1.
         -5    1    4    4    0  501 -0.60187321525E+02 -0.13319031595E+02 -0.40988245176E+02  0.74144581175E+02  0.41800000000E+01 0.  1.
</event>
<event>
11    1  0.7882745E-009  0.1856184E+03  0.7561462E-02  0.1065187E+00
         22   -1    0    0    0    0  0.00000000000E+00  0.00000000000E+00  0.18379779225E+03  0.18379779225E+03  0.00000000000E+00 0. -1.
         22   -1    0    0    0    0 -0.00000000000E+00 -0.00000000000E+00 -0.96186777691E+03  0.96186777691E+03  0.00000000000E+00 0.  1.
         24    2    1    2    0    0 -0.19250245372E+02  0.23387341567E+02 -0.46278450474E+03  0.47079804105E+03  0.81017022546E+02 0.  0.
         25    2    1    2    0    0  0.29302772613E+02  0.11510597981E+03 -0.43957178347E+03  0.47220812424E+03  0.12509644559E+03 0.  0.
        -24    2    1    2    0    0 -0.10052527241E+02 -0.13849332138E+03  0.12428630354E+03  0.20265940387E+03  0.79638529343E+02 0.  0.
        -11    1    3    3    0    0 -0.44742778003E+02  0.21713835046E+02 -0.39899967745E+03  0.40208724106E+03  0.00000000000E+00 0.  1.
         12    1    3    3    0    0  0.25492532631E+02  0.16735065211E+01 -0.63784827287E+02  0.68710799996E+02  0.00000000000E+00 0. -1.
         11    1    5    5    0    0  0.13098868978E+02 -0.13492947933E+03  0.96972189880E+02  0.16667678414E+03  0.00000000000E+00 0. -1.
        -12    1    5    5    0    0 -0.23151396219E+02 -0.35638420473E+01  0.27314113665E+02  0.35982619726E+02  0.00000000000E+00 0.  1.
          5    1    4    4  501    0  0.41588857008E+02  0.21713153244E+02 -0.30060255589E+03  0.30427037822E+03  0.41800000000E+01 0.  1.
         -5    1    4    4    0  501 -0.12286084395E+02  0.93392826568E+02 -0.13896922758E+03  0.16793774602E+03  0.41800000000E+01 0.  1.
</event>
<event>
11    1  0.7882745E-009  0.2912248E+03  0.7561462E-02  0.1003975E+00
         22   -1    0    0    0    0  0.00000000000E+00  0.00000000000E+00  0.88048028195E+03  0.88048028195E+03  0.00000000000E+00 0. -1.
         22   -1    0    0    0    0 -0.00000000000E+00 -0.00000000000E+00 -0.15512045849E+04  0.15512045849E+04  0.00000000000E+00 0. -1.
        -24    2    1    2    0    0 -0.21494875651E+03  0.14839984980E+03 -0.14224592475E+04  0.14485554181E+04  0.81835231080E+02 0.  0.
         25    2    1    2    0    0  0.17789263244E+03 -0.27357284092E+03  0.18261674224E+03  0.39430049122E+03  0.12504445158E+03 0.  0.
         24    2    1    2    0    0  0.37056124071E+02  0.12517299112E+03  0.56911820232E+03  0.58882895755E+03  0.76043270559E+02 0.  0.
        -11    1    5    5    0    0  0.40928304716E+02  0.33666572794E+02  0.13244626995E+03  0.14265545441E+03  0.00000000000E+00 0.  1.
         12    1    5    5    0    0 -0.38721806450E+01  0.91506418322E+02  0.43667193237E+03  0.44617350314E+03  0.00000000000E+00 0. -1.
         11    1    3    3    0    0 -0.18446596771E+03  0.91768902546E+02 -0.11719187183E+04  0.11898918888E+04  0.00000000000E+00 0. -1.
        -12    1    3    3    0    0 -0.30482788797E+02  0.56630947255E+02 -0.25054052922E+03  0.25866352928E+03  0.00000000000E+00 0.  1.
          5    1    4    4  501    0  0.11065741085E+03 -0.22093779040E+03  0.77907752675E+02  0.25912479644E+03  0.41800000000E+01 0. -1.
         -5    1    4    4    0  501  0.67235221585E+02 -0.52635050515E+02  0.10470898956E+03  0.13517569478E+03  0.41800000000E+01 0. -1.
</event>
<event>
11    1  0.7882745E-009  0.1375775E+03  0.7561462E-02  0.1110294E+00
         22   -1    0    0    0    0  0.00000000000E+00  0.00000000000E+00  0.65716417966E+03  0.65716417966E+03  0.00000000000E+00 0. -1.
         22   -1    0    0    0    0 -0.00000000000E+00 -0.00000000000E+00 -0.87054513066E+03  0.87054513066E+03  0.00000000000E+00 0.  1.
         24    2    1    2    0    0  0.21807636042E+02  0.61887715795E+01 -0.82620835227E+03  0.83036449699E+03  0.79819061674E+02 0.  0.
         25    2    1    2    0    0 -0.60380747799E+02 -0.45548301855E+02  0.10427954498E+03  0.17956054940E+03  0.12508910781E+03 0.  0.
        -24    2    1    2    0    0  0.38573111757E+02  0.39359530276E+02  0.50854785629E+03  0.51778426393E+03  0.80265585798E+02 0.  0.
        -11    1    3    3    0    0  0.19772669937E+02  0.42250863478E+02 -0.49450404376E+03  0.49669944960E+03  0.00000000000E+00 0.  1.
         12    1    3    3    0    0  0.20349661041E+01 -0.36062091899E+02 -0.33170430852E+03  0.33366504739E+03  0.00000000000E+00 0. -1.
         11    1    5    5    0    0  0.47877867887E+02  0.35631454309E+02  0.50259494225E+03  0.50612603839E+03  0.00000000000E+00 0. -1.
        -12    1    5    5    0    0 -0.93047561299E+01  0.37280759669E+01  0.59529140438E+01  0.11658225537E+02  0.00000000000E+00 0.  1.
          5    1    4    4  501    0  0.27163452178E+02 -0.44806753835E+02  0.15490969333E+02  0.54799095379E+02  0.41800000000E+01 0. -1.
         -5    1    4    4    0  501 -0.87544199977E+02 -0.74154802033E+00  0.88788575651E+02  0.12476145402E+03  0.41800000000E+01 0. -1.
</event>
<event>
11    1  0.7882745E-009  0.1296765E+03  0.7561462E-02  0.1119667E+00
         22   -1    0    0    0    0  0.00000000000E+00  0.00000000000E+00  0.12291632610E+04  0.12291632610E+04  0.00000000000E+00 0. -1.
         22   -1    0    0    0    0 -0.00000000000E+00 -0.00000000000E+00 -0.42648709342E+03  0.42648709342E+03  0.00000000000E+00 0. -1.
         24    2    1    2    0    0  0.81517513800E+01  0.33117776960E+02 -0.40548128162E+03  0.41407227583E+03  0.76665126764E+02 0.  0.
         25    2    1    2    0    0  0.53885063560E+01 -0.41589501338E+02  0.27728438420E+03  0.30707186291E+03  0.12509107342E+03 0.  0.
        -24    2    1    2    0    0 -0.13540257736E+02  0.84717243783E+01  0.93087306506E+03  0.93450621573E+03  0.80759490407E+02 0.  0.
        -13    1    3    3    0    0 -0.56727006351E+01  0.13985271484E+02 -0.10497506883E+02  0.18383824459E+02  0.00000000000E+00 0.  1.
         14    1    3    3    0    0  0.13824452015E+02  0.19132505475E+02 -0.39498377474E+03  0.39568845137E+03  0.00000000000E+00 0. -1.
         13    1    5    5    0    0  0.29256685280E+02  0.44128509776E+01  0.61624054203E+03  0.61695042955E+03  0.00000000000E+00 0. -1.
        -14    1    5    5    0    0 -0.42796943016E+02  0.40588734007E+01  0.31463252303E+03  0.31755578617E+03  0.00000000000E+00 0.  1.
          5    1    4    4  501    0  0.10152857377E+02 -0.64438733201E+01  0.27040280376E+03  0.27070233227E+03  0.41800000000E+01 0.  1.
         -5    1    4    4    0  501 -0.47643510212E+01 -0.35145628018E+02  0.68815804373E+01  0.36369530637E+02  0.41800000000E+01 0.  1.
</event>
<event>
11    1  0.7882745E-009  0.2118244E+03  0.7561462E-02  0.1046463E+00
         22   -1    0    0    0    0  0.00000000000E+00  0.00000000000E+00  0.79587410213E+03  0.79587410213E+03  0.00000000000E+00 0. -1.
         22   -1    0    0    0    0 -0.00000000000E+00 -0.00000000000E+00 -0.12582792656E+04  0.12582792656E+04  0.00000000000E+00 0.  1.
         24    2    1    2    0    0 -0.15342184498E+03 -0.72992361652E+02 -0.11292900448E+04  0.11448780424E+04  0.81139259416E+02 0.  0.
         25    2    1    2    0    0  0.16482634240E+03  0.84254273490E+02 -0.13602938030E+02  0.22382736861E+03  0.12508854970E+03 0.  0.
        -24    2    1    2    0    0 -0.11404497423E+02 -0.11261911837E+02  0.68048781932E+03  0.68544795670E+03  0.80736211681E+02 0.  0.
        -13    1    3    3    0    0 -0.11571044828E+03 -0.21661543819E+02 -0.86749266241E+03  0.87544368732E+03  0.00000000000E+00 0.  1.
         14    1    3    3    0    0 -0.37711396701E+02 -0.51330817834E+02 -0.26179738239E+03  0.26943435513E+03  0.00000000000E+00 0. -1.
         11    1    5    5    0    0  0.11903011524E+02  0.45513502477E+00  0.61267056774E+03  0.61278635217E+03  0.00000000000E+00 0. -1.
        -12    1    5    5    0    0 -0.23307508947E+02 -0.11717046862E+02  0.67817251583E+02  0.72661604529E+02  0.00000000000E+00 0.  1.
          5    1    4    4  501    0  0.28441579310E+02 -0.28382465070E+02 -0.23288235192E+02  0.46629411914E+02  0.41800000000E+01 0. -1.
         -5    1    4    4    0  501  0.13638476309E+03  0.11263673856E+03  0.96852971619E+01  0.17719795670E+03  0.41800000000E+01 0. -1.
</event>
<event>
11    1  0.7882745E-009  0.1326043E+03  0.7561462E-02  0.1116110E+00
         22   -1    0    0    0    0  0.00000000000E+00  0.00000000000E+00  0.31358687579E+03  0.31358687579E+03  0.00000000000E+00 0. -1.
         22   -1    0    0    0    0 -0.00000000000E+00 -0.00000000000E+00 -0.20612063017E+04  0.20612063017E+04  0.00000000000E+00 0.  1.
        -24    2    1    2    0    0  0.88565121372E+01  0.42045123823E+02 -0.19396949239E+04  0.19424703640E+04  0.94490672363E+02 0.  0.
         25    2    1    2    0    0 -0.29358432798E+02 -0.76991021588E+02 -0.62151265654E+02  0.16217168353E+03  0.12508932862E+03 0.  0.
         24    2    1    2    0    0  0.20501920661E+02  0.34945897765E+02  0.25422676367E+03  0.27015112989E+03  0.81907515480E+02 0.  0.
        -13    1    5    5    0    0  0.17521318195E+02 -0.54375175915E+01  0.70089565041E+01  0.19638957715E+02  0.00000000000E+00 0.  1.
         14    1    5    5    0    0  0.29806024656E+01  0.40383415357E+02  0.24721780717E+03  0.25051217217E+03  0.00000000000E+00 0. -1.
         13    1    3    3    0    0  0.16968993878E+02  0.29831072616E+02 -0.21570977432E+03  0.21842286140E+03  0.00000000000E+00 0. -1.
        -14    1    3    3    0    0 -0.81124817412E+01  0.12214051207E+02 -0.17239851496E+04  0.17240475026E+04  0.00000000000E+00 0.  1.
          5    1    4    4  501    0  0.45047277015E+02 -0.56782580535E+01 -0.28056350850E+02  0.53536258779E+02  0.41800000000E+01 0.  1.
         -5    1    4    4    0  501 -0.74405709813E+02 -0.71312763535E+02 -0.34094914805E+02  0.10863542475E+03  0.41800000000E+01 0.  1.
</event>
<event>
11    1  0.7882745E-009  0.1731417E+03  0.7561462E-02  0.1075330E+00
         22   -1    0    0    0    0  0.00000000000E+00  0.00000000000E+00  0.41742180660E+03  0.41742180660E+03  0.00000000000E+00 0. -1.
         22   -1    0    0    0    0 -0.00000000000E+00 -0.00000000000E+00 -0.85328809877E+03  0.85328809877E+03  0.00000000000E+00 0.  1.
        -24    2    1    2    0    0 -0.10811961215E+03  0.55585482274E+02 -0.76012199464E+03  0.77472906811E+03  0.87407584676E+02 0.  0.
         25    2    1    2    0    0  0.97843213110E+02 -0.25900872044E+02  0.17564605106E+01  0.16091607600E+03  0.12508696510E+03 0.  0.
         24    2    1    2    0    0  0.10276399042E+02 -0.29684610229E+02  0.32249924196E+03  0.33506476126E+03  0.85298609064E+02 0.  0.
        -13    1    5    5    0    0  0.29002807131E+02  0.21675377610E+02  0.13228743778E+03  0.13715302042E+03  0.00000000000E+00 0.  1.
         14    1    5    5    0    0 -0.18726408089E+02 -0.51359987839E+02  0.19021180419E+03  0.19791174084E+03  0.00000000000E+00 0. -1.
         11    1    3    3    0    0  0.58166975457E+01 -0.48411399396E+01 -0.59974885097E+01  0.96561107428E+01  0.00000000000E+00 0. -1.
        -12    1    3    3    0    0 -0.11393630970E+03  0.60426622213E+02 -0.75412450614E+03  0.76507295737E+03  0.00000000000E+00 0.  1.
          5    1    4    4  501    0  0.69640301878E+02 -0.31915613401E+01  0.60089554580E+02  0.92131344716E+02  0.41800000000E+01 0.  1.
         -5    1    4    4    0  501  0.28202911232E+02 -0.22709310704E+02 -0.58333094070E+02  0.68784731288E+02  0.41800000000E+01 0.  1.
</event>
<event>
11    1  0.7882745E-009  0.1379627E+03  0.7561462E-02  0.1109855E+00
         22   -1    0    0    0    0  0.00000000000E+00  0.00000000000E+00  0.89262035958E+02  0.89262035958E+02  0.00000000000E+00 0.  1.
         22   -1    0    0    0    0 -0.00000000000E+00 -0.00000000000E+00 -0.20412718447E+04  0.20412718447E+04  0.00000000000E+00 0.  1.
        -24    2    1    2    0    0 -0.47954729555E+02 -0.33571876020E+02 -0.18035462233E+04  0.18066848048E+04  0.88906003062E+02 0.  0.
         25    2    1    2    0    0  0.58107745843E+02  0.71238579825E+01 -0.18522698141E+03  0.23106573885E+03  0.12512026832E+03 0.  0.
         24    2    1    2    0    0 -0.10153016288E+02  0.26448018037E+02  0.36763395999E+02  0.92783336980E+02  0.80340643126E+02 0.  0.
        -13    1    5    5    0    0 -0.11683766125E+01  0.35319156519E+02  0.58092824343E+02  0.67996942294E+02  0.00000000000E+00 0.  1.
         14    1    5    5    0    0 -0.89846396751E+01 -0.88711384816E+01 -0.21329428344E+02  0.24786394686E+02  0.00000000000E+00 0. -1.
         13    1    3    3    0    0  0.23399825032E+02  0.60221467878E+01 -0.33236771953E+03  0.33324483349E+03  0.00000000000E+00 0. -1.
        -14    1    3    3    0    0 -0.71354554588E+02 -0.39594022808E+02 -0.14711785038E+04  0.14734399713E+04  0.00000000000E+00 0.  1.
          5    1    4    4  501    0  0.10203012842E+01  0.46015926914E+02 -0.17143786336E+02  0.49293897740E+02  0.41800000000E+01 0.  1.
         -5    1    4    4    0  501  0.57087444559E+02 -0.38892068931E+02 -0.16808319508E+03  0.18177184111E+03  0.41800000000E+01 0.  1.
</event>
<event>
11    1  0.7882745E-009  0.1594404E+03  0.7561462E-02  0.1087605E+00
         22   -1    0    0    0    0  0.00000000000E+00  0.00000000000E+00  0.39556912846E+03  0.39556912846E+03  0.00000000000E+00 0.  1.
         22   -1    0    0    0    0 -0.00000000000E+00 -0.00000000000E+00 -0.51326472455E+03  0.51326472455E+03  0.00000000000E+00 0.  1.
         24    2    1    2    0    0  0.61657164832E+02  0.32591490454E+02 -0.35110617667E+03  0.36728134846E+03  0.82196291928E+02 0.  0.
         25    2    1    2    0    0 -0.27748783576E+02 -0.12451290956E+03 -0.85591331161E+02  0.19810868087E+03  0.12509082232E+03 0.  0.
        -24    2    1    2    0    0 -0.33908381256E+02  0.91921419105E+02  0.31900191174E+03  0.34344382368E+03  0.81191838998E+02 0.  0.
        -13    1    3    3    0    0  0.46390071078E+02 -0.85458558415E+01 -0.27834281188E+03  0.28231151460E+03  0.00000000000E+00 0.  1.
         14    1    3    3    0    0  0.15267093755E+02  0.41137346295E+02 -0.72763364787E+02  0.84969833865E+02  0.00000000000E+00 0. -1.
         13    1    5    5    0    0 -0.42115172730E+02  0.88689171423E+01  0.12678529886E+03  0.13389121507E+03  0.00000000000E+00 0. -1.
        -14    1    5    5    0    0  0.82067914740E+01  0.83052501963E+02  0.19221661287E+03  0.20955260860E+03  0.00000000000E+00 0.  1.
          5    1    4    4  501    0 -0.58321292161E+02 -0.20350722581E+02 -0.36216969381E+01  0.62017046992E+02  0.41800000000E+01 0.  1.
         -5    1    4    4    0  501  0.30572508585E+02 -0.10416218698E+03 -0.81969634223E+02  0.13609163388E+03  0.41800000000E+01 0.  1.
</event>
<event>
11    1  0.7882745E-009  0.1723443E+03  0.7561462E-02  0.1076009E+00
         22   -1    0    0    0    0  0.00000000000E+00  0.00000000000E+00  0.99402053303E+03  0.99402053303E+03  0.00000000000E+00 0. -1.
         22   -1    0    0    0    0 -0.00000000000E+00 -0.00000000000E+00 -0.20217053993E+04  0.20217053993E+04  0.00000000000E+00 0.  1.
         24    2    1    2    0    0  0.59112505155E+02 -0.23238672440E+02 -0.19400861871E+04  0.19428436238E+04  0.81686038221E+02 0.  0.
         25    2    1    2    0    0 -0.10011827506E+03  0.13113638579E+03  0.69482340190E+02  0.21839255822E+03  0.12508834162E+03 0.  0.
        -24    2    1    2    0    0  0.41005769907E+02 -0.10789771335E+03  0.84291898060E+03  0.85448975038E+03  0.79479154116E+02 0.  0.
        -13    1    3    3    0    0 -0.16223099000E+02 -0.22136388865E+02 -0.62296723974E+03  0.62357147982E+03  0.00000000000E+00 0.  1.
         14    1    3    3    0    0  0.75335604155E+02 -0.11022835743E+01 -0.13171189474E+04  0.13192721439E+04  0.00000000000E+00 0. -1.
         11    1    5    5    0    0  0.19617968812E+02 -0.52390948295E+02  0.65490608135E+03  0.65729114672E+03  0.00000000000E+00 0. -1.
        -12    1    5    5    0    0  0.21387801095E+02 -0.55506765057E+02  0.18801289925E+03  0.19719860366E+03  0.00000000000E+00 0.  1.
          5    1    4    4  501    0 -0.36533210064E+02  0.10870996724E+03  0.92106018658E+02  0.14715136251E+03  0.41800000000E+01 0. -1.
         -5    1    4    4    0  501 -0.63585064997E+02  0.22426418552E+02 -0.22623678468E+02  0.71241195717E+02  0.41800000000E+01 0. -1.
</event>
<event>
11    1  0.7882745E-009  0.1676192E+03  0.7561462E-02  0.1080122E+00
         22   -1    0    0    0    0  0.00000000000E+00  0.00000000000E+00  0.31884314408E+03  0.31884314408E+03  0.00000000000E+00 0. -1.
         22   -1    0    0    0    0 -0.00000000000E+00 -0.00000000000E+00 -0.62407521921E+03  0.62407521921E+03  0.00000000000E+00 0.  1.
        -24    2    1    2    0    0 -0.10637028549E+03 -0.26882600047E+02 -0.45665226016E+03  0.47842324055E+03  0.91215122453E+02 0.  0.
         25    2    1    2    0    0  0.12372328632E+03 -0.12186548861E+01 -0.97397487078E+02  0.20110417254E+03  0.12509069121E+03 0.  0.
         24    2    1    2    0    0 -0.17353000828E+02  0.28101254933E+02  0.24881767212E+03  0.26339095020E+03  0.79835778449E+02 0.  0.
        -13    1    5    5    0    0  0.62366177574E+01  0.49313371477E+02  0.10576613996E+03  0.11686393956E+03  0.00000000000E+00 0.  1.
         14    1    5    5    0    0 -0.23589618585E+02 -0.21212116544E+02  0.14305153215E+03  0.14652701063E+03  0.00000000000E+00 0. -1.
         13    1    3    3    0    0  0.88375154589E+00  0.21849255434E+02 -0.11419156645E+03  0.11626643896E+03  0.00000000000E+00 0. -1.
        -14    1    3    3    0    0 -0.10725403704E+03 -0.48731855481E+02 -0.34246069371E+03  0.36215680159E+03  0.00000000000E+00 0.  1.
          5    1    4    4  501    0  0.84758812779E+02 -0.18531199266E+02  0.81011208806E+01  0.87238536493E+02  0.41800000000E+01 0.  1.
         -5    1    4    4    0  501  0.38964473539E+02  0.17312544380E+02 -0.10549860796E+03  0.11386563605E+03  0.41800000000E+01 0.  1.
</event>
<event>
11    1  0.7882745E-009  0.1543815E+03  0.7561462E-02  0.1092484E+00
         22   -1    0    0    0    0  0.00000000000E+00  0.00000000000E+00  0.45578135046E+03  0.45578135046E+03  0.00000000000E+00 0. -1.
         22   -1    0    0    0    0 -0.00000000000E+00 -0.00000000000E+00 -0.16895238623E+04  0.16895238623E+04  0.00000000000E+00 0.  1.
        -24    2    1    2    0    0 -0.30807105478E+01 -0.77648480437E+01 -0.71103561733E+03  0.71542135548E+03  0.78652928232E+02 0.  0.
         25    2    1    2    0    0 -0.66410466677E+02  0.65673237938E+02 -0.96184648365E+03  0.97443279946E+03  0.12508916138E+03 0.  0.
         24    2    1    2    0    0  0.69491177225E+02 -0.57908389895E+02  0.43913958917E+03  0.45545105778E+03  0.80060489147E+02 0.  0.
        -11    1    5    5    0    0  0.32381734446E+02  0.16491171261E+02  0.16635176074E+03  0.17027461278E+03  0.00000000000E+00 0.  1.
         12    1    5    5    0    0  0.37109442779E+02 -0.74399561156E+02  0.27278782843E+03  0.28517644500E+03  0.00000000000E+00 0. -1.
         13    1    3    3    0    0 -0.11800942216E+02 -0.70387887186E+00 -0.14120521359E+02  0.18415938914E+02  0.00000000000E+00 0. -1.
        -14    1    3    3    0    0  0.87202316687E+01 -0.70609691718E+01 -0.69691509597E+03  0.69700541657E+03  0.00000000000E+00 0.  1.
          5    1    4    4  501    0  0.30555358132E+02 -0.76395621227E+01 -0.13503655289E+03  0.13872395553E+03  0.41800000000E+01 0. -1.
         -5    1    4    4    0  501 -0.96965824809E+02  0.73312800061E+02 -0.82680993076E+03  0.83570884394E+03  0.41800000000E+01 0. -1.
</event>
<event>
11    1  0.7882745E-009  0.1410193E+03  0.7561462E-02  0.1106425E+00
         22   -1    0    0    0    0  0.00000000000E+00  0.00000000000E+00  0.10451553219E+04  0.10451553219E+04  0.00000000000E+00 0.  1.
         22   -1    0    0    0    0 -0.00000000000E+00 -0.00000000000E+00 -0.13383569218E+04  0.13383569218E+04  0.00000000000E+00 0. -1.
        -24    2    1    2    0    0  0.65115214863E+02 -0.40419381269E+01 -0.12652858487E+04  0.12692034995E+04  0.75318761748E+02 0.  0.
         25    2    1    2    0    0 -0.58039298543E+02  0.32843710036E+02  0.33738367832E+01  0.14179653532E+03  0.12509038808E+03 0.  0.
         24    2    1    2    0    0 -0.70759163201E+01 -0.28801771909E+02  0.96871041201E+03  0.97251220878E+03  0.80625822471E+02 0.  0.
        -11    1    5    5    0    0 -0.15271687057E+02  0.53575291832E+01  0.80094099890E+03  0.80110449459E+03  0.00000000000E+00 0.  1.
         12    1    5    5    0    0  0.81957707365E+01 -0.34159301092E+02  0.16776941311E+03  0.17140771419E+03  0.00000000000E+00 0. -1.
         11    1    3    3    0    0 -0.66249050376E+01 -0.23167247235E+02 -0.40683848132E+03  0.40755142079E+03  0.00000000000E+00 0. -1.
        -12    1    3    3    0    0  0.71740119900E+02  0.19125309108E+02 -0.85844736738E+03  0.86165207875E+03  0.00000000000E+00 0.  1.
          5    1    4    4  501    0  0.29226153463E+02 -0.22244001832E+02  0.10021756724E+02  0.38299760725E+02  0.41800000000E+01 0.  1.
         -5    1    4    4    0  501 -0.87265452005E+02  0.55087711868E+02 -0.66479199411E+01  0.10349677460E+03  0.41800000000E+01 0.  1.
</event>
<event>
11    1  0.7882745E-009  0.1826356E+03  0.7561462E-02  0.1067531E+00
         22   -1    0    0    0    0  0.00000000000E+00  0.00000000000E+00  0.31698216771E+03  0.31698216771E+03  0.00000000000E+00 0.  1.
         22   -1    0    0    0    0 -0.00000000000E+00 -0.00000000000E+00 -0.18377442411E+04  0.18377442411E+04  0.00000000000E+00 0. -1.
        -24    2    1    2    0    0  0.16241923942E+02 -0.12120942174E+03 -0.14721955287E+04  0.14794756535E+04  0.80827041101E+02 0.  0.
         25    2    1    2    0    0  0.10796629100E+03  0.16410462268E+03 -0.30026761188E+03  0.37999830574E+03  0.12510406247E+03 0.  0.
         24    2    1    2    0    0 -0.12420821494E+03 -0.42895200940E+02  0.25170106720E+03  0.29525244955E+03  0.80950001928E+02 0.  0.
        -11    1    5    5    0    0 -0.11641131650E+03 -0.48055939992E+02  0.25573923298E+03  0.28506757666E+03  0.00000000000E+00 0.  1.
         12    1    5    5    0    0 -0.77968984468E+01  0.51607390516E+01 -0.40381657791E+01  0.10184872891E+02  0.00000000000E+00 0. -1.
         13    1    3    3    0    0  0.28690913166E+02 -0.10791352172E+03 -0.14161336519E+04  0.14205291327E+04  0.00000000000E+00 0. -1.
        -14    1    3    3    0    0 -0.12448989225E+02 -0.13295900016E+02 -0.56061876763E+02  0.58946520814E+02  0.00000000000E+00 0.  1.
          5    1    4    4  501    0  0.44267267382E+02  0.14581748615E+03 -0.26263443936E+03  0.30367194695E+03  0.41800000000E+01 0. -1.
         -5    1    4    4    0  501  0.63699023621E+02  0.18287136528E+02 -0.37633172524E+02  0.76326358795E+02  0.41800000000E+01 0. -1.
</event>
<event>
11    1  0.7882745E-009  0.1357214E+03  0.7561462E-02  0.1112432E+00
         22   -1    0    0    0    0  0.00000000000E+00  0.00000000000E+00  0.52227390195E+03  0.52227390195E+03  0.00000000000E+00 0.  1.
         22   -1    0    0    0    0 -0.00000000000E+00 -0.00000000000E+00 -0.16312411984E+04  0.16312411984E+04  0.00000000000E+00 0. -1.
         24    2    1    2    0    0  0.26510608742E+02  0.88653692113E+01 -0.14895933565E+04  0.14921297068E+04  0.82348569307E+02 0.  0.
         25    2    1    2    0    0 -0.21785803855E+02 -0.61070828364E+02 -0.99001050779E+02  0.17220382477E+03  0.12509469167E+03 0.  0.
        -24    2    1    2    0    0 -0.47248048870E+01  0.52205459153E+02  0.47962711089E+03  0.48918156878E+03  0.80676564080E+02 0.  0.
        -11    1    3    3    0    0 -0.24353316728E+01  0.24073291875E+02 -0.13561601030E+03  0.13775760041E+03  0.00000000000E+00 0.  1.
         12    1    3    3    0    0  0.28945940415E+02 -0.15207922664E+02 -0.13539773462E+04  0.13543721063E+04  0.00000000000E+00 0. -1.
         11    1    5    5    0    0 -0.62560906079E+00 -0.16778697890E+02  0.30925266082E+02  0.35189319002E+02  0.00000000000E+00 0. -1.
        -12    1    5    5    0    0 -0.40991958262E+01  0.68984157042E+02  0.44870184480E+03  0.45399224978E+03  0.00000000000E+00 0.  1.
          5    1    4    4  501    0  0.32740986752E+02  0.23241277256E+02 -0.30179772719E+02  0.50402581912E+02  0.41800000000E+01 0. -1.
         -5    1    4    4    0  501 -0.54526790608E+02 -0.84312105620E+02 -0.68821278060E+02  0.12180124286E+03  0.41800000000E+01 0. -1.
</event>
<event>
11    1  0.7882745E-009  0.1384391E+03  0.7561462E-02  0.1109314E+00
         22   -1    0    0    0    0  0.00000000000E+00  0.00000000000E+00  0.15744310634E+04  0.15744310634E+04  0.00000000000E+00 0. -1.
         22   -1    0    0    0    0 -0.00000000000E+00 -0.00000000000E+00 -0.11880947900E+04  0.11880947900E+04  0.00000000000E+00 0. -1.
         24    2    1    2    0    0  0.59119708077E+02 -0.16334327999E+01 -0.11545648991E+04  0.11589684832E+04  0.81792608560E+02 0.  0.
         25    2    1    2    0    0 -0.75156263195E+02 -0.33345787764E+02  0.15729354132E+03  0.21713664452E+03  0.12508660518E+03 0.  0.
        -24    2    1    2    0    0  0.16036555118E+02  0.34979220564E+02  0.13836076312E+04  0.13864207258E+04  0.79445798709E+02 0.  0.
        -11    1    3    3    0    0 -0.44119895727E+01  0.68008910266E+01 -0.68523670623E+03  0.68528465716E+03  0.00000000000E+00 0.  1.
         12    1    3    3    0    0  0.63531697650E+02 -0.84343238265E+01 -0.46932819283E+03  0.47368382600E+03  0.00000000000E+00 0. -1.
         11    1    5    5    0    0  0.34751130045E+02 -0.93224081758E+01  0.81073202150E+03  0.81153001117E+03  0.00000000000E+00 0. -1.
        -12    1    5    5    0    0 -0.18714574927E+02  0.44301628740E+02  0.57287560965E+03  0.57489071462E+03  0.00000000000E+00 0.  1.
          5    1    4    4  501    0 -0.27513549012E+02 -0.78849375143E+02  0.84855773874E+02  0.11913099554E+03  0.41800000000E+01 0. -1.
         -5    1    4    4    0  501 -0.47642714183E+02  0.45503587378E+02  0.72437767449E+02  0.98005648980E+02  0.41800000000E+01 0. -1.
</event>
<event>
11    1  0.7882745E-009  0.1328148E+03  0.7561462E-02  0.1115858E+00
         22   -1    0    0    0    0  0.00000000000E+00  0.00000000000E+00  0.60182107494E+03  0.60182107494E+03  0.00000000000E+00 0.  1.
         22   -1    0    0    0    0 -0.00000000000E+00 -0.00000000000E+00 -0.12681151514E+03  0.12681151514E+03  0.00000000000E+00 0. -1.
         24    2    1    2    0    0  0.11225696241E+02  0.20220156516E+00 -0.36680228232E+02  0.90094279106E+02  0.81519830979E+02 0.  0.
         25    2    1    2    0    0  0.30409917341E+02  0.17690746258E+02  0.11985371983E+02  0.13049461630E+03  0.12508984837E+03 0.  0.
        -24    2    1    2    0    0 -0.41635613582E+02 -0.17892947823E+02  0.49970441605E+03  0.50804369468E+03  0.79688207301E+02 0.  0.
        -13    1    3    3    0    0  0.39313738806E+02 -0.15863174402E+02 -0.16779039826E+01  0.42426710016E+02  0.00000000000E+00 0.  1.
         14    1    3    3    0    0 -0.28088042565E+02  0.16065375967E+02 -0.35002324249E+02  0.47667569090E+02  0.00000000000E+00 0. -1.
         13    1    5    5    0    0 -0.27392951176E+02 -0.31657561629E+02  0.10786633481E+03  0.11570532040E+03  0.00000000000E+00 0. -1.
        -14    1    5    5    0    0 -0.14242662406E+02  0.13764613806E+02  0.39183808124E+03  0.39233837428E+03  0.00000000000E+00 0.  1.
          5    1    4    4  501    0 -0.37373415382E+02  0.41976852134E+02 -0.44088166038E+01  0.56530861980E+02  0.41800000000E+01 0.  1.
         -5    1    4    4    0  501  0.67783332722E+02 -0.24286105875E+02  0.16394188586E+02  0.73963754319E+02  0.41800000000E+01 0.  1.
</event>
<event>
11    1  0.7882745E-009  0.1456427E+03  0.7561462E-02  0.1101416E+00
         22   -1    0    0    0    0  0.00000000000E+00  0.00000000000E+00  0.49358660005E+03  0.49358660005E+03  0.00000000000E+00 0.  1.
         22   -1    0    0    0    0 -0.00000000000E+00 -0.00000000000E+00 -0.17562750104E+04  0.17562750104E+04  0.00000000000E+00 0. -1.
        -24    2    1    2    0    0  0.20345780521E+02  0.73343136176E+02 -0.16402052761E+04  0.16439556458E+04  0.80769121150E+02 0.  0.
         25    2    1    2    0    0  0.58942372045E+01 -0.45186119501E+02 -0.69548544117E+02  0.15020053685E+03  0.12508666537E+03 0.  0.
         24    2    1    2    0    0 -0.26240017726E+02 -0.28157016675E+02  0.44706540995E+03  0.45570542781E+03  0.79489622192E+02 0.  0.
        -11    1    5    5    0    0  0.13105357675E+02  0.91531085115E+01  0.27120218053E+03  0.27167287778E+03  0.00000000000E+00 0.  1.
         12    1    5    5    0    0 -0.39345375401E+02 -0.37310125187E+02  0.17586322943E+03  0.18403255003E+03  0.00000000000E+00 0. -1.
         13    1    3    3    0    0  0.10039135152E+02  0.88142650787E+02 -0.11490805575E+04  0.11524999084E+04  0.00000000000E+00 0. -1.
        -14    1    3    3    0    0  0.10306645370E+02 -0.14799514611E+02 -0.49112471865E+03  0.49145573741E+03  0.00000000000E+00 0.  1.
          5    1    4    4  501    0  0.58790712343E+02 -0.34323783421E+02 -0.87309102566E+01  0.68761698350E+02  0.41800000000E+01 0. -1.
         -5    1    4    4    0  501 -0.52896475138E+02 -0.10862336080E+02 -0.60817633860E+02  0.81438838496E+02  0.41800000000E+01 0. -1.
</event>
<event>
11    1  0.7882745E-009  0.3523489E+03  0.7561462E-02  0.9801864E-01
         22   -1    0    0    0    0  0.00000000000E+00  0.00000000000E+00  0.61867563137E+03  0.61867563137E+03  0.00000000000E+00 0.  1.
         22   -1    0    0    0    0 -0.00000000000E+00 -0.00000000000E+00 -0.12256489544E+04  0.12256489544E+04  0.00000000000E+00 0. -1.
        -24    2    1    2    0    0  0.24670404710E+01 -0.16921329181E+02 -0.70737098101E+03  0.71222575685E+03  0.81236729800E+02 0.  0.
         25    2    1    2    0    0 -0.24386415554E+03 -0.20866181141E+03 -0.39882883482E+03  0.52699291898E+03  0.12509044438E+03 0.  0.
         24    2    1    2    0    0  0.24139711507E+03  0.22558314059E+03  0.49922649281E+03  0.60510590994E+03  0.88123496516E+02 0.  0.
        -11    1    5    5    0    0  0.16862664722E+03  0.19230981689E+03  0.32656480330E+03  0.41480427020E+03  0.00000000000E+00 0.  1.
         12    1    5    5    0    0  0.72770467846E+02  0.33273323694E+02  0.17266168951E+03  0.19030163973E+03  0.00000000000E+00 0. -1.
         11    1    3    3    0    0 -0.23423305472E+02 -0.16656572199E+02 -0.62964666427E+03  0.63030231989E+03  0.00000000000E+00 0. -1.
        -12    1    3    3    0    0  0.25890345943E+02 -0.26475698173E+00 -0.77724316743E+02  0.81923436955E+02  0.00000000000E+00 0.  1.
          5    1    4    4  501    0 -0.22877535962E+03 -0.15693962784E+03 -0.37838946746E+03  0.46921665938E+03  0.41800000000E+01 0. -1.
         -5    1    4    4    0  501 -0.15088795916E+02 -0.51722183566E+02 -0.20439367358E+02  0.57776259597E+02  0.41800000000E+01 0. -1.
</event>
<event>
11    1  0.7882745E-009  0.1769961E+03  0.7561462E-02  0.1072099E+00
         22   -1    0    0    0    0  0.00000000000E+00  0.00000000000E+00  0.21314716291E+03  0.21314716291E+03  0.00000000000E+00 0. -1.
         22   -1    0    0    0    0 -0.00000000000E+00 -0.00000000000E+00 -0.12146319938E+04  0.12146319938E+04  0.00000000000E+00 0. -1.
         24    2    1    2    0    0 -0.36607863017E+02 -0.91425809365E+02 -0.10088451010E+04  0.10169036296E+04  0.81398648396E+02 0.  0.
         25    2    1    2    0    0  0.14361092701E+03  0.22221105270E+02 -0.10855941969E+03  0.22034362300E+03  0.12509312019E+03 0.  0.
        -24    2    1    2    0    0 -0.10700306399E+03  0.69204704095E+02  0.11591968980E+03  0.19053190404E+03  0.81400769041E+02 0.  0.
        -13    1    3    3    0    0  0.11933188134E+02  0.14535358806E+01 -0.27943799900E+02  0.30419889850E+02  0.00000000000E+00 0.  1.
         14    1    3    3    0    0 -0.48541051151E+02 -0.92879345246E+02 -0.98090130106E+03  0.98648373978E+03  0.00000000000E+00 0. -1.
         13    1    5    5    0    0 -0.84607899784E+02  0.20169682767E+02  0.10353336432E+03  0.13522008111E+03  0.00000000000E+00 0. -1.
        -14    1    5    5    0    0 -0.22395164208E+02  0.49035021328E+02  0.12386325483E+02  0.55311822927E+02  0.00000000000E+00 0.  1.
          5    1    4    4  501    0  0.73482446818E+02  0.10273025949E+01  0.16416945827E+02  0.75416933452E+02  0.41800000000E+01 0.  1.
         -5    1    4    4    0  501  0.70128480192E+02  0.21193802675E+02 -0.12497636552E+03  0.14492668955E+03  0.41800000000E+01 0.  1.
</event>
<event>
11    1  0.7882745E-009  0.1441995E+03  0.7561462E-02  0.1102958E+00
         22   -1    0    0    0    0  0.00000000000E+00  0.00000000000E+00  0.28331027027E+03  0.28331027027E+03  0.00000000000E+00 0.  1.
         22   -1    0    0    0    0 -0.00000000000E+00 -0.00000000000E+00 -0.16507671188E+03  0.16507671188E+03  0.00000000000E+00 0. -1.
         24    2    1    2    0    0  0.90904924794E+01  0.19548804404E+02 -0.82732935675E+02  0.11846678631E+03  0.82005170602E+02 0.  0.
         25    2    1    2    0    0  0.27065828362E+01 -0.84957101993E+02  0.80335855721E+02  0.17124021980E+03  0.12507728968E+03 0.  0.
        -24    2    1    2    0    0 -0.11797075316E+02  0.65408297589E+02  0.12063063834E+03  0.15867997604E+03  0.78804616042E+02 0.  0.
        -11    1    3    3    0    0 -0.73496769605E+01 -0.23232864227E+02 -0.55694024232E+00  0.24374041808E+02  0.00000000000E+00 0.  1.
         12    1    3    3    0    0  0.16440169440E+02  0.42781668631E+02 -0.82175995433E+02  0.94092744499E+02  0.00000000000E+00 0. -1.
         13    1    5    5    0    0 -0.29294014391E+02  0.96951334397E+00  0.13099540607E+02  0.32104161714E+02  0.00000000000E+00 0. -1.
        -14    1    5    5    0    0  0.17496939075E+02  0.64438784245E+02  0.10753109773E+03  0.12657581432E+03  0.00000000000E+00 0.  1.
          5    1    4    4  501    0  0.52198515812E+01 -0.60769858779E+02 -0.22757733556E+02  0.65235032177E+02  0.41800000000E+01 0.  1.
         -5    1    4    4    0  501 -0.25132687450E+01 -0.24187243214E+02  0.10309358928E+03  0.10600518763E+03  0.41800000000E+01 0.  1.
</event>
<event>
11    1  0.7882745E-009  0.1533635E+03  0.7561462E-02  0.1093491E+00
         22   -1    0    0    0    0  0.00000000000E+00  0.00000000000E+00  0.87967995253E+03  0.87967995253E+03  0.00000000000E+00 0.  1.
         22   -1    0    0    0    0 -0.00000000000E+00 -0.00000000000E+00 -0.11339220010E+04  0.11339220010E+04  0.00000000000E+00 0.  1.
         24    2    1    2    0    0 -0.45297077984E+02  0.75870540376E+02 -0.10231600946E+04  0.10305756614E+04  0.86147840682E+02 0.  0.
         25    2    1    2    0    0 -0.24757170037E+01 -0.11089437147E+03 -0.36683513084E+02  0.17117364611E+03  0.12510414139E+03 0.  0.
        -24    2    1    2    0    0  0.47772794987E+02  0.35023831090E+02  0.80560155922E+03  0.81185264604E+03  0.81252310592E+02 0.  0.
        -13    1    3    3    0    0 -0.35835307240E+01  0.63731438772E+01 -0.58109923235E+03  0.58114522840E+03  0.00000000000E+00 0.  1.
         14    1    3    3    0    0 -0.41713547260E+02  0.69497396499E+02 -0.44206086226E+03  0.44943043298E+03  0.00000000000E+00 0. -1.
         13    1    5    5    0    0  0.40230749725E+02  0.29714063854E+02  0.19926068041E+03  0.20544161597E+03  0.00000000000E+00 0. -1.
        -14    1    5    5    0    0  0.75420452629E+01  0.53097672365E+01  0.60634087881E+03  0.60641103007E+03  0.00000000000E+00 0.  1.
          5    1    4    4  501    0 -0.16017025135E+01  0.23319097111E+02  0.14093635348E+02  0.27612473601E+02  0.41800000000E+01 0. -1.
         -5    1    4    4    0  501 -0.87401449024E+00 -0.13421346858E+03 -0.50777148432E+02  0.14356117251E+03  0.41800000000E+01 0. -1.
</event>
<event>
11    1  0.7882745E-009  0.1989540E+03  0.7561462E-02  0.1055266E+00
         22   -1    0    0    0    0  0.00000000000E+00  0.00000000000E+00  0.28814171286E+04  0.28814171286E+04  0.00000000000E+00 0. -1.
         22   -1    0    0    0    0 -0.00000000000E+00 -0.00000000000E+00 -0.17969318980E+03  0.17969318980E+03  0.00000000000E+00 0. -1.
         24    2    1    2    0    0  0.13684409402E+03 -0.64114931195E+02 -0.78860707560E+02  0.18817659224E+03  0.79714416506E+02 0.  0.
         25    2    1    2    0    0 -0.14405356172E+03  0.95068089808E+02  0.20440710313E+03  0.29532729722E+03  0.12508628353E+03 0.  0.
        -24    2    1    2    0    0  0.72094676956E+01 -0.30953158613E+02  0.25761775432E+04  0.25776064289E+04  0.79712569981E+02 0.  0.
        -13    1    3    3    0    0  0.58609377572E+02  0.55715618845E+01 -0.32337075963E+01  0.58962346510E+02  0.00000000000E+00 0.  1.
         14    1    3    3    0    0  0.78234716453E+02 -0.69686493079E+02 -0.75626999964E+02  0.12921424573E+03  0.00000000000E+00 0. -1.
         13    1    5    5    0    0 -0.30693902392E+02 -0.35164488197E+02  0.16101734532E+04  0.16108498398E+04  0.00000000000E+00 0. -1.
        -14    1    5    5    0    0  0.37903370088E+02  0.42113295831E+01  0.96600408997E+03  0.96675658912E+03  0.00000000000E+00 0.  1.
          5    1    4    4  501    0 -0.11785830862E+03  0.12119587944E+02  0.15520100798E+03  0.19530051357E+03  0.41800000000E+01 0.  1.
         -5    1    4    4    0  501 -0.26195253095E+02  0.82948501864E+02  0.49206095147E+02  0.10002678364E+03  0.41800000000E+01 0.  1.
</event>
<event>
11    1  0.7882745E-009  0.1478796E+03  0.7561462E-02  0.1099065E+00
         22   -1    0    0    0    0  0.00000000000E+00  0.00000000000E+00  0.12513708475E+03  0.12513708475E+03  0.00000000000E+00 0. -1.
         22   -1    0    0    0    0 -0.00000000000E+00 -0.00000000000E+00 -0.13314352970E+04  0.13314352970E+04  0.00000000000E+00 0. -1.
         24    2    1    2    0    0  0.14821198440E+02  0.76404272890E+02 -0.10292341002E+04  0.10351382056E+04  0.78300644914E+02 0.  0.
         25    2    1    2    0    0 -0.80631798742E+02 -0.27093414190E+02 -0.24482109708E+03  0.28778479858E+03  0.12508869115E+03 0.  0.
        -24    2    1    2    0    0  0.65810600302E+02 -0.49310858700E+02  0.67756984995E+02  0.13364937753E+03  0.80675592350E+02 0.  0.
        -11    1    3    3    0    0 -0.94324197639E+01  0.24837878395E+02 -0.82112609873E+02  0.86303948033E+02  0.00000000000E+00 0.  1.
         12    1    3    3    0    0  0.24253618204E+02  0.51566394495E+02 -0.94712149030E+03  0.94883425762E+03  0.00000000000E+00 0. -1.
         13    1    5    5    0    0  0.22022879586E+02  0.22249728092E+02  0.18499964398E+02  0.36363529919E+02  0.00000000000E+00 0. -1.
        -14    1    5    5    0    0  0.43787720716E+02 -0.71560586792E+02  0.49257020598E+02  0.97285847613E+02  0.00000000000E+00 0.  1.
          5    1    4    4  501    0 -0.18704320284E+01  0.43256473698E+02 -0.94478324680E+02  0.10401080361E+03  0.41800000000E+01 0.  1.
         -5    1    4    4    0  501 -0.78761366714E+02 -0.70349887887E+02 -0.15034277240E+03  0.18377399497E+03  0.41800000000E+01 0.  1.
</event>
<event>
11    1  0.7882745E-009  0.1715456E+03  0.7561462E-02  0.1076694E+00
         22   -1    0    0    0    0  0.00000000000E+00  0.00000000000E+00  0.30663774459E+03  0.30663774459E+03  0.00000000000E+00 0. -1.
         22   -1    0    0    0    0 -0.00000000000E+00 -0.00000000000E+00 -0.77746556539E+03  0.77746556539E+03  0.00000000000E+00 0. -1.
        -24    2    1    2    0    0  0.55037695989E+01  0.34012707898E+02 -0.60613245423E+03  0.61213839871E+03  0.78292473001E+02 0.  0.
         25    2    1    2    0    0  0.37842211128E+02  0.79442414739E+02 -0.10855928105E+03  0.18755016433E+03  0.12508723530E+03 0.  0.
         24    2    1    2    0    0 -0.43345980727E+02 -0.11345512264E+03  0.24386391448E+03  0.28441474694E+03  0.81677417902E+02 0.  0.
        -11    1    5    5    0    0  0.36748159740E+01  0.10060732253E+02  0.40388787834E+02  0.41784887084E+02  0.00000000000E+00 0.  1.
         12    1    5    5    0    0 -0.47020796701E+02 -0.12351585489E+03  0.20347512665E+03  0.24262985986E+03  0.00000000000E+00 0. -1.
         11    1    3    3    0    0  0.14564923142E+02  0.48022146813E+01 -0.52815746873E+03  0.52838008103E+03  0.00000000000E+00 0. -1.
        -12    1    3    3    0    0 -0.90611535428E+01  0.29210493217E+02 -0.77974985496E+02  0.83758317681E+02  0.00000000000E+00 0.  1.
          5    1    4    4  501    0  0.44354262189E+01 -0.33817976863E+02 -0.18834521473E+02  0.39185968968E+02  0.41800000000E+01 0.  1.
         -5    1    4    4    0  501  0.33406784909E+02  0.11326039160E+03 -0.89724759574E+02  0.14836419536E+03  0.41800000000E+01 0.  1.
</event>
<event>
11    1  0.7882745E-009  0.1438087E+03  0.7561462E-02  0.1103378E+00
         22   -1    0    0    0    0  0.00000000000E+00  0.00000000000E+00  0.58861369352E+03  0.58861369352E+03  0.00000000000E+00 0. -1.
         22   -1    0    0    0    0 -0.00000000000E+00 -0.00000000000E+00 -0.33505266765E+03  0.33505266765E+03  0.00000000000E+00 0.  1.
        -24    2    1    2    0    0  0.32868559225E+02 -0.55007632067E+02 -0.16968754267E+03  0.19884227724E+03  0.81475194449E+02 0.  0.
         25    2    1    2    0    0 -0.10226618742E+03  0.45971883580E+02 -0.96698477813E+02  0.19382831875E+03  0.12508810642E+03 0.  0.
         24    2    1    2    0    0  0.69397628197E+02  0.90357484863E+01  0.51994704635E+03  0.53099576518E+03  0.81938367581E+02 0.  0.
        -13    1    5    5    0    0  0.27872179754E+01 -0.16845677099E+02  0.21515797692E+02  0.27467707790E+02  0.00000000000E+00 0.  1.
         14    1    5    5    0    0  0.66610410221E+02  0.25881425585E+02  0.49843124866E+03  0.50352805739E+03  0.00000000000E+00 0. -1.
         13    1    3    3    0    0 -0.13686892961E+02  0.10697843758E+02 -0.10114347191E+02  0.20101614838E+02  0.00000000000E+00 0. -1.
        -14    1    3    3    0    0  0.46555452186E+02 -0.65705475825E+02 -0.15957319548E+03  0.17874066240E+03  0.00000000000E+00 0.  1.
          5    1    4    4  501    0 -0.50423332621E+02  0.45712667521E+02  0.15705971059E+02  0.69973640547E+02  0.41800000000E+01 0.  1.
         -5    1    4    4    0  501 -0.51842854801E+02  0.25921605987E+00 -0.11240444887E+03  0.12385467820E+03  0.41800000000E+01 0.  1.
</event>
<event>
11    1  0.7882745E-009  0.1717206E+03  0.7561462E-02  0.1076544E+00
         22   -1    0    0    0    0  0.00000000000E+00  0.00000000000E+00  0.49757944676E+03  0.49757944676E+03  0.00000000000E+00 0. -1.
         22   -1    0    0    0    0 -0.00000000000E+00 -0.00000000000E+00 -0.52289984775E+03  0.52289984775E+03  0.00000000000E+00 0.  1.
        -24    2    1    2    0    0  0.10350668683E+03  0.63940715225E+02 -0.42247959437E+03  0.44684609871E+03  0.79877274546E+02 0.  0.
         25    2    1    2    0    0 -0.11050515001E+03  0.15810944896E+02  0.93271448771E+01  0.16792303279E+03  0.12509906135E+03 0.  0.
         24    2    1    2    0    0  0.69984631803E+01 -0.79751660122E+02  0.38783204851E+03  0.40571016302E+03  0.88191455057E+02 0.  0.
        -11    1    5    5    0    0 -0.17684835663E+02 -0.10824577595E+02  0.23846729281E+03  0.23936702913E+03  0.00000000000E+00 0.  1.
         12    1    5    5    0    0  0.24683298843E+02 -0.68927082527E+02  0.14936475570E+03  0.16634313389E+03  0.00000000000E+00 0. -1.
         13    1    3    3    0    0  0.11203500392E+03  0.39081344926E+02 -0.32903537767E+03  0.34977631907E+03  0.00000000000E+00 0. -1.
        -14    1    3    3    0    0 -0.85283170879E+01  0.24859370299E+02 -0.93444216704E+02  0.97069779640E+02  0.00000000000E+00 0.  1.
          5    1    4    4  501    0 -0.57444209180E+02  0.63424178585E+02  0.34277299910E+02  0.92276049366E+02  0.41800000000E+01 0.  1.
         -5    1    4    4    0  501 -0.53060940832E+02 -0.47613233689E+02 -0.24950155033E+02  0.75646983419E+02  0.41800000000E+01 0.  1.
</event>
<event>
11    1  0.7882745E-009  0.1860276E+03  0.7561462E-02  0.1064869E+00
         22   -1    0    0    0    0  0.00000000000E+00  0.00000000000E+00  0.14752942200E+03  0.14752942200E+03  0.00000000000E+00 0. -1.
         22   -1    0    0    0    0 -0.00000000000E+00 -0.00000000000E+00 -0.66761244477E+03  0.66761244477E+03  0.00000000000E+00 0. -1.
         24    2    1    2    0    0  0.24131405534E+01 -0.60887889521E+01 -0.40851303048E+03  0.41631158441E+03  0.79934614802E+02 0.  0.
         25    2    1    2    0    0  0.11294385606E+03 -0.71485223187E+02 -0.14887765310E+03  0.23596414429E+03  0.12509224613E+03 0.  0.
        -24    2    1    2    0    0 -0.11535699661E+03  0.77574012139E+02  0.37307660812E+02  0.16286613807E+03  0.76213865861E+02 0.  0.
        -11    1    3    3    0    0  0.46900771698E+01 -0.18148979986E+02 -0.19299228258E+02  0.26904321396E+02  0.00000000000E+00 0.  1.
         12    1    3    3    0    0 -0.22769366164E+01  0.12060191034E+02 -0.38921380222E+03  0.38940726301E+03  0.00000000000E+00 0. -1.
         13    1    5    5    0    0 -0.71483420553E+02  0.76518252019E+02  0.51565941538E+02  0.11672175732E+03  0.00000000000E+00 0. -1.
        -14    1    5    5    0    0 -0.43873576059E+02  0.10557601200E+01 -0.14258280726E+02  0.46144380751E+02  0.00000000000E+00 0.  1.
          5    1    4    4  501    0  0.12348071077E+03 -0.15050653457E+02 -0.11319467248E+03  0.16823945548E+03  0.41800000000E+01 0. -1.
         -5    1    4    4    0  501 -0.10536854716E+02 -0.56434569730E+02 -0.35682980617E+02  0.67724688805E+02  0.41800000000E+01 0. -1.
</event>
<event>
11    1  0.7882745E-009  0.1387579E+03  0.7561462E-02  0.1108953E+00
         22   -1    0    0    0    0  0.00000000000E+00  0.00000000000E+00  0.59268161870E+03  0.59268161870E+03  0.00000000000E+00 0.  1.
         22   -1    0    0    0    0 -0.00000000000E+00 -0.00000000000E+00 -0.11828567621E+03  0.11828567621E+03  0.00000000000E+00 0.  1.
        -24    2    1    2    0    0  0.13759239655E+02  0.22302666676E+02 -0.59450108321E+02  0.10348712002E+03  0.80551492932E+02 0.  0.
         25    2    1    2    0    0 -0.72441866278E+01  0.41394269924E+02  0.11190463041E+03  0.17302094499E+03  0.12509051633E+03 0.  0.
         24    2    1    2    0    0 -0.65150530269E+01 -0.63696936600E+02  0.42194142040E+03  0.43445922991E+03  0.81366544435E+02 0.  0.
        -13    1    5    5    0    0  0.37149862796E+02 -0.29696648067E+02  0.21920574510E+03  0.22430595600E+03  0.00000000000E+00 0.  1.
         14    1    5    5    0    0 -0.43664915823E+02 -0.34000288533E+02  0.20273567530E+03  0.21015327391E+03  0.00000000000E+00 0. -1.
         11    1    3    3    0    0 -0.11254986170E+01  0.62493189762E+01  0.20048101332E+02  0.21029671938E+02  0.00000000000E+00 0. -1.
        -12    1    3    3    0    0  0.14884738272E+02  0.16053347700E+02 -0.79498209653E+02  0.82457448080E+02  0.00000000000E+00 0.  1.
          5    1    4    4  501    0  0.10694665334E+02 -0.17188536797E+02  0.10963718206E+03  0.11156883864E+03  0.41800000000E+01 0.  1.
         -5    1    4    4    0  501 -0.17938851962E+02  0.58582806721E+02  0.22674483466E+01  0.61452106351E+02  0.41800000000E+01 0.  1.
</event>
<event>
11    1  0.7882745E-009  0.1478335E+03  0.7561462E-02  0.1099113E+00
         22   -1    0    0    0    0  0.00000000000E+00  0.00000000000E+00  0.30475612801E+03  0.30475612801E+03  0.00000000000E+00 0.  1.
         22   -1    0    0    0    0 -0.00000000000E+00 -0.00000000000E+00 -0.29975392856E+03  0.29975392856E+03  0.00000000000E+00 0. -1.
        -24    2    1    2    0    0 -0.11351821779E+02  0.19048377209E+02 -0.22555858606E+03  0.24066256591E+03  0.80932628501E+02 0.  0.
         25    2    1    2    0    0  0.84012377995E+02 -0.36535070583E+02  0.71316237451E+02  0.17066565595E+03  0.12509144398E+03 0.  0.
         24    2    1    2    0    0 -0.72660556216E+02  0.17486693374E+02  0.15924454805E+03  0.19318183471E+03  0.79843937175E+02 0.  0.
        -13    1    5    5    0    0  0.10434156006E+02 -0.16116196237E+02  0.21309586892E+02  0.28682780308E+02  0.00000000000E+00 0.  1.
         14    1    5    5    0    0 -0.83094712222E+02  0.33602889611E+02  0.13793496116E+03  0.16449905440E+03  0.00000000000E+00 0. -1.
         11    1    3    3    0    0  0.99496399241E+00  0.44897643813E+02 -0.18875745144E+03  0.19402619371E+03  0.00000000000E+00 0. -1.
        -12    1    3    3    0    0 -0.12346785771E+02 -0.25849266604E+02 -0.36801134622E+02  0.46636372203E+02  0.00000000000E+00 0.  1.
          5    1    4    4  501    0 -0.26093529899E+02  0.17564883995E+02  0.20718375481E+02  0.37896186284E+02  0.41800000000E+01 0. -1.
         -5    1    4    4    0  501  0.11010590789E+03 -0.54099954578E+02  0.50597861969E+02  0.13276946966E+03  0.41800000000E+01 0. -1.
</event>
<event>
11    1  0.7882745E-009  0.1649531E+03  0.7561462E-02  0.1082509E+00
         22   -1    0    0    0    0  0.00000000000E+00  0.00000000000E+00  0.11195167952E+04  0.11195167952E+04  0.00000000000E+00 0. -1.
         22   -1    0    0    0    0 -0.00000000000E+00 -0.00000000000E+00 -0.48477951371E+03  0.48477951371E+03  0.00000000000E+00 0. -1.
        -24    2    1    2    0    0 -0.45560993668E+01 -0.49158267085E+02 -0.15429357886E+03  0.17207942769E+03  0.58030403166E+02 0.  0.
         25    2    1    2    0    0 -0.98347604044E+02  0.17147562130E+02 -0.29726514606E+03  0.33761056095E+03  0.12509210084E+03 0.  0.
         24    2    1    2    0    0  0.10290370341E+03  0.32010704955E+02  0.10862960064E+04  0.10946063203E+04  0.80685348191E+02 0.  0.
        -13    1    5    5    0    0  0.40412666399E+02  0.29673112371E+02  0.20300896267E+03  0.20910838368E+03  0.00000000000E+00 0.  1.
         14    1    5    5    0    0  0.62491037011E+02  0.23375925845E+01  0.88328704375E+03  0.88549793659E+03  0.00000000000E+00 0. -1.
         13    1    3    3    0    0 -0.19211497593E+01  0.83592758546E+00 -0.92621212866E+02  0.92644906304E+02  0.00000000000E+00 0. -1.
        -14    1    3    3    0    0 -0.26349496075E+01 -0.49994194671E+02 -0.61672365999E+02  0.79434521388E+02  0.00000000000E+00 0.  1.
          5    1    4    4  501    0 -0.75289668192E+02  0.65256465761E+02 -0.14307651212E+03  0.17439983137E+03  0.41800000000E+01 0. -1.
         -5    1    4    4    0  501 -0.23057935852E+02 -0.48108903631E+02 -0.15418863394E+03  0.16321072958E+03  0.41800000000E+01 0. -1.
</event>
<event>
11    1  0.7882745E-009  0.2968598E+03  0.7561462E-02  0.1001529E+00
         22   -1    0    0    0    0  0.00000000000E+00  0.00000000000E+00  0.42382085555E+03  0.42382085555E+03  0.00000000000E+00 0. -1.
         22   -1    0    0    0    0 -0.00000000000E+00 -0.00000000000E+00 -0.45029616567E+03  0.45029616567E+03  0.00000000000E+00 0.  1.
         24    2    1    2    0    0 -0.24335503360E+03  0.67261336362E+02 -0.18756778292E+03  0.32592526426E+03  0.85439130080E+02 0.  0.
         25    2    1    2    0    0  0.29363060365E+03 -0.84496016697E+02 -0.31472469031E+02  0.33165702476E+03  0.12508939815E+03 0.  0.
        -24    2    1    2    0    0 -0.50275570050E+02  0.17234680335E+02  0.19256494183E+03  0.21653473220E+03  0.83554570655E+02 0.  0.
        -13    1    3    3    0    0 -0.11891817474E+03  0.71395440122E+02 -0.73058674272E+02  0.15676865452E+03  0.00000000000E+00 0.  1.
         14    1    3    3    0    0 -0.12443685885E+03 -0.41341037605E+01 -0.11450910865E+03  0.16915660974E+03  0.00000000000E+00 0. -1.
         11    1    5    5    0    0  0.23764301662E+00  0.41277760910E+02  0.10262649447E+03  0.11061693987E+03  0.00000000000E+00 0. -1.
        -12    1    5    5    0    0 -0.50513213066E+02 -0.24043080576E+02  0.89938447364E+02  0.10591779233E+03  0.00000000000E+00 0.  1.
          5    1    4    4  501    0  0.92991677828E+02 -0.41359621275E+02  0.46640159251E+02  0.11203056401E+03  0.41800000000E+01 0.  1.
         -5    1    4    4    0  501  0.20063892582E+03 -0.43136395422E+02 -0.78112628282E+02  0.21962646075E+03  0.41800000000E+01 0.  1.
</event>
<event>
11    1  0.7882745E-009  0.1621397E+03  0.7561462E-02  0.1085082E+00
         22   -1    0    0    0    0  0.00000000000E+00  0.00000000000E+00  0.12697263059E+04  0.12697263059E+04  0.00000000000E+00 0.  1.
         22   -1    0    0    0    0 -0.00000000000E+00 -0.00000000000E+00 -0.90054309852E+02  0.90054309852E+02  0.00000000000E+00 0. -1.
         24    2    1    2    0    0 -0.64459149279E+02  0.24762023174E+02 -0.32947985405E+02  0.11006084109E+03  0.79118134975E+02 0.  0.
         25    2    1    2    0    0  0.13035611873E+03 -0.60823067916E+02  0.81756273692E+03  0.83949143673E+03  0.12507949574E+03 0.  0.
        -24    2    1    2    0    0 -0.65896969450E+02  0.36061044743E+02  0.39505724449E+03  0.41022833790E+03  0.81081768947E+02 0.  0.
        -11    1    3    3    0    0 -0.53694063433E+01  0.18235674302E+02  0.22022338351E+02  0.29092159222E+02  0.00000000000E+00 0.  1.
         12    1    3    3    0    0 -0.59089742935E+02  0.65263488719E+01 -0.54970323756E+02  0.80968681869E+02  0.00000000000E+00 0. -1.
         11    1    5    5    0    0 -0.68921550313E+02 -0.49865672426E+01  0.26121115039E+03  0.27019680057E+03  0.00000000000E+00 0. -1.
        -12    1    5    5    0    0  0.30245808623E+01  0.41047611985E+02  0.13384609410E+03  0.14003153733E+03  0.00000000000E+00 0.  1.
          5    1    4    4  501    0  0.66290056430E+02 -0.87284762422E+02  0.63020823786E+03  0.63968187156E+03  0.41800000000E+01 0. -1.
         -5    1    4    4    0  501  0.64066062299E+02  0.26461694506E+02  0.18735449906E+03  0.19980956517E+03  0.41800000000E+01 0. -1.
</event>
<event>
11    1  0.7882745E-009  0.1375295E+03  0.7561462E-02  0.1110349E+00
         22   -1    0    0    0    0  0.00000000000E+00  0.00000000000E+00  0.20775667474E+03  0.20775667474E+03  0.00000000000E+00 0. -1.
         22   -1    0    0    0    0 -0.00000000000E+00 -0.00000000000E+00 -0.58260597010E+03  0.58260597010E+03  0.00000000000E+00 0.  1.
         24    2    1    2    0    0 -0.14721503645E+02  0.34465654446E+02 -0.38368907465E+03  0.39460943772E+03  0.84230032226E+02 0.  0.
         25    2    1    2    0    0 -0.43349852572E+02 -0.27981143475E+02 -0.15404688114E+03  0.20503774557E+03  0.12509149215E+03 0.  0.
        -24    2    1    2    0    0  0.58071356217E+02 -0.64845109713E+01  0.16288666043E+03  0.19071546155E+03  0.80162284369E+02 0.  0.
        -11    1    3    3    0    0  0.10756409544E+02 -0.10988128821E+02 -0.25919084939E+03  0.25964655925E+03  0.00000000000E+00 0.  1.
         12    1    3    3    0    0 -0.25477913189E+02  0.45453783267E+02 -0.12449822526E+03  0.13496287847E+03  0.00000000000E+00 0. -1.
         11    1    5    5    0    0  0.60522854935E+02 -0.34843847912E+02  0.12673141916E+03  0.14469955878E+03  0.00000000000E+00 0. -1.
        -12    1    5    5    0    0 -0.24514987181E+01  0.28359336940E+02  0.36155241263E+02  0.46015902778E+02  0.00000000000E+00 0.  1.
          5    1    4    4  501    0 -0.84383573635E+02 -0.37616348826E+02 -0.11343069023E+03  0.14635426569E+03  0.41800000000E+01 0.  1.
         -5    1    4    4    0  501  0.41033721063E+02  0.96352053513E+01 -0.40616190912E+02  0.58683479879E+02  0.41800000000E+01 0.  1.
</event>
<event>
11    1  0.7882745E-009  0.2122886E+03  0.7561462E-02  0.1046159E+00
         22   -1    0    0    0    0  0.00000000000E+00  0.00000000000E+00  0.55481031404E+03  0.55481031404E+03  0.00000000000E+00 0.  1.
         22   -1    0    0    0    0 -0.00000000000E+00 -0.00000000000E+00 -0.50136291356E+03  0.50136291356E+03  0.00000000000E+00 0. -1.
         24    2    1    2    0    0  0.66644987984E+01 -0.18170906989E+03 -0.34736457022E+03  0.39990206235E+03  0.78720475114E+02 0.  0.
         25    2    1    2    0    0  0.25849695542E+02  0.14232144730E+03 -0.46425440869E+02  0.19679041772E+03  0.12509015078E+03 0.  0.
        -24    2    1    2    0    0 -0.32514194341E+02  0.39387622589E+02  0.44723741157E+03  0.45948074754E+03  0.92155832190E+02 0.  0.
        -13    1    3    3    0    0 -0.30953929982E+02 -0.84994788597E+02 -0.12279514458E+03  0.15251526941E+03  0.00000000000E+00 0.  1.
         14    1    3    3    0    0  0.37618428780E+02 -0.96714281294E+02 -0.22456942563E+03  0.24738679294E+03  0.00000000000E+00 0. -1.
         13    1    5    5    0    0  0.86207985982E+00  0.55067655456E+02  0.14684162586E+03  0.15683001289E+03  0.00000000000E+00 0. -1.
        -14    1    5    5    0    0 -0.33376274201E+02 -0.15680032867E+02  0.30039578571E+03  0.30265073465E+03  0.00000000000E+00 0.  1.
          5    1    4    4  501    0  0.60053407360E+02  0.18902859505E+02 -0.15511806079E+02  0.64975521243E+02  0.41800000000E+01 0. -1.
         -5    1    4    4    0  501 -0.34203711818E+02  0.12341858780E+03 -0.30913634790E+02  0.13181489647E+03  0.41800000000E+01 0. -1.
</event>
<event>
11    1  0.7882745E-009  0.1333968E+03  0.7561462E-02  0.1115164E+00
         22   -1    0    0    0    0  0.00000000000E+00  0.00000000000E+00  0.95921049319E+03  0.95921049319E+03  0.00000000000E+00 0. -1.
         22   -1    0    0    0    0 -0.00000000000E+00 -0.00000000000E+00 -0.52182453022E+03  0.52182453022E+03  0.00000000000E+00 0.  1.
         24    2    1    2    0    0 -0.13504056574E+02  0.39682709484E+02 -0.48722700566E+03  0.49536432936E+03  0.78984725030E+02 0.  0.
         25    2    1    2    0    0  0.56469133844E+02 -0.49282746218E+02  0.16554378084E+03  0.22062115466E+03  0.12510554886E+03 0.  0.
        -24    2    1    2    0    0 -0.42965077270E+02  0.96000367335E+01  0.75906918778E+03  0.76504953939E+03  0.84714858881E+02 0.  0.
        -11    1    3    3    0    0 -0.38252813959E+02  0.18658333820E+02 -0.40053473617E+03  0.40278963005E+03  0.00000000000E+00 0.  1.
         12    1    3    3    0    0  0.24748757385E+02  0.21024375664E+02 -0.86692269483E+02  0.92574699309E+02  0.00000000000E+00 0. -1.
         13    1    5    5    0    0  0.32644860532E+01  0.39453063933E+02  0.36903162601E+03  0.37114894870E+03  0.00000000000E+00 0. -1.
        -14    1    5    5    0    0 -0.46229563323E+02 -0.29853027199E+02  0.39003756177E+03  0.39390059069E+03  0.00000000000E+00 0.  1.
          5    1    4    4  501    0  0.24257352017E+02 -0.59010058881E+02  0.14160945053E+02  0.65487486902E+02  0.41800000000E+01 0.  1.
         -5    1    4    4    0  501  0.32211781827E+02  0.97273126627E+01  0.15138283579E+03  0.15513366775E+03  0.41800000000E+01 0.  1.
</event>
<event>
11    1  0.7882745E-009  0.1638003E+03  0.7561462E-02  0.1083556E+00
         22   -1    0    0    0    0  0.00000000000E+00  0.00000000000E+00  0.12103979205E+04  0.12103979205E+04  0.00000000000E+00 0.  1.
         22   -1    0    0    0    0 -0.00000000000E+00 -0.00000000000E+00 -0.10485521620E+03  0.10485521620E+03  0.00000000000E+00 0.  1.
        -24    2    1    2    0    0 -0.65611153698E+02 -0.86143921899E+02 -0.63443079168E+01  0.13449868211E+03  0.79523873628E+02 0.  0.
         25    2    1    2    0    0  0.63155386827E+02  0.75157199171E+02  0.16041526217E+03  0.22587420684E+03  0.12509553751E+03 0.  0.
         24    2    1    2    0    0  0.24557668703E+01  0.10986722728E+02  0.95147175002E+03  0.95488024773E+03  0.79818904704E+02 0.  0.
        -13    1    5    5    0    0  0.26963433454E+02  0.22434872351E+02  0.20953895000E+03  0.21245451703E+03  0.00000000000E+00 0.  1.
         14    1    5    5    0    0 -0.24507666584E+02 -0.11448149623E+02  0.74193280002E+03  0.74242573070E+03  0.00000000000E+00 0. -1.
         13    1    3    3    0    0 -0.32402588275E+01 -0.69585557126E+02 -0.49848955127E-01  0.69660975608E+02  0.00000000000E+00 0. -1.
        -14    1    3    3    0    0 -0.62370894870E+02 -0.16558364773E+02 -0.62944589617E+01  0.64837706502E+02  0.00000000000E+00 0.  1.
          5    1    4    4  501    0  0.18831591601E+02 -0.31790066116E+02  0.15345890450E+02  0.40226930029E+02  0.41800000000E+01 0. -1.
         -5    1    4    4    0  501  0.44323795227E+02  0.10694726529E+03  0.14506937172E+03  0.18564727681E+03  0.41800000000E+01 0. -1.
</event>
<event>
11    1  0.7882745E-009  0.1437305E+03  0.7561462E-02  0.1103463E+00
         22   -1    0    0    0    0  0.00000000000E+00  0.00000000000E+00  0.13753446457E+04  0.13753446457E+04  0.00000000000E+00 0.  1.
         22   -1    0    0    0    0 -0.00000000000E+00 -0.00000000000E+00 -0.12805150295E+04  0.12805150295E+04  0.00000000000E+00 0.  1.
         24    2    1    2    0    0  0.84437508059E+01 -0.36023369567E+02 -0.11999949783E+04  0.12033058169E+04  0.81166255706E+02 0.  0.
         25    2    1    2    0    0  0.56845645691E+02  0.62872288971E+02 -0.16804892717E+01  0.15111149078E+03  0.12508999339E+03 0.  0.
        -24    2    1    2    0    0 -0.65289396497E+02 -0.26848919405E+02  0.12965050838E+04  0.13014423675E+04  0.88562033299E+02 0.  0.
        -11    1    3    3    0    0 -0.86500342317E+01 -0.12010936068E+02 -0.10661927084E+04  0.10662954455E+04  0.00000000000E+00 0.  1.
         12    1    3    3    0    0  0.17093785038E+02 -0.24012433498E+02 -0.13380226991E+03  0.13701037144E+03  0.00000000000E+00 0. -1.
         13    1    5    5    0    0 -0.33287514925E+02 -0.56155960079E+02  0.58871264606E+03  0.59232096884E+03  0.00000000000E+00 0. -1.
        -14    1    5    5    0    0 -0.32001881572E+02  0.29307040674E+02  0.70779243777E+03  0.70912139865E+03  0.00000000000E+00 0.  1.
          5    1    4    4  501    0  0.66479851568E+02 -0.15864560883E+02  0.14630869454E+02  0.70019923575E+02  0.41800000000E+01 0.  1.
         -5    1    4    4    0  501 -0.96342058761E+01  0.78736849854E+02 -0.16311358726E+02  0.81091567202E+02  0.41800000000E+01 0.  1.
</event>
<event>
11    1  0.7882745E-009  0.1569732E+03  0.7561462E-02  0.1089959E+00
         22   -1    0    0    0    0  0.00000000000E+00  0.00000000000E+00  0.81343644759E+03  0.81343644759E+03  0.00000000000E+00 0.  1.
         22   -1    0    0    0    0 -0.00000000000E+00 -0.00000000000E+00 -0.42874343020E+03  0.42874343020E+03  0.00000000000E+00 0. -1.
        -24    2    1    2    0    0  0.25282598197E+02 -0.82486175172E+02 -0.34248608016E+03  0.36194119471E+03  0.79129858213E+02 0.  0.
         25    2    1    2    0    0 -0.69547426438E+02  0.15931388238E+03  0.90731596767E+02  0.23258829692E+03  0.12508931036E+03 0.  0.
         24    2    1    2    0    0  0.44264828240E+02 -0.76827707210E+02  0.63644750077E+03  0.64765038617E+03  0.80769609671E+02 0.  0.
        -13    1    5    5    0    0  0.29244607166E+02 -0.10026265816E+02  0.40782773925E+03  0.40899784590E+03  0.00000000000E+00 0.  1.
         14    1    5    5    0    0  0.15020221074E+02 -0.66801441394E+02  0.22861976153E+03  0.23865254026E+03  0.00000000000E+00 0. -1.
         11    1    3    3    0    0  0.12269121637E+02 -0.70287157972E+02 -0.33513931408E+03  0.34265022365E+03  0.00000000000E+00 0. -1.
        -12    1    3    3    0    0  0.13013476560E+02 -0.12199017200E+02 -0.73467660747E+01  0.19290971063E+02  0.00000000000E+00 0.  1.
          5    1    4    4  501    0 -0.82911173146E+01 -0.14642211251E+02  0.36338263564E+02  0.40262622561E+02  0.41800000000E+01 0. -1.
         -5    1    4    4    0  501 -0.61256309123E+02  0.17395609363E+03  0.54393333203E+02  0.19232567436E+03  0.41800000000E+01 0. -1.
</event>
<event>
11    1  0.7882745E-009  0.1384997E+03  0.7561462E-02  0.1109245E+00
         22   -1    0    0    0    0  0.00000000000E+00  0.00000000000E+00  0.42828364916E+03  0.42828364916E+03  0.00000000000E+00 0. -1.
         22   -1    0    0    0    0 -0.00000000000E+00 -0.00000000000E+00 -0.33745526863E+03  0.33745526863E+03  0.00000000000E+00 0. -1.
        -24    2    1    2    0    0  0.12663121948E+02  0.33250992118E+02 -0.21306821767E+03  0.23108472701E+03  0.82073762817E+02 0.  0.
         25    2    1    2    0    0 -0.65670343440E+02 -0.59295009980E+01 -0.62885255642E+02  0.15476146174E+03  0.12509517046E+03 0.  0.
         24    2    1    2    0    0  0.53007221492E+02 -0.27321491120E+02  0.36678185383E+03  0.37989272904E+03  0.78951427277E+02 0.  0.
        -13    1    5    5    0    0  0.55114268021E+02  0.60573960282E+01  0.13870246957E+03  0.14937419339E+03  0.00000000000E+00 0.  1.
         14    1    5    5    0    0 -0.21070465287E+01 -0.33378887148E+02  0.22807938427E+03  0.23051853566E+03  0.00000000000E+00 0. -1.
         13    1    3    3    0    0 -0.30232264998E+01  0.48369187365E+02 -0.63206966765E+02  0.79648219267E+02  0.00000000000E+00 0. -1.
        -14    1    3    3    0    0  0.15686348447E+02 -0.15118195247E+02 -0.14986125090E+03  0.15143650774E+03  0.00000000000E+00 0.  1.
          5    1    4    4  501    0  0.30253889511E+02  0.12559566250E+02  0.80156941576E+01  0.33981822903E+02  0.41800000000E+01 0.  1.
         -5    1    4    4    0  501 -0.95924232951E+02 -0.18489067248E+02 -0.70900949800E+02  0.12077963884E+03  0.41800000000E+01 0.  1.
</event>
<event>
11    1  0.7882745E-009  0.1518556E+03  0.7561462E-02  0.1094998E+00
         22   -1    0    0    0    0  0.00000000000E+00  0.00000000000E+00  0.24095921869E+04  0.24095921869E+04  0.00000000000E+00 0. -1.
         22   -1    0    0    0    0 -0.00000000000E+00 -0.00000000000E+00 -0.37277407127E+03  0.37277407127E+03  0.00000000000E+00 0. -1.
        -24    2    1    2    0    0 -0.55336862046E+02 -0.44038545816E+02 -0.31678074906E+03  0.33415252622E+03  0.79412253353E+02 0.  0.
         25    2    1    2    0    0  0.11471205099E+03 -0.17979758170E+02  0.11332800330E+03  0.20487203620E+03  0.12508872266E+03 0.  0.
         24    2    1    2    0    0 -0.59375188947E+02  0.62018303986E+02  0.22402708614E+04  0.22433416958E+04  0.79979675080E+02 0.  0.
        -13    1    5    5    0    0  0.13854354895E+02  0.12971624000E+02  0.88737714528E+03  0.88758008323E+03  0.00000000000E+00 0.  1.
         14    1    5    5    0    0 -0.73229543842E+02  0.49046679987E+02  0.13528937161E+04  0.13557616125E+04  0.00000000000E+00 0. -1.
         11    1    3    3    0    0 -0.21356919054E+02 -0.63575788208E+02 -0.20593560133E+03  0.21658132591E+03  0.00000000000E+00 0. -1.
        -12    1    3    3    0    0 -0.33979942993E+02  0.19537242392E+02 -0.11084514773E+03  0.11757120030E+03  0.00000000000E+00 0.  1.
          5    1    4    4  501    0  0.10304731782E+03 -0.51309097215E+02  0.12249794268E+03  0.16815050261E+03  0.41800000000E+01 0.  1.
         -5    1    4    4    0  501  0.11664733174E+02  0.33329339046E+02 -0.91699393768E+01  0.36721533593E+02  0.41800000000E+01 0.  1.
</event>
<event>
11    1  0.7882745E-009  0.1427325E+03  0.7561462E-02  0.1104545E+00
         22   -1    0    0    0    0  0.00000000000E+00  0.00000000000E+00  0.57063909642E+02  0.57063909642E+02  0.00000000000E+00 0.  1.
         22   -1    0    0    0    0 -0.00000000000E+00 -0.00000000000E+00 -0.11009687614E+04  0.11009687614E+04  0.00000000000E+00 0.  1.
         24    2    1    2    0    0  0.65904273514E+02 -0.32177421709E+02 -0.85017377804E+03  0.85768777711E+03  0.86337190216E+02 0.  0.
         25    2    1    2    0    0 -0.24125316823E+02  0.36047479758E+02 -0.14911034757E+03  0.19940611427E+03  0.12508977156E+03 0.  0.
        -24    2    1    2    0    0 -0.41778956691E+02 -0.38700580487E+01 -0.44620726145E+02  0.10093877965E+03  0.80231972826E+02 0.  0.
        -13    1    3    3    0    0  0.23472592385E+02 -0.22022236295E+02 -0.71335717418E+03  0.71408290796E+03  0.00000000000E+00 0.  1.
         14    1    3    3    0    0  0.42431681129E+02 -0.10155185414E+02 -0.13681660386E+03  0.14360486916E+03  0.00000000000E+00 0. -1.
         13    1    5    5    0    0 -0.55194864590E+02 -0.71648168674E+01 -0.58923228148E+02  0.81054022068E+02  0.00000000000E+00 0. -1.
        -14    1    5    5    0    0  0.13415907899E+02  0.32947588187E+01  0.14302502004E+02  0.19884757580E+02  0.00000000000E+00 0.  1.
          5    1    4    4  501    0 -0.41044634907E+02 -0.27762056783E+02 -0.18604446753E+02  0.53094177557E+02  0.41800000000E+01 0.  1.
         -5    1    4    4    0  501  0.16919318084E+02  0.63809536541E+02 -0.13050590082E+03  0.14631193672E+03  0.41800000000E+01 0.  1.
</event>
<event>
11    1  0.7882745E-009  0.1507202E+03  0.7561462E-02  0.1096145E+00
         22   -1    0    0    0    0  0.00000000000E+00  0.00000000000E+00  0.50954268620E+03  0.50954268620E+03  0.00000000000E+00 0. -1.
         22   -1    0    0    0    0 -0.00000000000E+00 -0.00000000000E+00 -0.95131001204E+02  0.95131001204E+02  0.00000000000E+00 0. -1.
         24    2    1    2    0    0 -0.70818074548E+02 -0.56304203064E+02  0.25249265605E+01  0.12058190043E+03  0.79675946753E+02 0.  0.
         25    2    1    2    0    0  0.49687717282E+02  0.44482086255E+02  0.13837394291E+03  0.19809675341E+03  0.12508976933E+03 0.  0.
        -24    2    1    2    0    0  0.21130357266E+02  0.11822116808E+02  0.27351281552E+03  0.28599503356E+03  0.79985276911E+02 0.  0.
        -11    1    3    3    0    0 -0.23288001473E+02  0.34129041595E+01  0.31171721650E+02  0.39059635918E+02  0.00000000000E+00 0.  1.
         12    1    3    3    0    0 -0.47530073075E+02 -0.59717107223E+02 -0.28646795090E+02  0.81522264508E+02  0.00000000000E+00 0. -1.
         13    1    5    5    0    0  0.23715943385E+02 -0.31191178502E+02  0.15551411224E+03  0.16037448267E+03  0.00000000000E+00 0. -1.
        -14    1    5    5    0    0 -0.25855861186E+01  0.43013295310E+02  0.11799870328E+03  0.12562055089E+03  0.00000000000E+00 0.  1.
          5    1    4    4  501    0  0.23024276517E+02 -0.22924320296E+02  0.11831773757E+03  0.12276889343E+03  0.41800000000E+01 0.  1.
         -5    1    4    4    0  501  0.26663440764E+02  0.67406406551E+02  0.20056205343E+02  0.75327859987E+02  0.41800000000E+01 0.  1.
</event>
<event>
11    1  0.7882745E-009  0.1710506E+03  0.7561462E-02  0.1077121E+00
         22   -1    0    0    0    0  0.00000000000E+00  0.00000000000E+00  0.74615011354E+03  0.74615011354E+03  0.00000000000E+00 0. -1.
         22   -1    0    0    0    0 -0.00000000000E+00 -0.00000000000E+00 -0.86858744097E+03  0.86858744097E+03  0.00000000000E+00 0.  1.
        -24    2    1    2    0    0  0.84548666673E+02 -0.76392822655E+02 -0.76272721752E+03  0.77541182460E+03  0.80785821700E+02 0.  0.
         25    2    1    2    0    0 -0.12518537052E+03  0.10638389593E+03  0.15128385566E+02  0.20704030471E+03  0.12509160411E+03 0.  0.
         24    2    1    2    0    0  0.40636703842E+02 -0.29991073276E+02  0.62516150452E+03  0.63228542520E+03  0.80044650129E+02 0.  0.
        -13    1    5    5    0    0  0.45939268237E+02 -0.46354580700E+01  0.16341118658E+03  0.16980906847E+03  0.00000000000E+00 0.  1.
         14    1    5    5    0    0 -0.53025643952E+01 -0.25355615206E+02  0.46175031795E+03  0.46247635673E+03  0.00000000000E+00 0. -1.
         11    1    3    3    0    0 -0.11166240801E+02 -0.29770174720E+02 -0.13297598015E+03  0.13672439260E+03  0.00000000000E+00 0. -1.
        -12    1    3    3    0    0  0.95714907474E+02 -0.46622647936E+02 -0.62975123737E+03  0.63868743199E+03  0.00000000000E+00 0.  1.
          5    1    4    4  501    0 -0.44586535807E+02 -0.20667554043E+02  0.26688264170E+02  0.56078898080E+02  0.41800000000E+01 0.  1.
         -5    1    4    4    0  501 -0.80598834708E+02  0.12705144997E+03 -0.11559878604E+02  0.15096140663E+03  0.41800000000E+01 0.  1.
</event>
<event>
11    1  0.7882745E-009  0.1790513E+03  0.7561462E-02  0.1070413E+00
         22   -1    0    0    0    0  0.00000000000E+00  0.00000000000E+00  0.33293621935E+03  0.33293621935E+03  0.00000000000E+00 0. -1.
         22   -1    0    0    0    0 -0.00000000000E+00 -0.00000000000E+00 -0.34213792995E+03  0.34213792995E+03  0.00000000000E+00 0. -1.
         24    2    1    2    0    0  0.78564588349E+02 -0.92262411498E+01 -0.19728532984E+03  0.22818678426E+03  0.83007162772E+02 0.  0.
         25    2    1    2    0    0 -0.29571517200E+02  0.13100976264E+03 -0.23729053271E+02  0.18506380076E+03  0.12509000697E+03 0.  0.
        -24    2    1    2    0    0 -0.48993071149E+02 -0.12178352149E+03  0.21181267252E+03  0.26182356428E+03  0.80345649833E+02 0.  0.
        -13    1    3    3    0    0  0.32651080486E+02 -0.37969792763E+02 -0.14292867259E+03  0.15144769284E+03  0.00000000000E+00 0.  1.
         14    1    3    3    0    0  0.45913507863E+02  0.28743551613E+02 -0.54356657251E+02  0.76739091415E+02  0.00000000000E+00 0. -1.
         13    1    5    5    0    0  0.62585725221E+01 -0.53897894931E+02  0.13452773609E+03  0.14505814209E+03  0.00000000000E+00 0. -1.
        -14    1    5    5    0    0 -0.55251643671E+02 -0.67885626560E+02  0.77284936425E+02  0.11676542219E+03  0.00000000000E+00 0.  1.
          5    1    4    4  501    0 -0.20194229858E+02  0.73386288053E+02 -0.75230744269E+02  0.10710038038E+03  0.41800000000E+01 0.  1.
         -5    1    4    4    0  501 -0.93772873422E+01  0.57623474589E+02  0.51501690998E+02  0.77963420379E+02  0.41800000000E+01 0.  1.
</event>
<event>
11    1  0.7882745E-009  0.1908393E+03  0.7561462E-02  0.1061197E+00
         22   -1    0    0    0    0  0.00000000000E+00  0.00000000000E+00  0.51666938277E+03  0.51666938277E+03  0.00000000000E+00 0.  1.
         22   -1    0    0    0    0 -0.00000000000E+00 -0.00000000000E+00 -0.58493240183E+03  0.58493240183E+03  0.00000000000E+00 0.  1.
         24    2    1    2    0    0 -0.30478453526E+01  0.54623618018E+02 -0.36935067291E+03  0.38184543251E+03  0.79956148875E+02 0.  0.
         25    2    1    2    0    0 -0.12541442037E+03 -0.11653550322E+03 -0.13681709891E+03  0.25234065256E+03  0.12509031149E+03 0.  0.
        -24    2    1    2    0    0  0.12846226573E+03  0.61911885202E+02  0.43790475277E+03  0.46741569953E+03  0.79882591544E+02 0.  0.
        -11    1    3    3    0    0 -0.17467212343E+02  0.70358530843E+02 -0.31944516275E+03  0.32756776150E+03  0.00000000000E+00 0.  1.
         12    1    3    3    0    0  0.14419366990E+02 -0.15734912825E+02 -0.49905510165E+02  0.54277671016E+02  0.00000000000E+00 0. -1.
         11    1    5    5    0    0  0.35521060375E+02 -0.11648111139E+02  0.54354877969E+02  0.65968757623E+02  0.00000000000E+00 0. -1.
        -12    1    5    5    0    0  0.92941205351E+02  0.73559996341E+02  0.38354987480E+03  0.40144694191E+03  0.00000000000E+00 0.  1.
          5    1    4    4  501    0 -0.12083614310E+02  0.18590899208E+02  0.81679140860E+01  0.23996301562E+02  0.41800000000E+01 0. -1.
         -5    1    4    4    0  501 -0.11333080606E+03 -0.13512640243E+03 -0.14498501300E+03  0.22834435099E+03  0.41800000000E+01 0. -1.
</event>
<event>
11    1  0.7882745E-009  0.2011709E+03  0.7561462E-02  0.1053699E+00
         22   -1    0    0    0    0  0.00000000000E+00  0.00000000000E+00  0.14528247414E+03  0.14528247414E+03  0.00000000000E+00 0. -1.
         22   -1    0    0    0    0 -0.00000000000E+00 -0.00000000000E+00 -0.98324813225E+03  0.98324813225E+03  0.00000000000E+00 0.  1.
        -24    2    1    2    0    0 -0.14965024795E+03 -0.47478896014E+02 -0.45993087947E+03  0.49197392041E+03  0.76501517619E+02 0.  0.
         25    2    1    2    0    0  0.12231626537E+03  0.11500527554E+03 -0.45679961735E+03  0.50249491447E+03  0.12509103278E+03 0.  0.
         24    2    1    2    0    0  0.27333982572E+02 -0.67526379530E+02  0.78764838698E+02  0.13406177152E+03  0.80384701476E+02 0.  0.
        -13    1    5    5    0    0 -0.23108883595E+02 -0.89778867961E+01  0.15865857609E+01  0.24842306791E+02  0.00000000000E+00 0.  1.
         14    1    5    5    0    0  0.50442866167E+02 -0.58548492734E+02  0.77178252937E+02  0.10921946473E+03  0.00000000000E+00 0. -1.
         13    1    3    3    0    0 -0.84504783711E+02  0.88191988477E+01 -0.27806950454E+03  0.29076018657E+03  0.00000000000E+00 0. -1.
        -14    1    3    3    0    0 -0.65145464234E+02 -0.56298094862E+02 -0.18186137492E+03  0.20121373384E+03  0.00000000000E+00 0.  1.
          5    1    4    4  501    0 -0.19588710498E+02  0.32171894514E+02 -0.43395069584E+02  0.57613825076E+02  0.41800000000E+01 0.  1.
         -5    1    4    4    0  501  0.14190497587E+03  0.82833381030E+02 -0.41340454776E+03  0.44488108939E+03  0.41800000000E+01 0.  1.
</event>
<event>
11    1  0.7882745E-009  0.1414100E+03  0.7561462E-02  0.1105994E+00
         22   -1    0    0    0    0  0.00000000000E+00  0.00000000000E+00  0.37088566927E+03  0.37088566927E+03  0.00000000000E+00 0.  1.
         22   -1    0    0    0    0 -0.00000000000E+00 -0.00000000000E+00 -0.37067670924E+03  0.37067670924E+03  0.00000000000E+00 0. -1.
         24    2    1    2    0    0  0.24136705677E+02 -0.13741667011E+02 -0.17143349456E+03  0.19109108450E+03  0.79717912326E+02 0.  0.
         25    2    1    2    0    0 -0.44747943158E+02 -0.49148136220E+02 -0.15355702511E+03  0.20891324777E+03  0.12508823855E+03 0.  0.
        -24    2    1    2    0    0  0.20611237481E+02  0.62889803231E+02  0.32519947970E+03  0.34155804623E+03  0.80791378771E+02 0.  0.
        -11    1    3    3    0    0 -0.50673765510E+01  0.22191331633E+02 -0.11891938854E+03  0.12107829894E+03  0.00000000000E+00 0.  1.
         12    1    3    3    0    0  0.29204082228E+02 -0.35932998644E+02 -0.52514106026E+02  0.70012785561E+02  0.00000000000E+00 0. -1.
         13    1    5    5    0    0  0.18686276859E+02 -0.15674031323E+02  0.55070012058E+02  0.60229215742E+02  0.00000000000E+00 0. -1.
        -14    1    5    5    0    0  0.19249606218E+01  0.78563834554E+02  0.27012946765E+03  0.28132883049E+03  0.00000000000E+00 0.  1.
          5    1    4    4  501    0 -0.44322824356E+02 -0.16550780475E+02  0.42815109170E+01  0.47689043070E+02  0.41800000000E+01 0.  1.
         -5    1    4    4    0  501 -0.42511880213E+00 -0.32597355745E+02 -0.15783853603E+03  0.16122420470E+03  0.41800000000E+01 0.  1.
</event>
<event>
11    1  0.7882745E-009  0.1444091E+03  0.7561462E-02  0.1102732E+00
         22   -1    0    0    0    0  0.00000000000E+00  0.00000000000E+00  0.15650159893E+03  0.15650159893E+03  0.00000000000E+00 0.  1.
         22   -1    0    0    0    0 -0.00000000000E+00 -0.00000000000E+00 -0.68799345192E+03  0.68799345192E+03  0.00000000000E+00 0. -1.
        -24    2    1    2    0    0  0.10221970268E+02 -0.12684172675E+02 -0.49780792697E+03  0.50443225575E+03  0.79836029287E+02 0.  0.
         25    2    1    2    0    0 -0.70345105718E+02 -0.26779706435E+02 -0.13029677596E+03  0.19568126841E+03  0.12509325483E+03 0.  0.
         24    2    1    2    0    0  0.60123135450E+02  0.39463879110E+02  0.96612849948E+02  0.14438152670E+03  0.79622819001E+02 0.  0.
        -13    1    5    5    0    0  0.37648410188E+02  0.32696546416E+02  0.10750452999E+03  0.11850607962E+03  0.00000000000E+00 0.  1.
         14    1    5    5    0    0  0.22474725262E+02  0.67673326935E+01 -0.10891680045E+02  0.25875447080E+02  0.00000000000E+00 0. -1.
         11    1    3    3    0    0  0.21045420456E+02  0.53407413055E+01 -0.46473652542E+03  0.46524345380E+03  0.00000000000E+00 0. -1.
        -12    1    3    3    0    0 -0.10823450188E+02 -0.18024913980E+02 -0.33071401547E+02  0.39188801949E+02  0.00000000000E+00 0.  1.
          5    1    4    4  501    0  0.18945552620E+02 -0.42466376721E+02 -0.78088430204E+02  0.90981330215E+02  0.41800000000E+01 0.  1.
         -5    1    4    4    0  501 -0.89290658338E+02  0.15686670286E+02 -0.52208345759E+02  0.10469993820E+03  0.41800000000E+01 0.  1.
</event>
<event>
11    1  0.7882745E-009  0.1366375E+03  0.7561462E-02  0.1111372E+00
         22   -1    0    0    0    0  0.00000000000E+00  0.00000000000E+00  0.23015517206E+03  0.23015517206E+03  0.00000000000E+00 0.  1.
         22   -1    0    0    0    0 -0.00000000000E+00 -0.00000000000E+00 -0.14815642077E+04  0.14815642077E+04  0.00000000000E+00 0. -1.
         24    2    1    2    0    0 -0.26466492070E+02 -0.47219742845E+02 -0.13946286815E+04  0.13979861734E+04  0.80287000617E+02 0.  0.
         25    2    1    2    0    0  0.49681351862E+02  0.90612928736E+02  0.27419648165E+02  0.16455431509E+03  0.12508935179E+03 0.  0.
        -24    2    1    2    0    0 -0.23214859792E+02 -0.43393185890E+02  0.11579999766E+03  0.14917889129E+03  0.80142397348E+02 0.  0.
        -11    1    3    3    0    0 -0.44198533796E+02 -0.68230669639E-02 -0.50561876692E+03  0.50754689231E+03  0.00000000000E+00 0.  1.
         12    1    3    3    0    0  0.17732041726E+02 -0.47212919778E+02 -0.88900991454E+03  0.89043928106E+03  0.00000000000E+00 0. -1.
         13    1    5    5    0    0  0.22729217157E+02  0.47070267567E+01  0.52295225901E+02  0.57215068518E+02  0.00000000000E+00 0. -1.
        -14    1    5    5    0    0 -0.45944076948E+02 -0.48100212647E+02  0.63504771756E+02  0.91963822773E+02  0.00000000000E+00 0.  1.
          5    1    4    4  501    0 -0.32144933911E+02  0.59795742238E+01  0.32978836015E+02  0.46627546675E+02  0.41800000000E+01 0.  1.
         -5    1    4    4    0  501  0.81826285773E+02  0.84633354512E+02 -0.55591878500E+01  0.11792676842E+03  0.41800000000E+01 0.  1.
</event>
<event>
11    1  0.7882745E-009  0.1742124E+03  0.7561462E-02  0.1074423E+00
         22   -1    0    0    0    0  0.00000000000E+00  0.00000000000E+00  0.31397854425E+03  0.31397854425E+03  0.00000000000E+00 0.  1.
         22   -1    0    0    0    0 -0.00000000000E+00 -0.00000000000E+00 -0.66471211945E+03  0.66471211945E+03  0.00000000000E+00 0. -1.
        -24    2    1    2    0    0  0.29051651794E+02 -0.11714598554E+03 -0.57787608178E+03  0.59611373342E+03  0.82726276772E+02 0.  0.
         25    2    1    2    0    0 -0.25601135648E+02  0.12624339160E+03  0.55683909440E+02  0.18799302555E+03  0.12509143783E+03 0.  0.
         24    2    1    2    0    0 -0.34505161460E+01 -0.90974060565E+01  0.17145859715E+03  0.19458390472E+03  0.91488669156E+02 0.  0.
        -11    1    5    5    0    0 -0.38904566446E+01 -0.95735803671E+01  0.18286617047E+03  0.18315792474E+03  0.00000000000E+00 0.  1.
         12    1    5    5    0    0  0.43994049860E+00  0.47617431058E+00 -0.11407573319E+02  0.11425979986E+02  0.00000000000E+00 0. -1.
         13    1    3    3    0    0  0.10810999722E+02  0.11295265991E+02 -0.86450138623E+02  0.87852644904E+02  0.00000000000E+00 0. -1.
        -14    1    3    3    0    0  0.18240652072E+02 -0.12844125153E+03 -0.49142594316E+03  0.50826108851E+03  0.00000000000E+00 0.  1.
          5    1    4    4  501    0 -0.44547180347E+02 -0.66599224519E+01  0.14851427830E+02  0.47611376294E+02  0.41800000000E+01 0.  1.
         -5    1    4    4    0  501  0.18946044699E+02  0.13290331405E+03  0.40832481609E+02  0.14038164926E+03  0.41800000000E+01 0.  1.
</event>
<event>
11    1  0.7882745E-009  0.1573622E+03  0.7561462E-02  0.1089585E+00
         22   -1    0    0    0    0  0.00000000000E+00  0.00000000000E+00  0.23310754892E+03  0.23310754892E+03  0.00000000000E+00 0.  1.
         22   -1    0    0    0    0 -0.00000000000E+00 -0.00000000000E+00 -0.90485140254E+03  0.90485140254E+03  0.00000000000E+00 0.  1.
        -24    2    1    2    0    0  0.80356986807E+02 -0.28104170106E+02 -0.80179430995E+03  0.81027253300E+03  0.80127227293E+02 0.  0.
         25    2    1    2    0    0 -0.11238293123E+03 -0.53026062727E+02  0.77421829580E+02  0.19257095706E+03  0.12509095590E+03 0.  0.
         24    2    1    2    0    0  0.32025944421E+02  0.81130232833E+02  0.52628626745E+02  0.13511546140E+03  0.88761702108E+02 0.  0.
        -13    1    5    5    0    0  0.13839053131E+02  0.69619689782E+02 -0.73792515894E+01  0.71364374522E+02  0.00000000000E+00 0.  1.
         14    1    5    5    0    0  0.18186891291E+02  0.11510543051E+02  0.60007878334E+02  0.63751086879E+02  0.00000000000E+00 0. -1.
         11    1    3    3    0    0 -0.35983692454E+01 -0.31467105486E+01 -0.12362332189E+01  0.49374407413E+01  0.00000000000E+00 0. -1.
        -12    1    3    3    0    0  0.83955356052E+02 -0.24957459557E+02 -0.80055807673E+03  0.80533509226E+03  0.00000000000E+00 0.  1.
          5    1    4    4  501    0 -0.76180656701E+02 -0.78801124905E+02  0.79195888925E+01  0.10996955047E+03  0.41800000000E+01 0. -1.
         -5    1    4    4    0  501 -0.36202274527E+02  0.25775062177E+02  0.69502240687E+02  0.82601406597E+02  0.41800000000E+01 0. -1.
</event>
<event>
11    1  0.7882745E-009  0.1349946E+03  0.7561462E-02  0.1113280E+00
         22   -1    0    0    0    0  0.00000000000E+00  0.00000000000E+00  0.23713672634E+03  0.23713672634E+03  0.00000000000E+00 0. -1.
         22   -1    0    0    0    0 -0.00000000000E+00 -0.00000000000E+00 -0.70806797934E+03  0.70806797934E+03  0.00000000000E+00 0. -1.
         24    2    1    2    0    0  0.22529555425E+02  0.34279004582E+02 -0.57148927172E+03  0.57863657504E+03  0.80855842492E+02 0.  0.
         25    2    1    2    0    0  0.12842336131E+02 -0.69540007970E+02 -0.78597727054E+02  0.16377079937E+03  0.12507011523E+03 0.  0.
        -24    2    1    2    0    0 -0.35371891556E+02  0.35261003389E+02  0.17915574577E+03  0.20279733127E+03  0.80842236828E+02 0.  0.
        -11    1    3    3    0    0  0.29261127239E+02  0.44992725826E+02 -0.20438854892E+03  0.21131785981E+03  0.00000000000E+00 0.  1.
         12    1    3    3    0    0 -0.67315718137E+01 -0.10713721244E+02 -0.36710072279E+03  0.36731871523E+03  0.00000000000E+00 0. -1.
         13    1    5    5    0    0  0.13060460459E+02  0.38570179707E+02  0.11729603074E+03  0.12416357444E+03  0.00000000000E+00 0. -1.
        -14    1    5    5    0    0 -0.48432352015E+02 -0.33091763180E+01  0.61859715024E+02  0.78633756825E+02  0.00000000000E+00 0.  1.
          5    1    4    4  501    0  0.51745180092E+02 -0.21543962640E+02 -0.84586728567E+02  0.10155832334E+03  0.41800000000E+01 0.  1.
         -5    1    4    4    0  501 -0.38902843961E+02 -0.47996045330E+02  0.59890015131E+01  0.62212476037E+02  0.41800000000E+01 0.  1.
</event>
<event>
11    1  0.7882745E-009  0.1707664E+03  0.7561462E-02  0.1077367E+00
         22   -1    0    0    0    0  0.00000000000E+00  0.00000000000E+00  0.11429606436E+04  0.11429606436E+04  0.00000000000E+00 0.  1.
         22   -1    0    0    0    0 -0.00000000000E+00 -0.00000000000E+00 -0.81316483315E+02  0.81316483315E+02  0.00000000000E+00 0.  1.
         24    2    1    2    0    0  0.58955021229E+02  0.91914733347E+01  0.15064320739E+02  0.10385827914E+03  0.83662600227E+02 0.  0.
         25    2    1    2    0    0  0.20712589565E+02 -0.10051242036E+03  0.18130556045E+03  0.24300306324E+03  0.12508806690E+03 0.  0.
        -24    2    1    2    0    0 -0.79667610794E+02  0.91320947025E+02  0.86527427913E+03  0.87741578457E+03  0.80451459365E+02 0.  0.
        -13    1    3    3    0    0 -0.80470095576E+01  0.29778413754E+02 -0.42860373438E+01  0.31142870848E+02  0.00000000000E+00 0.  1.
         14    1    3    3    0    0  0.67002030787E+02 -0.20586940420E+02  0.19350358083E+02  0.72715408294E+02  0.00000000000E+00 0. -1.
         11    1    5    5    0    0  0.84424674619E+01  0.12629151007E+02  0.28062599620E+02  0.31910503121E+02  0.00000000000E+00 0. -1.
        -12    1    5    5    0    0 -0.88110078256E+02  0.78691796018E+02  0.83721167951E+03  0.84550528145E+03  0.00000000000E+00 0.  1.
          5    1    4    4  501    0 -0.25731241765E+02  0.18691789905E+02  0.51712443355E+02  0.60853340175E+02  0.41800000000E+01 0. -1.
         -5    1    4    4    0  501  0.46443831330E+02 -0.11920421026E+03  0.12959311709E+03  0.18214972306E+03  0.41800000000E+01 0. -1.
</event>
<event>
11    1  0.7882745E-009  0.1594451E+03  0.7561462E-02  0.1087600E+00
         22   -1    0    0    0    0  0.00000000000E+00  0.00000000000E+00  0.39219337482E+03  0.39219337482E+03  0.00000000000E+00 0. -1.
         22   -1    0    0    0    0 -0.00000000000E+00 -0.00000000000E+00 -0.19117110023E+04  0.19117110023E+04  0.00000000000E+00 0. -1.
        -24    2    1    2    0    0 -0.54258307252E+02 -0.53269469205E+02 -0.17595038336E+04  0.17626539730E+04  0.72895046842E+02 0.  0.
         25    2    1    2    0    0  0.78438641093E+02  0.14373068605E+03 -0.62172252026E+02  0.21522983559E+03  0.12508941873E+03 0.  0.
         24    2    1    2    0    0 -0.24180333840E+02 -0.90461216844E+02  0.30215845808E+03  0.32602056859E+03  0.78878115211E+02 0.  0.
        -13    1    5    5    0    0 -0.96725891513E+01 -0.67241699360E+02  0.93500556187E+02  0.11557404173E+03  0.00000000000E+00 0.  1.
         14    1    5    5    0    0 -0.14507744689E+02 -0.23219517484E+02  0.20865790189E+03  0.21044652687E+03  0.00000000000E+00 0. -1.
         11    1    3    3    0    0 -0.24044316699E+02 -0.46135052528E+02 -0.15489816714E+04  0.15498550870E+04  0.00000000000E+00 0. -1.
        -12    1    3    3    0    0 -0.30213990554E+02 -0.71344166773E+01 -0.21052216212E+03  0.21279888597E+03  0.00000000000E+00 0.  1.
          5    1    4    4  501    0  0.58383286144E+02  0.16063863883E+03 -0.30122772467E+02  0.17360366991E+03  0.41800000000E+01 0.  1.
         -5    1    4    4    0  501  0.20055354948E+02 -0.16907952777E+02 -0.32049479559E+02  0.41626165680E+02  0.41800000000E+01 0.  1.
</event>
<event>
11    1  0.7882745E-009  0.1261705E+03  0.7561462E-02  0.1124066E+00
         22   -1    0    0    0    0  0.00000000000E+00  0.00000000000E+00  0.75188739349E+02  0.75188739349E+02  0.00000000000E+00 0.  1.
         22   -1    0    0    0    0 -0.00000000000E+00 -0.00000000000E+00 -0.75916070013E+03  0.75916070013E+03  0.00000000000E+00 0.  1.
         24    2    1    2    0    0 -0.12409035296E+02 -0.23623943621E+02 -0.58239000598E+03  0.58826947412E+03  0.78554313967E+02 0.  0.
         25    2    1    2    0    0 -0.70325411566E+01  0.16360114079E+02 -0.10144247497E+03  0.16203125329E+03  0.12508573599E+03 0.  0.
        -24    2    1    2    0    0  0.19441576453E+02  0.72638295427E+01 -0.13947982970E+00  0.84048712071E+02  0.81445861967E+02 0.  0.
        -11    1    3    3    0    0 -0.63743769550E+01  0.51417346565E+00 -0.53231790170E+03  0.53235631444E+03  0.00000000000E+00 0.  1.
         12    1    3    3    0    0 -0.60346583413E+01 -0.24138117087E+02 -0.50072104283E+02  0.55913159677E+02  0.00000000000E+00 0. -1.
         13    1    5    5    0    0  0.23919456937E+02  0.37849256531E+01 -0.38384604046E+02  0.45385503303E+02  0.00000000000E+00 0. -1.
        -14    1    5    5    0    0 -0.44778804836E+01  0.34789038896E+01  0.38245124216E+02  0.38663208768E+02  0.00000000000E+00 0.  1.
          5    1    4    4  501    0 -0.39753334984E+01 -0.43376396482E+02  0.50136346483E+00  0.43761156446E+02  0.41800000000E+01 0. -1.
         -5    1    4    4    0  501 -0.30572076583E+01  0.59736510561E+02 -0.10194383843E+03  0.11827009684E+03  0.41800000000E+01 0. -1.
</event>
<event>
11    1  0.7882745E-009  0.1575966E+03  0.7561462E-02  0.1089360E+00
         22   -1    0    0    0    0  0.00000000000E+00  0.00000000000E+00  0.12900773561E+04  0.12900773561E+04  0.00000000000E+00 0. -1.
         22   -1    0    0    0    0 -0.00000000000E+00 -0.00000000000E+00 -0.79899933248E+03  0.79899933248E+03  0.00000000000E+00 0.  1.
         24    2    1    2    0    0  0.24408586585E+02  0.11935532204E+02 -0.29803756341E+03  0.30988418255E+03  0.80396401432E+02 0.  0.
         25    2    1    2    0    0 -0.87331779537E+02  0.60313101514E+02 -0.47810604551E+03  0.50546860583E+03  0.12509440754E+03 0.  0.
        -24    2    1    2    0    0  0.62923192952E+02 -0.72248633719E+02  0.12672216326E+04  0.12737239003E+04  0.85689641801E+02 0.  0.
        -11    1    3    3    0    0  0.79800046709E+00 -0.31108853992E+02 -0.16861959588E+03  0.17146709806E+03  0.00000000000E+00 0.  1.
         12    1    3    3    0    0  0.23610586118E+02  0.43044386196E+02 -0.12941796753E+03  0.13841708449E+03  0.00000000000E+00 0. -1.
         11    1    5    5    0    0  0.20245499819E+02 -0.37161578925E+02  0.99773387365E+03  0.99863093575E+03  0.00000000000E+00 0. -1.
        -12    1    5    5    0    0  0.42677693133E+02 -0.35087054794E+02  0.26948775893E+03  0.27509296450E+03  0.00000000000E+00 0.  1.
          5    1    4    4  501    0  0.10376113809E+02  0.29877912292E+02 -0.28591009585E+03  0.28768456456E+03  0.41800000000E+01 0.  1.
         -5    1    4    4    0  501 -0.97707893346E+02  0.30435189222E+02 -0.19219594966E+03  0.21778404127E+03  0.41800000000E+01 0.  1.
</event>
<event>
11    1  0.7882745E-009  0.1459090E+03  0.7561462E-02  0.1101134E+00
         22   -1    0    0    0    0  0.00000000000E+00  0.00000000000E+00  0.76628552312E+03  0.76628552312E+03  0.00000000000E+00 0.  1.
         22   -1    0    0    0    0 -0.00000000000E+00 -0.00000000000E+00 -0.69114046767E+03  0.69114046767E+03  0.00000000000E+00 0. -1.
        -24    2    1    2    0    0 -0.30175146380E+02  0.12894243240E+02 -0.65561766409E+03  0.66132892644E+03  0.80278431097E+02 0.  0.
         25    2    1    2    0    0 -0.44446881349E+02  0.15487662011E+02  0.13178462991E+03  0.18769805962E+03  0.12509188611E+03 0.  0.
         24    2    1    2    0    0  0.74622027729E+02 -0.28381905251E+02  0.59897808964E+03  0.60839900473E+03  0.70715044510E+02 0.  0.
        -11    1    5    5    0    0  0.82904598189E+02 -0.39214569688E+02  0.48374034056E+03  0.49235726049E+03  0.00000000000E+00 0.  1.
         12    1    5    5    0    0 -0.82825704594E+01  0.10832664437E+02  0.11523774909E+03  0.11604174424E+03  0.00000000000E+00 0. -1.
         13    1    3    3    0    0 -0.55441354088E+02 -0.26193859102E+00 -0.50559645213E+03  0.50862715693E+03  0.00000000000E+00 0. -1.
        -14    1    3    3    0    0  0.25266207708E+02  0.13156181831E+02 -0.15002121196E+03  0.15270176951E+03  0.00000000000E+00 0.  1.
          5    1    4    4  501    0  0.72887589506E+00  0.49302214902E+02  0.12013487260E+03  0.12992728609E+03  0.41800000000E+01 0.  1.
         -5    1    4    4    0  501 -0.45175757244E+02 -0.33814552891E+02  0.11649757307E+02  0.57770773537E+02  0.41800000000E+01 0.  1.
</event>
<event>
11    1  0.7882745E-009  0.2408440E+03  0.7561462E-02  0.1028893E+00
         22   -1    0    0    0    0  0.00000000000E+00  0.00000000000E+00  0.12976012383E+04  0.12976012383E+04  0.00000000000E+00 0. -1.
         22   -1    0    0    0    0 -0.00000000000E+00 -0.00000000000E+00 -0.54003819596E+03  0.54003819596E+03  0.00000000000E+00 0.  1.
        -24    2    1    2    0    0  0.11646027997E+03 -0.15708841443E+03 -0.18352133889E+03  0.28022581456E+03  0.81281354304E+02 0.  0.
         25    2    1    2    0    0 -0.16829535504E+03  0.14144780677E+03 -0.25410195272E+03  0.35853135134E+03  0.12508444729E+03 0.  0.
         24    2    1    2    0    0  0.51835075063E+02  0.15640607665E+02  0.11951863340E+04  0.11988822684E+04  0.76920848244E+02 0.  0.
        -11    1    5    5    0    0  0.14778798856E+02  0.35174141086E+02  0.26275799339E+03  0.26551345763E+03  0.00000000000E+00 0.  1.
         12    1    5    5    0    0  0.37056276207E+02 -0.19533533422E+02  0.93242834061E+03  0.93336881077E+03  0.00000000000E+00 0. -1.
         13    1    3    3    0    0  0.21583269806E+02  0.63712015385E+01 -0.15365486966E+02  0.27249365759E+02  0.00000000000E+00 0. -1.
        -14    1    3    3    0    0  0.94877010167E+02 -0.16345961597E+03 -0.16815585193E+03  0.25297644880E+03  0.00000000000E+00 0.  1.
          5    1    4    4  501    0 -0.56470023906E+02  0.13849877241E+02 -0.69329428490E+01  0.58704521087E+02  0.41800000000E+01 0. -1.
         -5    1    4    4    0  501 -0.11182533113E+03  0.12759792953E+03 -0.24716900987E+03  0.29982683025E+03  0.41800000000E+01 0. -1.
</event>
<event>
11    1  0.7882745E-009  0.1299214E+03  0.7561462E-02  0.1119366E+00
         22   -1    0    0    0    0  0.00000000000E+00  0.00000000000E+00  0.18031582081E+04  0.18031582081E+04  0.00000000000E+00 0. -1.
         22   -1    0    0    0    0 -0.00000000000E+00 -0.00000000000E+00 -0.18579124207E+04  0.18579124207E+04  0.00000000000E+00 0. -1.
        -24    2    1    2    0    0  0.19568295966E+02  0.26421824398E+02 -0.15070598908E+04  0.15095323807E+04  0.79859019766E+02 0.  0.
         25    2    1    2    0    0 -0.91127552282E+01 -0.68940069660E+02 -0.33392986392E+03  0.36330324140E+03  0.12507723887E+03 0.  0.
         24    2    1    2    0    0 -0.10455540738E+02  0.42518245263E+02  0.17862355422E+04  0.17882350066E+04  0.72318097984E+02 0.  0.
        -13    1    5    5    0    0  0.30776337176E+01  0.59228353689E+02  0.10399954333E+04  0.10416851593E+04  0.00000000000E+00 0.  1.
         14    1    5    5    0    0 -0.13533174456E+02 -0.16710108427E+02  0.74624010886E+03  0.74654984736E+03  0.00000000000E+00 0. -1.
         13    1    3    3    0    0 -0.17618522073E+02  0.37925518143E+02 -0.10447761222E+04  0.10456126925E+04  0.00000000000E+00 0. -1.
        -14    1    3    3    0    0  0.37186818039E+02 -0.11503693745E+02 -0.46228376860E+03  0.46391968822E+03  0.00000000000E+00 0.  1.
          5    1    4    4  501    0  0.13425797321E+02 -0.80827952265E+02 -0.32618546801E+03  0.33634482580E+03  0.41800000000E+01 0. -1.
         -5    1    4    4    0  501 -0.22538552549E+02  0.11887882605E+02 -0.77443959111E+01  0.26958415604E+02  0.41800000000E+01 0. -1.
</event>
<event>
11    1  0.7882745E-009  0.1544807E+03  0.7561462E-02  0.1092386E+00
         22   -1    0    0    0    0  0.00000000000E+00  0.00000000000E+00  0.35877004916E+03  0.35877004916E+03  0.00000000000E+00 0. -1.
         22   -1    0    0    0    0 -0.00000000000E+00 -0.00000000000E+00 -0.16117166044E+04  0.16117166044E+04  0.00000000000E+00 0.  1.
        -24    2    1    2    0    0 -0.85631812040E+02 -0.27484844135E+02 -0.15411836930E+04  0.15458408071E+04  0.79299441057E+02 0.  0.
         25    2    1    2    0    0  0.13196952701E+03  0.31208383004E+02  0.88129333710E+02  0.20446197409E+03  0.12509196680E+03 0.  0.
         24    2    1    2    0    0 -0.46337714974E+02 -0.37235388686E+01  0.20010780402E+03  0.22018387243E+03  0.79225979807E+02 0.  0.
        -11    1    5    5    0    0 -0.24205129465E+02  0.21338436855E+02  0.22213601086E+02  0.39174752750E+02  0.00000000000E+00 0.  1.
         12    1    5    5    0    0 -0.22132585509E+02 -0.25061975724E+02  0.17789420294E+03  0.18100911968E+03  0.00000000000E+00 0. -1.
         13    1    3    3    0    0  0.56737453719E+00 -0.17437126947E+01  0.19054994352E+00  0.18435718343E+01  0.00000000000E+00 0. -1.
        -14    1    3    3    0    0 -0.86199186577E+02 -0.25741131441E+02 -0.15413742430E+04  0.15439972353E+04  0.00000000000E+00 0.  1.
          5    1    4    4  501    0 -0.15299929784E+01  0.31412933565E+02 -0.15594120865E+02  0.35351977020E+02  0.41800000000E+01 0. -1.
         -5    1    4    4    0  501  0.13349951999E+03 -0.20455056124E+00  0.10372345458E+03  0.16910999707E+03  0.41800000000E+01 0. -1.
</event>
<event>
11    1  0.7882745E-009  0.1976645E+03  0.7561462E-02  0.1056188E+00
         22   -1    0    0    0    0  0.00000000000E+00  0.00000000000E+00  0.95234666679E+03  0.95234666679E+03  0.00000000000E+00 0.  1.
         22   -1    0    0    0    0 -0.00000000000E+00 -0.00000000000E+00 -0.22911344275E+03  0.22911344275E+03  0.00000000000E+00 0.  1.
        -24    2    1    2    0    0  0.18727300508E+02 -0.10931014597E+03 -0.38466359615E+02  0.14240927501E+03  0.80630769494E+02 0.  0.
         25    2    1    2    0    0  0.51136806547E+02 -0.34733753099E+02 -0.91906796576E+02  0.16707698676E+03  0.12508578521E+03 0.  0.
         24    2    1    2    0    0 -0.69864107056E+02  0.14404389907E+03  0.85360638023E+03  0.87197384778E+03  0.77877471223E+02 0.  0.
        -13    1    5    5    0    0 -0.34683803843E+02  0.13712506879E+03  0.71069716326E+03  0.72463556951E+03  0.00000000000E+00 0.  1.
         14    1    5    5    0    0 -0.35180303213E+02  0.69188302829E+01  0.14290921697E+03  0.14733827827E+03  0.00000000000E+00 0. -1.
         11    1    3    3    0    0  0.10522493480E+02  0.40669637359E+01 -0.25642889718E+02  0.28014654310E+02  0.00000000000E+00 0. -1.
        -12    1    3    3    0    0  0.82048070288E+01 -0.11337710971E+03 -0.12823469897E+02  0.11439462070E+03  0.00000000000E+00 0.  1.
          5    1    4    4  501    0 -0.26773807135E+02  0.14486648831E+02  0.73250779547E+01  0.31588430001E+02  0.41800000000E+01 0. -1.
         -5    1    4    4    0  501  0.77910613683E+02 -0.49220401930E+02 -0.99231874531E+02  0.13548855676E+03  0.41800000000E+01 0. -1.
</event>
<event>
11    1  0.7882745E-009  0.1420085E+03  0.7561462E-02  0.1105336E+00
         22   -1    0    0    0    0  0.00000000000E+00  0.00000000000E+00  0.63390480501E+03  0.63390480501E+03  0.00000000000E+00 0.  1.
         22   -1    0    0    0    0 -0.00000000000E+00 -0.00000000000E+00 -0.18336925356E+03  0.18336925356E+03  0.00000000000E+00 0.  1.
         24    2    1    2    0    0 -0.30519592879E+02  0.48386652981E+01 -0.14502293526E+03  0.16859759219E+03  0.80241124819E+02 0.  0.
         25    2    1    2    0    0 -0.61494176958E+01 -0.64703665140E+02  0.24858000346E+03  0.28577246131E+03  0.12509796921E+03 0.  0.
        -24    2    1    2    0    0  0.36669010574E+02  0.59864999841E+02  0.34697848324E+03  0.36290400506E+03  0.79854959212E+02 0.  0.
        -11    1    3    3    0    0 -0.57323415545E+01  0.33200329006E+02 -0.22747034749E+02  0.40651558097E+02  0.00000000000E+00 0.  1.
         12    1    3    3    0    0 -0.24787251324E+02 -0.28361663708E+02 -0.12227590051E+03  0.12794603410E+03  0.00000000000E+00 0. -1.
         13    1    5    5    0    0 -0.21601227747E+02 -0.10934410360E+01  0.59349132814E+02  0.63167461713E+02  0.00000000000E+00 0. -1.
        -14    1    5    5    0    0  0.58270238321E+02  0.60958440878E+02  0.28762935043E+03  0.29973654335E+03  0.00000000000E+00 0.  1.
          5    1    4    4  501    0  0.37142141518E+02 -0.84434481880E+02  0.17845455281E+03  0.20092839577E+03  0.41800000000E+01 0.  1.
         -5    1    4    4    0  501 -0.43291559214E+02  0.19730816740E+02  0.70125450647E+02  0.84844065537E+02  0.41800000000E+01 0.  1.
</event>
<event>
11    1  0.7882745E-009  0.1625481E+03  0.7561462E-02  0.1084705E+00
         22   -1    0    0    0    0  0.00000000000E+00  0.00000000000E+00  0.23812455669E+03  0.23812455669E+03  0.00000000000E+00 0. -1.
         22   -1    0    0    0    0 -0.00000000000E+00 -0.00000000000E+00 -0.24404580101E+04  0.24404580101E+04  0.00000000000E+00 0. -1.
        -24    2    1    2    0    0 -0.23012747757E+02 -0.44240955953E+02 -0.11730480635E+04  0.11771460764E+04  0.84523826615E+02 0.  0.
         25    2    1    2    0    0 -0.53140402946E+02 -0.27302015403E+02 -0.12429650552E+04  0.12506715054E+04  0.12509110164E+03 0.  0.
         24    2    1    2    0    0  0.76153150703E+02  0.71542971356E+02  0.21367966517E+03  0.25076498499E+03  0.79412714838E+02 0.  0.
        -13    1    5    5    0    0 -0.12241996853E+02 -0.23379433555E+01  0.73981405332E+01  0.14493617541E+02  0.00000000000E+00 0.  1.
         14    1    5    5    0    0  0.88395147557E+02  0.73880914712E+02  0.20628152464E+03  0.23627136745E+03  0.00000000000E+00 0. -1.
         13    1    3    3    0    0 -0.25316922672E+02 -0.46927460420E+02 -0.11723208787E+04  0.11735328609E+04  0.00000000000E+00 0. -1.
        -14    1    3    3    0    0  0.23041749154E+01  0.26865044672E+01 -0.72718477910E+00  0.36132154650E+01  0.00000000000E+00 0.  1.
          5    1    4    4  501    0 -0.55093863582E+02 -0.70609769151E+02 -0.65688881421E+03  0.66297923040E+03  0.41800000000E+01 0.  1.
         -5    1    4    4    0  501  0.19534606360E+01  0.43307753748E+02 -0.58607624095E+03  0.58769227504E+03  0.41800000000E+01 0.  1.
</event>
<event>
11    1  0.7882745E-009  0.2016813E+03  0.7561462E-02  0.1053341E+00
         22   -1    0    0    0    0  0.00000000000E+00  0.00000000000E+00  0.14914190657E+03  0.14914190657E+03  0.00000000000E+00 0. -1.
         22   -1    0    0    0    0 -0.00000000000E+00 -0.00000000000E+00 -0.92433443813E+03  0.92433443813E+03  0.00000000000E+00 0.  1.
        -24    2    1    2    0    0  0.14105920679E+03 -0.63341715022E+02 -0.59786926024E+03  0.62292191441E+03  0.81695694096E+02 0.  0.
         25    2    1    2    0    0 -0.16068476118E+03  0.53814774214E+02 -0.25909872375E+03  0.33391182861E+03  0.12509731507E+03 0.  0.
         24    2    1    2    0    0  0.19625554394E+02  0.95269408074E+01  0.81775452432E+02  0.11664260168E+03  0.80264231881E+02 0.  0.
        -13    1    5    5    0    0 -0.16398061621E+02  0.28585861827E+02  0.10587606620E+02  0.34614236020E+02  0.00000000000E+00 0.  1.
         14    1    5    5    0    0  0.36023616015E+02 -0.19058921019E+02  0.71187845812E+02  0.82028365659E+02  0.00000000000E+00 0. -1.
         13    1    3    3    0    0  0.85876925937E+02  0.61474219915E+01 -0.28685191294E+03  0.29949400188E+03  0.00000000000E+00 0. -1.
        -14    1    3    3    0    0  0.55182280851E+02 -0.69489137013E+02 -0.31101734730E+03  0.32342791253E+03  0.00000000000E+00 0.  1.
          5    1    4    4  501    0 -0.16103801841E+03  0.55008053156E+01 -0.18518082032E+03  0.24550541918E+03  0.41800000000E+01 0. -1.
         -5    1    4    4    0  501  0.35325722679E+00  0.48313968899E+02 -0.73917903430E+02  0.88406409434E+02  0.41800000000E+01 0. -1.
</event>
<event>
11    1  0.7882745E-009  0.1665444E+03  0.7561462E-02  0.1081079E+00
         22   -1    0    0    0    0  0.00000000000E+00  0.00000000000E+00  0.11528278608E+04  0.11528278608E+04  0.00000000000E+00 0. -1.
         22   -1    0    0    0    0 -0.00000000000E+00 -0.00000000000E+00 -0.38180555162E+03  0.38180555162E+03  0.00000000000E+00 0.  1.
         24    2    1    2    0    0 -0.81222210984E+01 -0.10843714879E+03 -0.33979692996E+03  0.36517567024E+03  0.77889221381E+02 0.  0.
         25    2    1    2    0    0  0.70168168891E+01  0.14401436441E+03  0.31142849638E+03  0.36525280801E+03  0.12503012646E+03 0.  0.
        -24    2    1    2    0    0  0.11054042093E+01 -0.35577215625E+02  0.79939074281E+03  0.80420493422E+03  0.80330917744E+02 0.  0.
        -11    1    3    3    0    0 -0.15706254099E+02 -0.60255658349E+02 -0.28540022502E+03  0.29211422291E+03  0.00000000000E+00 0.  1.
         12    1    3    3    0    0  0.75840330003E+01 -0.48181490441E+02 -0.54396704939E+02  0.73061447330E+02  0.00000000000E+00 0. -1.
         11    1    5    5    0    0 -0.25828823423E+02 -0.30280653192E+02  0.69890525491E+03  0.70003757143E+03  0.00000000000E+00 0. -1.
        -12    1    5    5    0    0  0.26934227633E+02 -0.52965624331E+01  0.10048548790E+03  0.10416736279E+03  0.00000000000E+00 0.  1.
          5    1    4    4  501    0 -0.10610902007E+02  0.11870117921E+03  0.31211245510E+03  0.33411707262E+03  0.41800000000E+01 0.  1.
         -5    1    4    4    0  501  0.17627718896E+02  0.25313185203E+02 -0.68395871781E+00  0.31135735388E+02  0.41800000000E+01 0.  1.
</event>
<event>
11    1  0.7882745E-009  0.1361141E+03  0.7561462E-02  0.1111977E+00
         22   -1    0    0    0    0  0.00000000000E+00  0.00000000000E+00  0.97023506107E+03  0.97023506107E+03  0.00000000000E+00 0.  1.
         22   -1    0    0    0    0 -0.00000000000E+00 -0.00000000000E+00 -0.25071618996E+03  0.25071618996E+03  0.00000000000E+00 0. -1.
        -24    2    1    2    0    0  0.78689822448E+01  0.43454237778E+02 -0.16945538213E+03  0.19288940261E+03  0.80876470263E+02 0.  0.
         25    2    1    2    0    0 -0.65110031093E+01  0.11883373140E+02 -0.76165659284E+01  0.12605446300E+03  0.12509239724E+03 0.  0.
         24    2    1    2    0    0 -0.13579791355E+01 -0.55337610918E+02  0.89659081918E+03  0.90200738543E+03  0.81719832634E+02 0.  0.
        -11    1    5    5    0    0 -0.36294536527E+02 -0.42273561650E+02  0.67535094590E+03  0.67764537003E+03  0.00000000000E+00 0.  1.
         12    1    5    5    0    0  0.34936557392E+02 -0.13064049267E+02  0.22123987328E+03  0.22436201540E+03  0.00000000000E+00 0. -1.
         11    1    3    3    0    0  0.26316572134E+02  0.73250294651E+00 -0.12764246855E+03  0.13032919207E+03  0.00000000000E+00 0. -1.
        -12    1    3    3    0    0 -0.18447589889E+02  0.42721734832E+02 -0.41812913587E+02  0.62560210536E+02  0.00000000000E+00 0.  1.
          5    1    4    4  501    0  0.51643807359E+02  0.18883837335E+01 -0.33240630087E+02  0.61587829319E+02  0.41800000000E+01 0.  1.
         -5    1    4    4    0  501 -0.58154810468E+02  0.99949894062E+01  0.25624064158E+02  0.64466633678E+02  0.41800000000E+01 0.  1.
</event>
<event>
11    1  0.7882745E-009  0.1290987E+03  0.7561462E-02  0.1120381E+00
         22   -1    0    0    0    0  0.00000000000E+00  0.00000000000E+00  0.25156545489E+03  0.25156545489E+03  0.00000000000E+00 0.  1.
         22   -1    0    0    0    0 -0.00000000000E+00 -0.00000000000E+00 -0.59823050605E+03  0.59823050605E+03  0.00000000000E+00 0. -1.
        -24    2    1    2    0    0 -0.14711063437E+02 -0.35168467667E+02 -0.40888283796E+03  0.41831334932E+03  0.79672118956E+02 0.  0.
         25    2    1    2    0    0 -0.89779030470E+01  0.61990644723E+01 -0.15395256147E+03  0.19866428832E+03  0.12508827735E+03 0.  0.
         24    2    1    2    0    0  0.23688966484E+02  0.28969403194E+02  0.21617034827E+03  0.23281832330E+03  0.77938172559E+02 0.  0.
        -13    1    5    5    0    0  0.31750806252E+02  0.39022201943E+02  0.21389674944E+03  0.21973316856E+03  0.00000000000E+00 0.  1.
         14    1    5    5    0    0 -0.80618397681E+01 -0.10052798749E+02  0.22735988241E+01  0.13085154747E+02  0.00000000000E+00 0. -1.
         13    1    3    3    0    0  0.41650278131E+01  0.70238783596E+01 -0.29891076398E+03  0.29902228537E+03  0.00000000000E+00 0. -1.
        -14    1    3    3    0    0 -0.18876091250E+02 -0.42192346026E+02 -0.10997207397E+03  0.11929106395E+03  0.00000000000E+00 0.  1.
          5    1    4    4  501    0  0.22961320005E+02  0.16989379763E+01  0.14215483461E+02  0.27379937485E+02  0.41800000000E+01 0.  1.
         -5    1    4    4    0  501 -0.31939223052E+02  0.45001264960E+01 -0.16816804493E+03  0.17128435084E+03  0.41800000000E+01 0.  1.
</event>
<event>
11    1  0.7882745E-009  0.1455081E+03  0.7561462E-02  0.1101559E+00
         22   -1    0    0    0    0  0.00000000000E+00  0.00000000000E+00  0.22225119297E+03  0.22225119297E+03  0.00000000000E+00 0. -1.
         22   -1    0    0    0    0 -0.00000000000E+00 -0.00000000000E+00 -0.37100174116E+03  0.37100174116E+03  0.00000000000E+00 0.  1.
        -24    2    1    2    0    0 -0.61183906704E+02 -0.42289638293E+02 -0.25941682240E+03  0.28155155295E+03  0.80263972461E+02 0.  0.
         25    2    1    2    0    0  0.78489942322E+02  0.14683503149E+02 -0.25019114691E+02  0.15050466015E+03  0.12509764313E+03 0.  0.
         24    2    1    2    0    0 -0.17306035618E+02  0.27606135144E+02  0.13568538890E+03  0.16119672103E+03  0.80698578335E+02 0.  0.
        -11    1    5    5    0    0 -0.37701011713E+02 -0.12469188399E+02  0.45278543020E+02  0.60224524917E+02  0.00000000000E+00 0.  1.
         12    1    5    5    0    0  0.20394976095E+02  0.40075323543E+02  0.90406845876E+02  0.10097219611E+03  0.00000000000E+00 0. -1.
         11    1    3    3    0    0 -0.39819131734E+02  0.19155595935E+02 -0.96963784608E+02  0.10655738188E+03  0.00000000000E+00 0. -1.
        -12    1    3    3    0    0 -0.21364774970E+02 -0.61445234228E+02 -0.16245303779E+03  0.17499417107E+03  0.00000000000E+00 0.  1.
          5    1    4    4  501    0  0.99844704288E+01 -0.51626854059E+02 -0.12909050034E+02  0.54305963600E+02  0.41800000000E+01 0. -1.
         -5    1    4    4    0  501  0.68505471893E+02  0.66310357208E+02 -0.12110064658E+02  0.96198696552E+02  0.41800000000E+01 0. -1.
</event>
<event>
11    1  0.7882745E-009  0.1410219E+03  0.7561462E-02  0.1106423E+00
         22   -1    0    0    0    0  0.00000000000E+00  0.00000000000E+00  0.22848982626E+04  0.22848982626E+04  0.00000000000E+00 0. -1.
         22   -1    0    0    0    0 -0.00000000000E+00 -0.00000000000E+00 -0.22858641980E+04  0.22858641980E+04  0.00000000000E+00 0.  1.
        -24    2    1    2    0    0 -0.65826828154E+02 -0.61814879770E+01 -0.22170030002E+04  0.22196566375E+04  0.86034314409E+02 0.  0.
         25    2    1    2    0    0  0.15156659351E+02  0.28834244743E+02 -0.36151681598E+01  0.12930896317E+03  0.12508637225E+03 0.  0.
         24    2    1    2    0    0  0.50670168803E+02 -0.22652756766E+02  0.22196522330E+04  0.22217968599E+04  0.80278501776E+02 0.  0.
        -11    1    5    5    0    0  0.51564445743E+02 -0.81917264066E+01  0.65502317920E+03  0.65710072419E+03  0.00000000000E+00 0.  1.
         12    1    5    5    0    0 -0.89427694029E+00 -0.14461030359E+02  0.15646290538E+04  0.15646961357E+04  0.00000000000E+00 0. -1.
         13    1    3    3    0    0  0.77829784054E+01 -0.35785587702E+01 -0.25196127893E+02  0.26612510151E+02  0.00000000000E+00 0. -1.
        -14    1    3    3    0    0 -0.73609806560E+02 -0.26029292068E+01 -0.21918068723E+04  0.21930441273E+04  0.00000000000E+00 0.  1.
          5    1    4    4  501    0 -0.21276477920E+02  0.64124775678E+02  0.23483839081E+02  0.71649413580E+02  0.41800000000E+01 0. -1.
         -5    1    4    4    0  501  0.36433137271E+02 -0.35290530935E+02 -0.27099007241E+02  0.57659549587E+02  0.41800000000E+01 0. -1.
</event>
<event>
11    1  0.7882745E-009  0.1423407E+03  0.7561462E-02  0.1104972E+00
         22   -1    0    0    0    0  0.00000000000E+00  0.00000000000E+00  0.15018864986E+04  0.15018864986E+04  0.00000000000E+00 0.  1.
         22   -1    0    0    0    0 -0.00000000000E+00 -0.00000000000E+00 -0.49947949326E+03  0.49947949326E+03  0.00000000000E+00 0. -1.
        -24    2    1    2    0    0 -0.35463181420E+02  0.62668921520E+02 -0.35479284354E+03  0.37096653824E+03  0.80951712203E+02 0.  0.
         25    2    1    2    0    0  0.43706026100E+02 -0.32563425281E+02 -0.10091202805E+03  0.16970954562E+03  0.12508996397E+03 0.  0.
         24    2    1    2    0    0 -0.82428446794E+01 -0.30105496238E+02  0.14581118769E+04  0.14606899080E+04  0.80935012857E+02 0.  0.
        -13    1    5    5    0    0 -0.91971928456E+01 -0.11568937032E+02  0.13904445157E+04  0.13905230598E+04  0.00000000000E+00 0.  1.
         14    1    5    5    0    0  0.95434816615E+00 -0.18536559206E+02  0.67667361224E+02  0.70166848173E+02  0.00000000000E+00 0. -1.
         13    1    3    3    0    0 -0.35184791788E+02  0.68205830353E+01 -0.24678373098E+03  0.24937261238E+03  0.00000000000E+00 0. -1.
        -14    1    3    3    0    0 -0.27838963218E+00  0.55848338484E+02 -0.10800911256E+03  0.12159392587E+03  0.00000000000E+00 0.  1.
          5    1    4    4  501    0 -0.42038396974E+02 -0.27096653702E+02 -0.32384815534E+02  0.59730261503E+02  0.41800000000E+01 0.  1.
         -5    1    4    4    0  501  0.85744423073E+02 -0.54667715793E+01 -0.68527212513E+02  0.10997928412E+03  0.41800000000E+01 0.  1.
</event>
<event>
11    1  0.7882745E-009  0.1477391E+03  0.7561462E-02  0.1099212E+00
         22   -1    0    0    0    0  0.00000000000E+00  0.00000000000E+00  0.21795495855E+04  0.21795495855E+04  0.00000000000E+00 0.  1.
         22   -1    0    0    0    0 -0.00000000000E+00 -0.00000000000E+00 -0.45199316810E+03  0.45199316810E+03  0.00000000000E+00 0. -1.
         24    2    1    2    0    0 -0.68026626387E+02 -0.42113802278E+02 -0.42099541309E+03  0.43608317483E+03  0.80809673222E+02 0.  0.
         25    2    1    2    0    0  0.37378180070E+02  0.20510289628E+02  0.17192819231E+03  0.21685146075E+03  0.12508977732E+03 0.  0.
        -24    2    1    2    0    0  0.30648446317E+02  0.21603512650E+02  0.19766236381E+04  0.19786081180E+04  0.80268540736E+02 0.  0.
        -11    1    3    3    0    0  0.13555008431E+02  0.91259305947E+00 -0.17359959875E+02  0.22044030632E+02  0.00000000000E+00 0.  1.
         12    1    3    3    0    0 -0.81581634818E+02 -0.43026395338E+02 -0.40363545322E+03  0.41403914420E+03  0.00000000000E+00 0. -1.
         13    1    5    5    0    0 -0.17465889718E+02  0.20395210468E+02  0.27589895491E+03  0.27720255272E+03  0.00000000000E+00 0. -1.
        -14    1    5    5    0    0  0.48114336035E+02  0.12083021822E+01  0.17007246832E+04  0.17014055653E+04  0.00000000000E+00 0.  1.
          5    1    4    4  501    0  0.44025003650E+01 -0.31131277911E+02 -0.26087763677E+01  0.31824779465E+02  0.41800000000E+01 0.  1.
         -5    1    4    4    0  501  0.32975679705E+02  0.51641567540E+02  0.17453696868E+03  0.18502668128E+03  0.41800000000E+01 0.  1.
</event>
<event>
11    1  0.7882745E-009  0.1402508E+03  0.7561462E-02  0.1107279E+00
         22   -1    0    0    0    0  0.00000000000E+00  0.00000000000E+00  0.11033004897E+04  0.11033004897E+04  0.00000000000E+00 0. -1.
         22   -1    0    0    0    0 -0.00000000000E+00 -0.00000000000E+00 -0.40385921366E+03  0.40385921366E+03  0.00000000000E+00 0. -1.
        -24    2    1    2    0    0  0.41071755804E+01  0.73192180747E+02 -0.27678747788E+03  0.29852931829E+03  0.84465861479E+02 0.  0.
         25    2    1    2    0    0  0.28108356032E+02 -0.29013282780E+02 -0.75947601772E+02  0.15181353656E+03  0.12508981339E+03 0.  0.
         24    2    1    2    0    0 -0.32215531612E+02 -0.44178897967E+02  0.10521763557E+04  0.10568168485E+04  0.82444844179E+02 0.  0.
        -13    1    5    5    0    0  0.11686844708E+02 -0.29895566260E+02  0.78680532578E+03  0.78745980716E+03  0.00000000000E+00 0.  1.
         14    1    5    5    0    0 -0.43902376320E+02 -0.14283331707E+02  0.26537102994E+03  0.26935704138E+03  0.00000000000E+00 0. -1.
         13    1    3    3    0    0  0.10018726406E+02  0.91044355807E+02 -0.24543982128E+03  0.26197357782E+03  0.00000000000E+00 0. -1.
        -14    1    3    3    0    0 -0.59115508259E+01 -0.17852175060E+02 -0.31347656593E+02  0.36555740471E+02  0.00000000000E+00 0.  1.
          5    1    4    4  501    0  0.44631783704E+02 -0.67295244589E+02 -0.22565011768E+02  0.83948187693E+02  0.41800000000E+01 0.  1.
         -5    1    4    4    0  501 -0.16523427673E+02  0.38281961808E+02 -0.53382590003E+02  0.67865348871E+02  0.41800000000E+01 0.  1.
</event>
<event>
11    1  0.7882745E-009  0.1366044E+03  0.7561462E-02  0.1111410E+00
         22   -1    0    0    0    0  0.00000000000E+00  0.00000000000E+00  0.32560810146E+03  0.32560810146E+03  0.00000000000E+00 0. -1.
         22   -1    0    0    0    0 -0.00000000000E+00 -0.00000000000E+00 -0.99348491322E+03  0.99348491322E+03  0.00000000000E+00 0. -1.
        -24    2    1    2    0    0  0.76761927876E+01  0.32564493073E+02 -0.76526455796E+03  0.77015448425E+03  0.79929442538E+02 0.  0.
         25    2    1    2    0    0 -0.22600143550E+02 -0.84204447690E+02 -0.19144429310E+03  0.24474459219E+03  0.12509133682E+03 0.  0.
         24    2    1    2    0    0  0.14923950763E+02  0.51639954616E+02  0.28883203930E+03  0.30419393825E+03  0.78870754531E+02 0.  0.
        -11    1    5    5    0    0  0.30400715167E+02 -0.99061536822E+01  0.94684113640E+02  0.99937063891E+02  0.00000000000E+00 0.  1.
         12    1    5    5    0    0 -0.15476764404E+02  0.61546108299E+02  0.19414792566E+03  0.20425687436E+03  0.00000000000E+00 0. -1.
         11    1    3    3    0    0 -0.31314019236E+02 -0.51812843797E+01 -0.23871722047E+03  0.24081803267E+03  0.00000000000E+00 0. -1.
        -12    1    3    3    0    0  0.38990212024E+02  0.37745777453E+02 -0.52654733749E+03  0.52933645158E+03  0.00000000000E+00 0.  1.
          5    1    4    4  501    0  0.31825776025E+01 -0.27973080709E+02 -0.17932504022E+03  0.18156972351E+03  0.41800000000E+01 0. -1.
         -5    1    4    4    0  501 -0.25782721153E+02 -0.56231366981E+02 -0.12119252877E+02  0.63174868681E+02  0.41800000000E+01 0. -1.
</event>
<event>
11    1  0.7882745E-009  0.1784915E+03  0.7561462E-02  0.1070870E+00
         22   -1    0    0    0    0  0.00000000000E+00  0.00000000000E+00  0.98705083649E+03  0.98705083649E+03  0.00000000000E+00 0.  1.
         22   -1    0    0    0    0 -0.00000000000E+00 -0.00000000000E+00 -0.96332075551E+03  0.96332075551E+03  0.00000000000E+00 0.  1.
         24    2    1    2    0    0  0.89360228517E+02  0.89335176133E+02 -0.90380592242E+03  0.91614073304E+03  0.80515049457E+02 0.  0.
         25    2    1    2    0    0 -0.72197777943E+02 -0.15881115864E+03  0.18362234783E+03  0.28248807158E+03  0.12509532650E+03 0.  0.
        -24    2    1    2    0    0 -0.17162450573E+02  0.69475982510E+02  0.74391365558E+03  0.75174278739E+03  0.81167909794E+02 0.  0.
        -11    1    3    3    0    0  0.21566554473E+02  0.58990752907E+02 -0.60459405873E+03  0.60784784367E+03  0.00000000000E+00 0.  1.
         12    1    3    3    0    0  0.67793674044E+02  0.30344423227E+02 -0.29921186369E+03  0.30829288937E+03  0.00000000000E+00 0. -1.
         13    1    5    5    0    0  0.23302138696E+02 -0.46441509425E+01  0.16049806130E+03  0.16224729732E+03  0.00000000000E+00 0. -1.
        -14    1    5    5    0    0 -0.40464589269E+02  0.74120133453E+02  0.58341559428E+03  0.58949549007E+03  0.00000000000E+00 0.  1.
          5    1    4    4  501    0 -0.77467156654E+02 -0.91380995722E+02  0.17785319775E+03  0.21447815527E+03  0.41800000000E+01 0. -1.
         -5    1    4    4    0  501  0.52693787105E+01 -0.67430162922E+02  0.57691500802E+01  0.68009916308E+02  0.41800000000E+01 0. -1.
</event>
<event>
11    1  0.7882745E-009  0.1648119E+03  0.7561462E-02  0.1082637E+00
         22   -1    0    0    0    0  0.00000000000E+00  0.00000000000E+00  0.12223628950E+03  0.12223628950E+03  0.00000000000E+00 0.  1.
         22   -1    0    0    0    0 -0.00000000000E+00 -0.00000000000E+00 -0.80126895059E+03  0.80126895059E+03  0.00000000000E+00 0.  1.
        -24    2    1    2    0    0  0.87924329315E+01 -0.12603432610E+01 -0.43568075876E+03  0.44311059007E+03  0.80314233688E+02 0.  0.
         25    2    1    2    0    0 -0.11308859988E+03 -0.18960420995E+02 -0.29293579258E+03  0.33853755553E+03  0.12509104262E+03 0.  0.
         24    2    1    2    0    0  0.10429616695E+03  0.20220764256E+02  0.49583890250E+02  0.14185709449E+03  0.79864280733E+02 0.  0.
        -11    1    5    5    0    0  0.27006380747E+02  0.14804657237E+02  0.56210619940E+02  0.64094900507E+02  0.00000000000E+00 0.  1.
         12    1    5    5    0    0  0.77289786204E+02  0.54161070191E+01 -0.66267296898E+01  0.77762193983E+02  0.00000000000E+00 0. -1.
         11    1    3    3    0    0  0.20556821905E+02 -0.27087703761E+02 -0.89078408640E+02  0.95348253826E+02  0.00000000000E+00 0. -1.
        -12    1    3    3    0    0 -0.11764388973E+02  0.25827360500E+02 -0.34660235012E+03  0.34776233624E+03  0.00000000000E+00 0.  1.
          5    1    4    4  501    0 -0.12911923577E+03  0.47445769657E+01 -0.17782113958E+03  0.21984566891E+03  0.41800000000E+01 0.  1.
         -5    1    4    4    0  501  0.16030635887E+02 -0.23704997961E+02 -0.11511465300E+03  0.11869188663E+03  0.41800000000E+01 0.  1.
</event>
<event>
11    1  0.7882745E-009  0.1376484E+03  0.7561462E-02  0.1110213E+00
         22   -1    0    0    0    0  0.00000000000E+00  0.00000000000E+00  0.11393140363E+04  0.11393140363E+04  0.00000000000E+00 0.  1.
         22   -1    0    0    0    0 -0.00000000000E+00 -0.00000000000E+00 -0.49905079406E+03  0.49905079406E+03  0.00000000000E+00 0.  1.
        -24    2    1    2    0    0  0.40219068112E+02  0.39183063051E+02 -0.40692302222E+03  0.41844871517E+03  0.79750205917E+02 0.  0.
         25    2    1    2    0    0 -0.50081613875E+02  0.18264082906E+02 -0.28954008433E+02  0.13902962163E+03  0.12509658793E+03 0.  0.
         24    2    1    2    0    0  0.98625457634E+01 -0.57447145957E+02  0.10761402729E+04  0.10808864936E+04  0.82705989254E+02 0.  0.
        -11    1    5    5    0    0  0.59183868885E+01 -0.77156246842E+02  0.71220465327E+03  0.71639624641E+03  0.00000000000E+00 0.  1.
         12    1    5    5    0    0  0.39441588748E+01  0.19709100885E+02  0.36393561962E+03  0.36449024716E+03  0.00000000000E+00 0. -1.
         11    1    3    3    0    0  0.47883485823E+02 -0.32158115379E+00 -0.12848776688E+03  0.13712052314E+03  0.00000000000E+00 0. -1.
        -12    1    3    3    0    0 -0.76644177112E+01  0.39504644205E+02 -0.27843525534E+03  0.28132819203E+03  0.00000000000E+00 0.  1.
          5    1    4    4  501    0 -0.83898264894E+02 -0.11966731408E+02  0.37778743256E+00  0.84851261842E+02  0.41800000000E+01 0.  1.
         -5    1    4    4    0  501  0.33816651020E+02  0.30230814314E+02 -0.29331795866E+02  0.54178359785E+02  0.41800000000E+01 0.  1.
</event>
<event>
11    1  0.1038171E-008  0.1504067E+03  0.7561462E-02  0.1096464E+00
         22   -1    0    0    0    0  0.00000000000E+00  0.00000000000E+00  0.86854089893E+03  0.86854089893E+03  0.00000000000E+00 0.  1.
         22   -1    0    0    0    0 -0.00000000000E+00 -0.00000000000E+00 -0.12194942581E+04  0.12194942581E+04  0.00000000000E+00 0. -1.
        -24    2    1    2    0    0  0.60398131877E+02  0.64098343788E+02 -0.97297485815E+03  0.98031062586E+03  0.81069825336E+02 0.  0.
         25    2    1    2    0    0  0.50843000848E+00 -0.74477273982E+02 -0.21758379763E+03  0.26179354684E+03  0.12508408906E+03 0.  0.
         24    2    1    2    0    0 -0.60906561886E+02  0.10378930194E+02  0.83960529663E+03  0.84593098430E+03  0.82733576010E+02 0.  0.
        -11    1    5    5    0    0 -0.79599290205E+02 -0.36371755147E+01  0.62561520006E+03  0.63066921171E+03  0.00000000000E+00 0.  1.
         12    1    5    5    0    0  0.18692728319E+02  0.14016105708E+02  0.21399009657E+03  0.21526177259E+03  0.00000000000E+00 0. -1.
         11    1    3    3    0    0  0.62395115974E+02  0.65385003927E+02 -0.97365413482E+03  0.97783982506E+03  0.00000000000E+00 0. -1.
        -12    1    3    3    0    0 -0.19969840966E+01 -0.12866601388E+01  0.67927666822E+00  0.24708007987E+01  0.00000000000E+00 0.  1.
          5    1    4    4  501    0 -0.28092253344E+02 -0.31291149132E+02 -0.45380476293E+01  0.42501493953E+02  0.41800000000E+01 0.  1.
         -5    1    4    4    0  501  0.28600683352E+02 -0.43186124850E+02 -0.21304575000E+03  0.21929205289E+03  0.41800000000E+01 0.  1.
</event>
<event>
11    1  0.7882745E-009  0.1653599E+03  0.7561462E-02  0.1082142E+00
         22   -1    0    0    0    0  0.00000000000E+00  0.00000000000E+00  0.35060215543E+03  0.35060215543E+03  0.00000000000E+00 0. -1.
         22   -1    0    0    0    0 -0.00000000000E+00 -0.00000000000E+00 -0.39388494364E+03  0.39388494364E+03  0.00000000000E+00 0.  1.
         24    2    1    2    0    0 -0.11411214715E+03 -0.28439008368E+02 -0.28968913322E+03  0.32258304713E+03  0.79433425373E+02 0.  0.
         25    2    1    2    0    0  0.28351231537E+02  0.94179188216E+02  0.23013458744E+02  0.16078293511E+03  0.12509205057E+03 0.  0.
        -24    2    1    2    0    0  0.85760915614E+02 -0.65740179848E+02  0.22339288627E+03  0.26112111683E+03  0.81259769419E+02 0.  0.
        -11    1    3    3    0    0 -0.33357826889E+02 -0.45737427662E+02 -0.87946042991E+02  0.10459045550E+03  0.00000000000E+00 0.  1.
         12    1    3    3    0    0 -0.80754320262E+02  0.17298419294E+02 -0.20174309023E+03  0.21799259163E+03  0.00000000000E+00 0. -1.
         13    1    5    5    0    0  0.67485508855E+02 -0.25450656059E+02  0.19656982512E+03  0.20938415878E+03  0.00000000000E+00 0. -1.
        -14    1    5    5    0    0  0.18275406759E+02 -0.40289523789E+02  0.26823061152E+02  0.51736958056E+02  0.00000000000E+00 0.  1.
          5    1    4    4  501    0  0.10104928983E+02  0.91408437065E+02  0.66360995584E+02  0.11348509193E+03  0.41800000000E+01 0. -1.
         -5    1    4    4    0  501  0.18246302554E+02  0.27707511516E+01 -0.43347536840E+02  0.47297843175E+02  0.41800000000E+01 0. -1.
</event>
<event>
11    1  0.7882745E-009  0.7236896E+03  0.7561462E-02  0.8998105E-01
         22   -1    0    0    0    0  0.00000000000E+00  0.00000000000E+00  0.52454854818E+03  0.52454854818E+03  0.00000000000E+00 0. -1.
         22   -1    0    0    0    0 -0.00000000000E+00 -0.00000000000E+00 -0.14684091416E+04  0.14684091416E+04  0.00000000000E+00 0.  1.
        -24    2    1    2    0    0  0.62992866139E+03  0.31065033867E+03 -0.77681862514E+03  0.10503658951E+04  0.80669609477E+02 0.  0.
         25    2    1    2    0    0 -0.65243653325E+03 -0.33254151254E+03 -0.28585924759E+03  0.79600263256E+03  0.12508954443E+03 0.  0.
         24    2    1    2    0    0  0.22507871867E+02  0.21891173870E+02  0.11881727927E+03  0.14658916215E+03  0.79906250172E+02 0.  0.
        -11    1    5    5    0    0 -0.18481501537E+02  0.32147996506E+02  0.84065357737E+02  0.91880596155E+02  0.00000000000E+00 0.  1.
         12    1    5    5    0    0  0.40989373404E+02 -0.10256822636E+02  0.34751921533E+02  0.54708565992E+02  0.00000000000E+00 0. -1.
         13    1    3    3    0    0  0.46944540176E+03  0.26862059429E+03 -0.58327574533E+03  0.79545370953E+03  0.00000000000E+00 0. -1.
        -14    1    3    3    0    0  0.16048325963E+03  0.42029744375E+02 -0.19354287981E+03  0.25491218558E+03  0.00000000000E+00 0.  1.
          5    1    4    4  501    0 -0.55988610504E+03 -0.24895608678E+03 -0.27215065439E+03  0.67047373912E+03  0.41800000000E+01 0.  1.
         -5    1    4    4    0  501 -0.92550428212E+02 -0.83585425757E+02 -0.13708593203E+02  0.12552889344E+03  0.41800000000E+01 0.  1.
</event>
<event>
11    1  0.7882745E-009  0.1574415E+03  0.7561462E-02  0.1089509E+00
         22   -1    0    0    0    0  0.00000000000E+00  0.00000000000E+00  0.21875350360E+03  0.21875350360E+03  0.00000000000E+00 0.  1.
         22   -1    0    0    0    0 -0.00000000000E+00 -0.00000000000E+00 -0.39408374128E+03  0.39408374128E+03  0.00000000000E+00 0.  1.
        -24    2    1    2    0    0  0.12155387765E+02 -0.29412059892E+02 -0.23551456042E+03  0.25098966143E+03  0.80720996371E+02 0.  0.
         25    2    1    2    0    0  0.68888515675E+02  0.78193555578E+02 -0.71799188848E+02  0.17796165452E+03  0.12512140997E+03 0.  0.
         24    2    1    2    0    0 -0.81043903439E+02 -0.48781495685E+02  0.13198351158E+03  0.18388592894E+03  0.86293910140E+02 0.  0.
        -13    1    5    5    0    0 -0.96987545420E+02 -0.52633565009E+02  0.12276690474E+03  0.16507146644E+03  0.00000000000E+00 0.  1.
         14    1    5    5    0    0  0.15943641981E+02  0.38520693230E+01  0.92166068426E+01  0.18814462505E+02  0.00000000000E+00 0. -1.
         13    1    3    3    0    0  0.35324570642E+02 -0.88086220723E+00 -0.46325864361E+02  0.58263941834E+02  0.00000000000E+00 0. -1.
        -14    1    3    3    0    0 -0.23169182877E+02 -0.28531197685E+02 -0.18918869606E+03  0.19272571959E+03  0.00000000000E+00 0.  1.
          5    1    4    4  501    0  0.74390103878E+02  0.30676618684E+02 -0.95054020546E+02  0.12461011881E+03  0.41800000000E+01 0.  1.
         -5    1    4    4    0  501 -0.55015882032E+01  0.47516936894E+02  0.23254831698E+02  0.53351535703E+02  0.41800000000E+01 0.  1.
</event>
<event>
11    1  0.7882745E-009  0.2269108E+03  0.7561462E-02  0.1036973E+00
         22   -1    0    0    0    0  0.00000000000E+00  0.00000000000E+00  0.47751134544E+03  0.47751134544E+03  0.00000000000E+00 0.  1.
         22   -1    0    0    0    0 -0.00000000000E+00 -0.00000000000E+00 -0.29704467549E+03  0.29704467549E+03  0.00000000000E+00 0. -1.
         24    2    1    2    0    0 -0.58201013151E+02  0.24690964943E+03 -0.11481666724E+03  0.28927220834E+03  0.78382463136E+02 0.  0.
         25    2    1    2    0    0  0.35074551481E+02 -0.11044896427E+03  0.26976048537E+02  0.17265281805E+03  0.12510831514E+03 0.  0.
        -24    2    1    2    0    0  0.23126461671E+02 -0.13646068516E+03  0.26830728865E+03  0.31263099454E+03  0.81197203029E+02 0.  0.
        -13    1    3    3    0    0 -0.15526030068E+02  0.70177748368E+00 -0.85194349298E+01  0.17723737552E+02  0.00000000000E+00 0.  1.
         14    1    3    3    0    0 -0.42674983084E+02  0.24620787194E+03 -0.10629723231E+03  0.27154847078E+03  0.00000000000E+00 0. -1.
         11    1    5    5    0    0 -0.16667835834E+02 -0.10945169625E+02  0.91449651932E+01  0.21937271432E+02  0.00000000000E+00 0. -1.
        -12    1    5    5    0    0  0.39794297505E+02 -0.12551551553E+03  0.25916232346E+03  0.29069372310E+03  0.00000000000E+00 0.  1.
          5    1    4    4  501    0 -0.42791623001E+02 -0.59233624764E+02  0.30498851559E+02  0.79293112237E+02  0.41800000000E+01 0. -1.
         -5    1    4    4    0  501  0.77866174481E+02 -0.51215339506E+02 -0.35228030215E+01  0.93359705817E+02  0.41800000000E+01 0. -1.
</event>
<event>
11    1  0.7882745E-009  0.1703450E+03  0.7561462E-02  0.1077732E+00
         22   -1    0    0    0    0  0.00000000000E+00  0.00000000000E+00  0.48309346358E+03  0.48309346358E+03  0.00000000000E+00 0.  1.
         22   -1    0    0    0    0 -0.00000000000E+00 -0.00000000000E+00 -0.71499605831E+03  0.71499605831E+03  0.00000000000E+00 0. -1.
         24    2    1    2    0    0  0.10040208375E+03 -0.72640936989E+02 -0.55940744988E+03  0.57650310476E+03  0.63732649997E+02 0.  0.
         25    2    1    2    0    0 -0.61119652463E+02  0.49231208637E+02 -0.10376142776E+03  0.18048164445E+03  0.12509143165E+03 0.  0.
        -24    2    1    2    0    0 -0.39282431289E+02  0.23409728353E+02  0.43126628291E+03  0.44110477268E+03  0.80571017812E+02 0.  0.
        -11    1    3    3    0    0  0.12566567160E+02  0.11558958249E+02 -0.52952551892E+02  0.55637225648E+02  0.00000000000E+00 0.  1.
         12    1    3    3    0    0  0.87835516591E+02 -0.84199895239E+02 -0.50645489798E+03  0.52086587911E+03  0.00000000000E+00 0. -1.
         11    1    5    5    0    0  0.13552934327E+01  0.30352050173E+02  0.57152229632E+02  0.64726046704E+02  0.00000000000E+00 0. -1.
        -12    1    5    5    0    0 -0.40637724722E+02 -0.69423218204E+01  0.37411405328E+03  0.37637872597E+03  0.00000000000E+00 0.  1.
          5    1    4    4  501    0 -0.22908909238E+01  0.80540846039E+02 -0.51878746039E+02  0.95921596903E+02  0.41800000000E+01 0. -1.
         -5    1    4    4    0  501 -0.58828761539E+02 -0.31309637402E+02 -0.51882681723E+02  0.84560047547E+02  0.41800000000E+01 0. -1.
</event>
<event>
11    1  0.7882745E-009  0.1625792E+03  0.7561462E-02  0.1084676E+00
         22   -1    0    0    0    0  0.00000000000E+00  0.00000000000E+00  0.10825851578E+04  0.10825851578E+04  0.00000000000E+00 0.  1.
         22   -1    0    0    0    0 -0.00000000000E+00 -0.00000000000E+00 -0.11923630101E+03  0.11923630101E+03  0.00000000000E+00 0.  1.
         24    2    1    2    0    0 -0.52262626085E+02  0.84343622720E+02 -0.51849023175E+02  0.13779746094E+03  0.80340464641E+02 0.  0.
         25    2    1    2    0    0  0.86633918460E+02 -0.13116622745E+03  0.47455366134E+03  0.51532359400E+03  0.12508882441E+03 0.  0.
        -24    2    1    2    0    0 -0.34371292376E+02  0.46822604729E+02  0.54064421858E+03  0.54870040383E+03  0.73499796083E+02 0.  0.
        -11    1    3    3    0    0 -0.64633643092E+02  0.86925272729E+02 -0.58927629869E+02  0.12331251526E+03  0.00000000000E+00 0.  1.
         12    1    3    3    0    0  0.12371017008E+02 -0.25816500089E+01  0.70786066939E+01  0.14484945678E+02  0.00000000000E+00 0. -1.
         13    1    5    5    0    0  0.21614059620E+02  0.50278980032E+01  0.91359193317E+02  0.94015687707E+02  0.00000000000E+00 0. -1.
        -14    1    5    5    0    0 -0.55985351995E+02  0.41794706726E+02  0.44928502527E+03  0.45468471613E+03  0.00000000000E+00 0.  1.
          5    1    4    4  501    0  0.33195915773E+02  0.16620470420E+02  0.15166085701E+03  0.15619441991E+03  0.41800000000E+01 0. -1.
         -5    1    4    4    0  501  0.53438002687E+02 -0.14778669787E+03  0.32289280433E+03  0.35912917409E+03  0.41800000000E+01 0. -1.
</event>
<event>
11    1  0.7882745E-009  0.1487718E+03  0.7561462E-02  0.1098140E+00
         22   -1    0    0    0    0  0.00000000000E+00  0.00000000000E+00  0.19075773685E+04  0.19075773685E+04  0.00000000000E+00 0.  1.
         22   -1    0    0    0    0 -0.00000000000E+00 -0.00000000000E+00 -0.80588252679E+02  0.80588252679E+02  0.00000000000E+00 0.  1.
        -24    2    1    2    0    0 -0.54667497161E+02  0.12723636781E+02 -0.11816176410E+02  0.99204779444E+02  0.80941584250E+02 0.  0.
         25    2    1    2    0    0  0.11260099191E+03 -0.62500734007E+02  0.32734968076E+03  0.37335098580E+03  0.12509124659E+03 0.  0.
         24    2    1    2    0    0 -0.57933494749E+02  0.49777097226E+02  0.15114556114E+04  0.15156098559E+04  0.82104328386E+02 0.  0.
        -13    1    5    5    0    0 -0.56268244326E+02  0.35736711520E+02  0.14750460976E+04  0.14765514613E+04  0.00000000000E+00 0.  1.
         14    1    5    5    0    0 -0.16652504223E+01  0.14040385707E+02  0.36409513839E+02  0.39058394587E+02  0.00000000000E+00 0. -1.
         13    1    3    3    0    0 -0.15456449489E+02  0.41419403080E+01  0.34431091893E+02  0.37967849415E+02  0.00000000000E+00 0. -1.
        -14    1    3    3    0    0 -0.39211047672E+02  0.85816964732E+01 -0.46247268303E+02  0.61236930029E+02  0.00000000000E+00 0.  1.
          5    1    4    4  501    0  0.52023353728E+02 -0.51351037665E+02  0.48677850983E+02  0.87922488470E+02  0.41800000000E+01 0. -1.
         -5    1    4    4    0  501  0.60577638181E+02 -0.11149696342E+02  0.27867182978E+03  0.28542849733E+03  0.41800000000E+01 0. -1.
</event>
<event>
11    1  0.7882745E-009  0.1769938E+03  0.7561462E-02  0.1072101E+00
         22   -1    0    0    0    0  0.00000000000E+00  0.00000000000E+00  0.32547004263E+03  0.32547004263E+03  0.00000000000E+00 0.  1.
         22   -1    0    0    0    0 -0.00000000000E+00 -0.00000000000E+00 -0.72328731817E+03  0.72328731817E+03  0.00000000000E+00 0.  1.
         24    2    1    2    0    0 -0.13993879632E+02 -0.25719200506E+02 -0.61357421258E+03  0.61969138676E+03  0.81772822751E+02 0.  0.
         25    2    1    2    0    0 -0.73928780561E+02  0.11193858727E+03  0.21870643433E+02  0.18472054378E+03  0.12509053656E+03 0.  0.
        -24    2    1    2    0    0  0.87922660193E+02 -0.86219386764E+02  0.19388629361E+03  0.24434543026E+03  0.83358368553E+02 0.  0.
        -13    1    3    3    0    0 -0.14651702047E+02 -0.55202423355E+02 -0.42645335772E+03  0.43026090483E+03  0.00000000000E+00 0.  1.
         14    1    3    3    0    0  0.65782241517E+00  0.29483222849E+02 -0.18712085486E+03  0.18943048193E+03  0.00000000000E+00 0. -1.
         13    1    5    5    0    0  0.18536951174E+01  0.15186355075E+02  0.14958612781E+02  0.21396767569E+02  0.00000000000E+00 0. -1.
        -14    1    5    5    0    0  0.86068965076E+02 -0.10140574184E+03  0.17892768083E+03  0.22294866269E+03  0.00000000000E+00 0.  1.
          5    1    4    4  501    0 -0.55454197327E+02  0.28093040543E+00 -0.26460092713E+02  0.61586165893E+02  0.41800000000E+01 0.  1.
         -5    1    4    4    0  501 -0.18474583234E+02  0.11165765686E+03  0.48330736145E+02  0.12313437789E+03  0.41800000000E+01 0.  1.
</event>
<event>
11    1  0.8602716E-009  0.1390592E+03  0.7561462E-02  0.1108614E+00
         22   -1    0    0    0    0  0.00000000000E+00  0.00000000000E+00  0.26367886956E+03  0.26367886956E+03  0.00000000000E+00 0. -1.
         22   -1    0    0    0    0 -0.00000000000E+00 -0.00000000000E+00 -0.69349073941E+03  0.69349073941E+03  0.00000000000E+00 0.  1.
         24    2    1    2    0    0 -0.60449392692E+02 -0.13771515170E+02 -0.37354524532E+03  0.38712766710E+03  0.80548101333E+02 0.  0.
         25    2    1    2    0    0  0.10666311311E+03  0.49396202344E+02 -0.27531249523E+03  0.32443979251E+03  0.12508878618E+03 0.  0.
        -24    2    1    2    0    0 -0.46213720418E+02 -0.35624687174E+02  0.21904587070E+03  0.24560214936E+03  0.94522463001E+02 0.  0.
        -13    1    3    3    0    0 -0.66938461343E+02 -0.13707061109E+02 -0.37439862190E+03  0.38058240791E+03  0.00000000000E+00 0.  1.
         14    1    3    3    0    0  0.64890686512E+01 -0.64454061384E-01  0.85337658038E+00  0.65452591908E+01  0.00000000000E+00 0. -1.
         11    1    5    5    0    0  0.84880310140E+01 -0.47104361784E+01  0.15699306064E+03  0.15729289866E+03  0.00000000000E+00 0. -1.
        -12    1    5    5    0    0 -0.54701751432E+02 -0.30914250995E+02  0.62052810060E+02  0.88309250708E+02  0.00000000000E+00 0.  1.
          5    1    4    4  501    0  0.27869613348E+02  0.78455292694E+02 -0.17276925922E+03  0.19182970998E+03  0.41800000000E+01 0. -1.
         -5    1    4    4    0  501  0.78793499761E+02 -0.29059090350E+02 -0.10254323601E+03  0.13261008253E+03  0.41800000000E+01 0. -1.
</event>
<event>
11    1  0.7882745E-009  0.1597236E+03  0.7561462E-02  0.1087338E+00
         22   -1    0    0    0    0  0.00000000000E+00  0.00000000000E+00  0.39806820251E+03  0.39806820251E+03  0.00000000000E+00 0. -1.
         22   -1    0    0    0    0 -0.00000000000E+00 -0.00000000000E+00 -0.31284806953E+04  0.31284806953E+04  0.00000000000E+00 0. -1.
        -24    2    1    2    0    0 -0.25367847765E+02 -0.31586836752E+02 -0.22423279141E+04  0.22440107901E+04  0.76868039432E+02 0.  0.
         25    2    1    2    0    0 -0.44410888350E+02 -0.39751383216E+02 -0.86945552596E+03  0.88042766001E+03  0.12508978145E+03 0.  0.
         24    2    1    2    0    0  0.69778736115E+02  0.71338219969E+02  0.38137094730E+03  0.40211044772E+03  0.79314557813E+02 0.  0.
        -13    1    5    5    0    0 -0.14182227571E+02  0.29159888041E+02  0.12235491896E+03  0.12657867452E+03  0.00000000000E+00 0.  1.
         14    1    5    5    0    0  0.83960963687E+02  0.42178331928E+02  0.25901602834E+03  0.27553177321E+03  0.00000000000E+00 0. -1.
         13    1    3    3    0    0 -0.68022671877E+01 -0.19528045570E+02 -0.20880721916E+04  0.20881745839E+04  0.00000000000E+00 0. -1.
        -14    1    3    3    0    0 -0.18565580577E+02 -0.12058791183E+02 -0.15425572254E+03  0.15583620620E+03  0.00000000000E+00 0.  1.
          5    1    4    4  501    0 -0.46620473208E+02 -0.21995336348E+02 -0.11906516242E+03  0.12981235937E+03  0.41800000000E+01 0.  1.
         -5    1    4    4    0  501  0.22095848578E+01 -0.17756046869E+02 -0.75039036354E+03  0.75061530064E+03  0.41800000000E+01 0.  1.
</event>
<event>
11    1  0.7882745E-009  0.2490057E+03  0.7561462E-02  0.1024430E+00
         22   -1    0    0    0    0  0.00000000000E+00  0.00000000000E+00  0.27019492095E+04  0.27019492095E+04  0.00000000000E+00 0. -1.
         22   -1    0    0    0    0 -0.00000000000E+00 -0.00000000000E+00 -0.52546434379E+03  0.52546434379E+03  0.00000000000E+00 0.  1.
        -24    2    1    2    0    0  0.29086188444E+02  0.14651147764E+02 -0.38608143622E+03  0.39593676631E+03  0.81525364342E+02 0.  0.
         25    2    1    2    0    0 -0.33358843244E+02 -0.22928700487E+03  0.55079507392E+01  0.26336713162E+03  0.12508623215E+03 0.  0.
         24    2    1    2    0    0  0.42726548000E+01  0.21463585711E+03  0.25570583512E+04  0.25681096553E+04  0.10272771674E+03 0.  0.
        -13    1    5    5    0    0  0.10723591940E+02  0.87111556847E+01  0.34671489515E+02  0.37322805932E+02  0.00000000000E+00 0.  1.
         14    1    5    5    0    0 -0.64509371402E+01  0.20592470142E+03  0.25223868617E+04  0.25307868494E+04  0.00000000000E+00 0. -1.
         13    1    3    3    0    0 -0.94538209796E+00  0.46487926571E+01  0.29718490071E+01  0.55979377454E+01  0.00000000000E+00 0. -1.
        -14    1    3    3    0    0  0.30031570542E+02  0.10002355107E+02 -0.38905328523E+03  0.39033882856E+03  0.00000000000E+00 0.  1.
          5    1    4    4  501    0 -0.53132656637E+02 -0.23545677409E+03 -0.44226688901E+00  0.24141383487E+03  0.41800000000E+01 0. -1.
         -5    1    4    4    0  501  0.19773813393E+02  0.61697692233E+01  0.59502176282E+01  0.21953296750E+02  0.41800000000E+01 0. -1.
</event>
<event>
11    1  0.7882745E-009  0.2310148E+03  0.7561462E-02  0.1034529E+00
         22   -1    0    0    0    0  0.00000000000E+00  0.00000000000E+00  0.94548863002E+02  0.94548863002E+02  0.00000000000E+00 0.  1.
         22   -1    0    0    0    0 -0.00000000000E+00 -0.00000000000E+00 -0.17665133691E+04  0.17665133691E+04  0.00000000000E+00 0. -1.
        -24    2    1    2    0    0  0.78354497926E+02 -0.50581598392E+02 -0.10894753237E+04  0.10963499499E+04  0.79553794795E+02 0.  0.
         25    2    1    2    0    0 -0.23895600871E+03  0.10544559464E+03 -0.44931259359E+03  0.53455434589E+03  0.12509114444E+03 0.  0.
         24    2    1    2    0    0  0.16060151079E+03 -0.54863996243E+02 -0.13317658879E+03  0.23015793630E+03  0.80210775385E+02 0.  0.
        -11    1    5    5    0    0  0.11245729797E+03 -0.70231810939E+02 -0.11773186417E+03  0.17731312127E+03  0.00000000000E+00 0.  1.
         12    1    5    5    0    0  0.48144212818E+02  0.15367814695E+02 -0.15444724619E+02  0.52844815024E+02  0.00000000000E+00 0. -1.
         13    1    3    3    0    0  0.94044624479E+02 -0.50218437125E+02 -0.92316971172E+03  0.92930543927E+03  0.00000000000E+00 0. -1.
        -14    1    3    3    0    0 -0.15690126553E+02 -0.36316126723E+00 -0.16630561198E+03  0.16704451063E+03  0.00000000000E+00 0.  1.
          5    1    4    4  501    0 -0.24569214428E+03  0.10099194025E+03 -0.45266036730E+03  0.52486463234E+03  0.41800000000E+01 0. -1.
         -5    1    4    4    0  501  0.67361355722E+01  0.44536543879E+01  0.33477737057E+01  0.96897135478E+01  0.41800000000E+01 0. -1.
</event>
<event>
11    1  0.7882745E-009  0.2240337E+03  0.7561462E-02  0.1038720E+00
         22   -1    0    0    0    0  0.00000000000E+00  0.00000000000E+00  0.90815435621E+03  0.90815435621E+03  0.00000000000E+00 0.  1.
         22   -1    0    0    0    0 -0.00000000000E+00 -0.00000000000E+00 -0.25146262734E+03  0.25146262734E+03  0.00000000000E+00 0. -1.
        -24    2    1    2    0    0 -0.32849979052E+02  0.18322969919E+03 -0.15965983650E+03  0.25794479499E+03  0.79950047420E+02 0.  0.
         25    2    1    2    0    0  0.48732766580E+02 -0.17806987039E+03  0.27967607644E+03  0.35770035004E+03  0.12508825448E+03 0.  0.
         24    2    1    2    0    0 -0.15882787528E+02 -0.51598287980E+01  0.53667548892E+03  0.54397183852E+03  0.87211776245E+02 0.  0.
        -13    1    5    5    0    0 -0.74990866684E+01 -0.99294047377E+01  0.53374639794E+03  0.53389141845E+03  0.00000000000E+00 0.  1.
         14    1    5    5    0    0 -0.83837008599E+01  0.47695759397E+01  0.29290909823E+01  0.10080420067E+02  0.00000000000E+00 0. -1.
         13    1    3    3    0    0 -0.46176478578E+02  0.11586119367E+03 -0.13782963676E+03  0.18588462050E+03  0.00000000000E+00 0. -1.
        -14    1    3    3    0    0  0.13326499527E+02  0.67368505521E+02 -0.21830199742E+02  0.72060174483E+02  0.00000000000E+00 0.  1.
          5    1    4    4  501    0  0.14519006408E+01 -0.16877206854E+03  0.17928622153E+03  0.24626640202E+03  0.41800000000E+01 0.  1.
         -5    1    4    4    0  501  0.47280865939E+02 -0.92978018519E+01  0.10038985491E+03  0.11143394803E+03  0.41800000000E+01 0.  1.
</event>
<event>
11    1  0.7882745E-009  0.1406028E+03  0.7561462E-02  0.1106887E+00
         22   -1    0    0    0    0  0.00000000000E+00  0.00000000000E+00  0.53989586956E+03  0.53989586956E+03  0.00000000000E+00 0.  1.
         22   -1    0    0    0    0 -0.00000000000E+00 -0.00000000000E+00 -0.13279329079E+04  0.13279329079E+04  0.00000000000E+00 0. -1.
        -24    2    1    2    0    0  0.26960853021E+02  0.31466543881E+02 -0.12851435176E+04  0.12883418644E+04  0.80708536305E+02 0.  0.
         25    2    1    2    0    0 -0.40736966055E+02 -0.87659420747E+02  0.14839835611E+03  0.21682577823E+03  0.12509065337E+03 0.  0.
         24    2    1    2    0    0  0.13776113034E+02  0.56192876866E+02  0.34870812314E+03  0.36266113482E+03  0.81106860787E+02 0.  0.
        -13    1    5    5    0    0 -0.15217630454E+01  0.64899182422E+02  0.15352268216E+03  0.16668363321E+03  0.00000000000E+00 0.  1.
         14    1    5    5    0    0  0.15297876079E+02 -0.87063055562E+01  0.19518544097E+03  0.19597750161E+03  0.00000000000E+00 0. -1.
         11    1    3    3    0    0 -0.10877869515E+01  0.42542809925E+02 -0.10945812975E+04  0.10954082758E+04  0.00000000000E+00 0. -1.
        -12    1    3    3    0    0  0.28048639972E+02 -0.11076266044E+02 -0.19056222006E+03  0.19293358855E+03  0.00000000000E+00 0.  1.
          5    1    4    4  501    0  0.22335340735E+02 -0.58170135510E+02  0.13071631921E+03  0.14486842519E+03  0.41800000000E+01 0.  1.
         -5    1    4    4    0  501 -0.63072306791E+02 -0.29489285236E+02  0.17682036907E+02  0.71957353042E+02  0.41800000000E+01 0.  1.
</event>
<event>
11    1  0.7882745E-009  0.1511483E+03  0.7561462E-02  0.1095711E+00
         22   -1    0    0    0    0  0.00000000000E+00  0.00000000000E+00  0.94858947358E+03  0.94858947358E+03  0.00000000000E+00 0.  1.
         22   -1    0    0    0    0 -0.00000000000E+00 -0.00000000000E+00 -0.18561769507E+04  0.18561769507E+04  0.00000000000E+00 0. -1.
        -24    2    1    2    0    0 -0.13943203663E+02  0.23772504483E+01 -0.15655216789E+04  0.15671059601E+04  0.69013756946E+02 0.  0.
         25    2    1    2    0    0 -0.35919565843E+02  0.66428485690E+02 -0.26753596918E+03  0.30483684563E+03  0.12508816381E+03 0.  0.
         24    2    1    2    0    0  0.49862769506E+02 -0.68805736138E+02  0.92547017097E+03  0.93282361860E+03  0.80276652572E+02 0.  0.
        -13    1    5    5    0    0  0.40722643148E+02 -0.29206969584E+02  0.78485933576E+03  0.78645760068E+03  0.00000000000E+00 0.  1.
         14    1    5    5    0    0  0.91401263584E+01 -0.39598766554E+02  0.14061083521E+03  0.14636601792E+03  0.00000000000E+00 0. -1.
         13    1    3    3    0    0 -0.30569969039E+02  0.17493265437E+02 -0.45652914761E+03  0.45788579358E+03  0.00000000000E+00 0. -1.
        -14    1    3    3    0    0  0.16626765376E+02 -0.15116014988E+02 -0.11089925313E+04  0.11092201665E+04  0.00000000000E+00 0.  1.
          5    1    4    4  501    0  0.16728365628E+02  0.48477406774E+02 -0.23434721501E+03  0.23992912863E+03  0.41800000000E+01 0. -1.
         -5    1    4    4    0  501 -0.52647931471E+02  0.17951078915E+02 -0.33188754178E+02  0.64907717001E+02  0.41800000000E+01 0. -1.
</event>
<event>
11    1  0.7882745E-009  0.3510225E+03  0.7561462E-02  0.9806461E-01
         22   -1    0    0    0    0  0.00000000000E+00  0.00000000000E+00  0.53558446031E+03  0.53558446031E+03  0.00000000000E+00 0. -1.
         22   -1    0    0    0    0 -0.00000000000E+00 -0.00000000000E+00 -0.14103516027E+04  0.14103516027E+04  0.00000000000E+00 0. -1.
        -24    2    1    2    0    0 -0.19021243889E+02 -0.30780557169E+01 -0.80631953606E+03  0.81056634129E+03  0.80593531091E+02 0.  0.
         25    2    1    2    0    0 -0.20693189754E+03  0.24228659640E+03 -0.48796176321E+03  0.59605098327E+03  0.12508591960E+03 0.  0.
         24    2    1    2    0    0  0.22595314143E+03 -0.23920854069E+03  0.41951415684E+03  0.53931873848E+03  0.81222077251E+02 0.  0.
        -11    1    5    5    0    0  0.46806384636E+02 -0.10465556485E+03  0.13261999947E+03  0.17530456114E+03  0.00000000000E+00 0.  1.
         12    1    5    5    0    0  0.17914675680E+03 -0.13455297584E+03  0.28689415737E+03  0.36401417735E+03  0.00000000000E+00 0. -1.
         11    1    3    3    0    0 -0.22203395280E+02  0.35172395326E+02 -0.52422630789E+03  0.52587385373E+03  0.00000000000E+00 0. -1.
        -12    1    3    3    0    0  0.31821513916E+01 -0.38250451043E+02 -0.28209322817E+03  0.28469248756E+03  0.00000000000E+00 0.  1.
          5    1    4    4  501    0 -0.14407742135E+03  0.22386865338E+03 -0.32352383196E+03  0.41899954600E+03  0.41800000000E+01 0. -1.
         -5    1    4    4    0  501 -0.62854476195E+02  0.18417943027E+02 -0.16443793125E+03  0.17705143726E+03  0.41800000000E+01 0. -1.
</event>
<event>
11    1  0.7882745E-009  0.1554166E+03  0.7561462E-02  0.1091469E+00
         22   -1    0    0    0    0  0.00000000000E+00  0.00000000000E+00  0.12399683512E+04  0.12399683512E+04  0.00000000000E+00 0.  1.
         22   -1    0    0    0    0 -0.00000000000E+00 -0.00000000000E+00 -0.13396014421E+04  0.13396014421E+04  0.00000000000E+00 0. -1.
        -24    2    1    2    0    0  0.27996718367E+02  0.62209325865E+02 -0.12814220041E+04  0.12857455321E+04  0.80283275624E+02 0.  0.
         25    2    1    2    0    0  0.26013458108E+02 -0.13440844389E+03  0.11071642484E+03  0.21598118299E+03  0.12508962741E+03 0.  0.
         24    2    1    2    0    0 -0.54010176475E+02  0.72199118020E+02  0.10710724883E+04  0.10778430782E+04  0.80122495154E+02 0.  0.
        -11    1    5    5    0    0 -0.63389278047E+02  0.69747351033E+02  0.66404109137E+03  0.67069625359E+03  0.00000000000E+00 0.  1.
         12    1    5    5    0    0  0.93791015723E+01  0.24517669872E+01  0.40703139695E+03  0.40714682463E+03  0.00000000000E+00 0. -1.
         13    1    3    3    0    0  0.15645359144E+02  0.36717842551E+02 -0.11731738477E+04  0.11738525692E+04  0.00000000000E+00 0. -1.
        -14    1    3    3    0    0  0.12351359223E+02  0.25491483314E+02 -0.10824815640E+03  0.11189296296E+03  0.00000000000E+00 0.  1.
          5    1    4    4  501    0  0.41076034987E+02 -0.15132030245E+03  0.11228196830E+03  0.19289838618E+03  0.41800000000E+01 0.  1.
         -5    1    4    4    0  501 -0.15062576879E+02  0.16911858567E+02 -0.15655434600E+01  0.23082796814E+02  0.41800000000E+01 0.  1.
</event>
<event>
11    1  0.7882745E-009  0.1905490E+03  0.7561462E-02  0.1061416E+00
         22   -1    0    0    0    0  0.00000000000E+00  0.00000000000E+00  0.18802193197E+03  0.18802193197E+03  0.00000000000E+00 0. -1.
         22   -1    0    0    0    0 -0.00000000000E+00 -0.00000000000E+00 -0.57715572396E+03  0.57715572396E+03  0.00000000000E+00 0.  1.
         24    2    1    2    0    0  0.11768801111E+03  0.85883549344E+02 -0.36756994579E+03  0.40324764565E+03  0.79212036153E+02 0.  0.
         25    2    1    2    0    0 -0.10632429876E+03 -0.88950264298E+02 -0.12964575616E+03  0.22731536695E+03  0.12508896009E+03 0.  0.
        -24    2    1    2    0    0 -0.11363712349E+02  0.30667149546E+01  0.10808190996E+03  0.13461464333E+03  0.79377983337E+02 0.  0.
        -11    1    3    3    0    0  0.50943188353E+02  0.65873978324E+02 -0.27532690169E+03  0.28764473271E+03  0.00000000000E+00 0.  1.
         12    1    3    3    0    0  0.66744822758E+02  0.20009571020E+02 -0.92243044100E+02  0.11560291295E+03  0.00000000000E+00 0. -1.
         11    1    5    5    0    0 -0.11988747470E+02 -0.34082463127E+02  0.80830452267E+02  0.88537598637E+02  0.00000000000E+00 0. -1.
        -12    1    5    5    0    0  0.62503512103E+00  0.37149178081E+02  0.27251457692E+02  0.46077044690E+02  0.00000000000E+00 0.  1.
          5    1    4    4  501    0  0.29934785978E+01 -0.29395103521E+02 -0.92713272711E+02  0.97397414554E+02  0.41800000000E+01 0. -1.
         -5    1    4    4    0  501 -0.10931777736E+03 -0.59555160777E+02 -0.36932483448E+02  0.12991795240E+03  0.41800000000E+01 0. -1.
</event>
<event>
11    1  0.7882745E-009  0.1467736E+03  0.7561462E-02  0.1100222E+00
         22   -1    0    0    0    0  0.00000000000E+00  0.00000000000E+00  0.32897207065E+04  0.32897207065E+04  0.00000000000E+00 0.  1.
         22   -1    0    0    0    0 -0.00000000000E+00 -0.00000000000E+00 -0.14627922826E+03  0.14627922826E+03  0.00000000000E+00 0.  1.
        -24    2    1    2    0    0  0.52587167468E+02 -0.55425672355E+02 -0.11826090374E+03  0.16292189475E+03  0.81978577063E+02 0.  0.
         25    2    1    2    0    0 -0.72915654995E+02  0.67137454264E+02  0.13060433090E+04  0.13157585777E+04  0.12508948493E+03 0.  0.
         24    2    1    2    0    0  0.20328487526E+02 -0.11711781909E+02  0.19556590730E+04  0.19573194623E+04  0.77114555351E+02 0.  0.
        -13    1    5    5    0    0  0.42742977467E+02 -0.16058212292E+02  0.17079885920E+04  0.17085987998E+04  0.00000000000E+00 0.  1.
         14    1    5    5    0    0 -0.22414489941E+02  0.43464303833E+01  0.24767048100E+03  0.24872066254E+03  0.00000000000E+00 0. -1.
         11    1    3    3    0    0  0.13282076275E+02  0.10983558980E+02  0.45978575181E+01  0.17837948643E+02  0.00000000000E+00 0. -1.
        -12    1    3    3    0    0  0.39305091194E+02 -0.66409231335E+02 -0.12285876126E+03  0.14508394611E+03  0.00000000000E+00 0.  1.
          5    1    4    4  501    0 -0.70175532333E+02 -0.67272956342E+01  0.36248457576E+03  0.36929988074E+03  0.41800000000E+01 0.  1.
         -5    1    4    4    0  501 -0.27401226610E+01  0.73864749898E+02  0.94355873326E+03  0.94645869697E+03  0.41800000000E+01 0.  1.
</event>
<event>
11    1  0.7882745E-009  0.1349014E+03  0.7561462E-02  0.1113389E+00
         22   -1    0    0    0    0  0.00000000000E+00  0.00000000000E+00  0.48990397917E+03  0.48990397917E+03  0.00000000000E+00 0. -1.
         22   -1    0    0    0    0 -0.00000000000E+00 -0.00000000000E+00 -0.43914829705E+03  0.43914829705E+03  0.00000000000E+00 0. -1.
        -24    2    1    2    0    0 -0.41570383871E+02 -0.22290871500E+02 -0.30381011362E+03  0.31900643528E+03  0.85085491376E+02 0.  0.
         25    2    1    2    0    0  0.66715707462E+02  0.20252348197E+02 -0.82589615907E+02  0.16531767390E+03  0.12509094859E+03 0.  0.
         24    2    1    2    0    0 -0.25145323591E+02  0.20385233027E+01  0.43715541165E+03  0.44472816704E+03  0.77729310776E+02 0.  0.
        -11    1    5    5    0    0  0.38327056578E+01 -0.34068544812E+02  0.15028282024E+03  0.15414370385E+03  0.00000000000E+00 0.  1.
         12    1    5    5    0    0 -0.28978029249E+02  0.36107068115E+02  0.28687259141E+03  0.29058446319E+03  0.00000000000E+00 0. -1.
         13    1    3    3    0    0 -0.64149791629E+02 -0.31749328230E+00 -0.22940214862E+03  0.23820294364E+03  0.00000000000E+00 0. -1.
        -14    1    3    3    0    0  0.22579407758E+02 -0.21973378217E+02 -0.74407965002E+02  0.80803491637E+02  0.00000000000E+00 0.  1.
          5    1    4    4  501    0  0.72778144017E+02 -0.39496564004E+02 -0.50857659882E+02  0.97265671145E+02  0.41800000000E+01 0.  1.
         -5    1    4    4    0  501 -0.60624365553E+01  0.59748912201E+02 -0.31731956025E+02  0.68052002757E+02  0.41800000000E+01 0.  1.
</event>
<event>
11    1  0.7882745E-009  0.2394555E+03  0.7561462E-02  0.1029671E+00
         22   -1    0    0    0    0  0.00000000000E+00  0.00000000000E+00  0.19446181830E+04  0.19446181830E+04  0.00000000000E+00 0.  1.
         22   -1    0    0    0    0 -0.00000000000E+00 -0.00000000000E+00 -0.66344243945E+02  0.66344243945E+02  0.00000000000E+00 0. -1.
         24    2    1    2    0    0  0.19459757170E+03  0.30443410632E+02  0.19753870114E+03  0.29056979192E+03  0.81328035562E+02 0.  0.
         25    2    1    2    0    0 -0.23859349495E+03 -0.14627910466E+02  0.11343017983E+04  0.11659457412E+04  0.12509224661E+03 0.  0.
        -24    2    1    2    0    0  0.43995923245E+02 -0.15815500166E+02  0.54643343966E+03  0.55444689389E+03  0.81462155927E+02 0.  0.
        -13    1    3    3    0    0  0.81201096811E+02 -0.21779226266E+02  0.52137187620E+02  0.98925422177E+02  0.00000000000E+00 0.  1.
         14    1    3    3    0    0  0.11339647489E+03  0.52222636898E+02  0.14540151352E+03  0.19164436974E+03  0.00000000000E+00 0. -1.
         13    1    5    5    0    0  0.29333556783E+02 -0.33797965444E+02  0.13230145371E+03  0.13966543837E+03  0.00000000000E+00 0. -1.
        -14    1    5    5    0    0  0.14662366462E+02  0.17982465279E+02  0.41413198596E+03  0.41478145551E+03  0.00000000000E+00 0.  1.
          5    1    4    4  501    0 -0.13723719813E+03 -0.69335125591E+02  0.69029040136E+03  0.70721971041E+03  0.41800000000E+01 0.  1.
         -5    1    4    4    0  501 -0.10135629682E+03  0.54707215125E+02  0.44401139693E+03  0.45872603076E+03  0.41800000000E+01 0.  1.
</event>
<event>
11    1  0.7882745E-009  0.1534628E+03  0.7561462E-02  0.1093392E+00
         22   -1    0    0    0    0  0.00000000000E+00  0.00000000000E+00  0.78530897912E+02  0.78530897912E+02  0.00000000000E+00 0.  1.
         22   -1    0    0    0    0 -0.00000000000E+00 -0.00000000000E+00 -0.16717117542E+04  0.16717117542E+04  0.00000000000E+00 0.  1.
         24    2    1    2    0    0 -0.87136360848E+02  0.69651747711E+01 -0.13781240539E+04  0.13829074502E+04  0.74604618008E+02 0.  0.
         25    2    1    2    0    0  0.10372798867E+03 -0.73017931834E+02 -0.19081587169E+03  0.26105461092E+03  0.12509076301E+03 0.  0.
        -24    2    1    2    0    0 -0.16591627825E+02  0.66052757063E+02 -0.24240930717E+02  0.10628059094E+03  0.77908231014E+02 0.  0.
        -11    1    3    3    0    0 -0.34886581277E+02  0.23413838278E+02 -0.99506153610E+03  0.99594816231E+03  0.00000000000E+00 0.  1.
         12    1    3    3    0    0 -0.52249779571E+02 -0.16448663507E+02 -0.38306251778E+03  0.38695928794E+03  0.00000000000E+00 0. -1.
         13    1    5    5    0    0  0.16619096588E+02  0.18874626250E+02 -0.39295341541E+02  0.46653721762E+02  0.00000000000E+00 0. -1.
        -14    1    5    5    0    0 -0.33210724412E+02  0.47178130813E+02  0.15054410824E+02  0.59626869181E+02  0.00000000000E+00 0.  1.
          5    1    4    4  501    0  0.15934546994E+02 -0.79264205407E+02 -0.13287968662E+03  0.15559951016E+03  0.41800000000E+01 0.  1.
         -5    1    4    4    0  501  0.87793441678E+02  0.62462735725E+01 -0.57936185072E+02  0.10545510076E+03  0.41800000000E+01 0.  1.
</event>
<event>
11    1  0.7882745E-009  0.1496775E+03  0.7561462E-02  0.1097209E+00
         22   -1    0    0    0    0  0.00000000000E+00  0.00000000000E+00  0.18326210865E+04  0.18326210865E+04  0.00000000000E+00 0. -1.
         22   -1    0    0    0    0 -0.00000000000E+00 -0.00000000000E+00 -0.42805199023E+03  0.42805199023E+03  0.00000000000E+00 0. -1.
        -24    2    1    2    0    0  0.41127015000E+02  0.67476160349E+02 -0.35946851297E+03  0.37648814161E+03  0.79254308264E+02 0.  0.
         25    2    1    2    0    0 -0.72109541939E+02 -0.11641829543E+03  0.88292953215E+02  0.20541693151E+03  0.12508982618E+03 0.  0.
         24    2    1    2    0    0  0.30982526939E+02  0.48942135082E+02  0.16757446560E+04  0.16787680036E+04  0.82380872665E+02 0.  0.
        -13    1    5    5    0    0 -0.22798306151E+02  0.30702128808E+02  0.41918404959E+03  0.42092475682E+03  0.00000000000E+00 0.  1.
         14    1    5    5    0    0  0.53780833090E+02  0.18240006274E+02  0.12565606064E+04  0.12578432468E+04  0.00000000000E+00 0. -1.
         11    1    3    3    0    0  0.42790750335E+02  0.19817342100E+02 -0.27894576195E+03  0.28290371767E+03  0.00000000000E+00 0. -1.
        -12    1    3    3    0    0 -0.16637353353E+01  0.47658818250E+02 -0.80522751014E+02  0.93584423934E+02  0.00000000000E+00 0.  1.
          5    1    4    4  501    0  0.15431658533E+02 -0.17563188763E+02  0.67656477828E+02  0.71704065970E+02  0.41800000000E+01 0.  1.
         -5    1    4    4    0  501 -0.87541200472E+02 -0.98855106669E+02  0.20636475387E+02  0.13371286554E+03  0.41800000000E+01 0.  1.
</event>
<event>
11    1  0.7882745E-009  0.2280232E+03  0.7561462E-02  0.1036305E+00
         22   -1    0    0    0    0  0.00000000000E+00  0.00000000000E+00  0.10760100977E+04  0.10760100977E+04  0.00000000000E+00 0.  1.
         22   -1    0    0    0    0 -0.00000000000E+00 -0.00000000000E+00 -0.77799033187E+03  0.77799033187E+03  0.00000000000E+00 0.  1.
        -24    2    1    2    0    0 -0.37422057469E+02 -0.26546640331E+02 -0.47598169722E+03  0.48475236148E+03  0.79505605951E+02 0.  0.
         25    2    1    2    0    0 -0.93038186448E+02 -0.11459741989E+03 -0.25475470842E+03  0.31990025813E+03  0.12509013114E+03 0.  0.
         24    2    1    2    0    0  0.13046024392E+03  0.14114406022E+03  0.10287561714E+04  0.10493478099E+04  0.76485586413E+02 0.  0.
        -13    1    5    5    0    0  0.10465773583E+03  0.10499945180E+03  0.92009538087E+03  0.93196225055E+03  0.00000000000E+00 0.  1.
         14    1    5    5    0    0  0.25802508085E+02  0.36144608426E+02  0.10866079056E+03  0.11738555936E+03  0.00000000000E+00 0. -1.
         13    1    3    3    0    0 -0.15617261012E+02 -0.53164329537E+02 -0.33995632016E+03  0.34444251247E+03  0.00000000000E+00 0. -1.
        -14    1    3    3    0    0 -0.21804796457E+02  0.26617689207E+02 -0.13602537705E+03  0.14030984901E+03  0.00000000000E+00 0.  1.
          5    1    4    4  501    0  0.17992954620E+02  0.14219123727E+02 -0.33322107957E+02  0.40666511705E+02  0.41800000000E+01 0. -1.
         -5    1    4    4    0  501 -0.11103114107E+03 -0.12881654362E+03 -0.22143260046E+03  0.27923374643E+03  0.41800000000E+01 0. -1.
</event>
<event>
11    1  0.7882745E-009  0.1667658E+03  0.7561462E-02  0.1080881E+00
         22   -1    0    0    0    0  0.00000000000E+00  0.00000000000E+00  0.12586510764E+04  0.12586510764E+04  0.00000000000E+00 0.  1.
         22   -1    0    0    0    0 -0.00000000000E+00 -0.00000000000E+00 -0.73635564991E+02  0.73635564991E+02  0.00000000000E+00 0. -1.
        -24    2    1    2    0    0 -0.66103446931E+01  0.30107705176E+02 -0.14479729416E+02  0.85343850485E+02  0.78254326933E+02 0.  0.
         25    2    1    2    0    0  0.84191490165E+02  0.54222175740E+02  0.34470630822E+03  0.38012788505E+03  0.12508604522E+03 0.  0.
         24    2    1    2    0    0 -0.77581145472E+02 -0.84329880916E+02  0.85478893261E+03  0.86681490586E+03  0.87026425653E+02 0.  0.
        -13    1    5    5    0    0 -0.85674299207E+02 -0.32943314916E+02  0.55926217603E+03  0.56674467715E+03  0.00000000000E+00 0.  1.
         14    1    5    5    0    0  0.80931537349E+01 -0.51386566001E+02  0.29552675658E+03  0.30007022871E+03  0.00000000000E+00 0. -1.
         11    1    3    3    0    0 -0.20833538688E+02  0.24922923780E+02 -0.42501848713E+02  0.53493883838E+02  0.00000000000E+00 0. -1.
        -12    1    3    3    0    0  0.14223193995E+02  0.51847813958E+01  0.28022119297E+02  0.31849966647E+02  0.00000000000E+00 0.  1.
          5    1    4    4  501    0 -0.31131200485E+02  0.99958720269E+01  0.43686420049E+02  0.54727002457E+02  0.41800000000E+01 0.  1.
         -5    1    4    4    0  501  0.11532269065E+03  0.44226303713E+02  0.30101988817E+03  0.32540088259E+03  0.41800000000E+01 0.  1.
</event>
<event>
11    1  0.7882745E-009  0.1279609E+03  0.7561462E-02  0.1121800E+00
         22   -1    0    0    0    0  0.00000000000E+00  0.00000000000E+00  0.71500384166E+03  0.71500384166E+03  0.00000000000E+00 0. -1.
         22   -1    0    0    0    0 -0.00000000000E+00 -0.00000000000E+00 -0.31594503619E+03  0.31594503619E+03  0.00000000000E+00 0.  1.
         24    2    1    2    0    0  0.13617679568E+02 -0.12150564523E+01 -0.21898724573E+03  0.23345683446E+03  0.79748117266E+02 0.  0.
         25    2    1    2    0    0 -0.59231517752E+01 -0.24820572703E+02 -0.39961231582E+02  0.13376652561E+03  0.12508172844E+03 0.  0.
        -24    2    1    2    0    0 -0.76945277923E+01  0.26035629155E+02  0.65800728278E+03  0.66372551777E+03  0.82588855279E+02 0.  0.
        -13    1    3    3    0    0 -0.20597264638E+02 -0.12182937152E+02 -0.17514655540E+03  0.17677383046E+03  0.00000000000E+00 0.  1.
         14    1    3    3    0    0  0.34214944205E+02  0.10967880700E+02 -0.43840690324E+02  0.56683003997E+02  0.00000000000E+00 0. -1.
         13    1    5    5    0    0  0.22551007290E+02 -0.19886155272E+02  0.30254325140E+03  0.30403359365E+03  0.00000000000E+00 0. -1.
        -14    1    5    5    0    0 -0.30245535082E+02  0.45921784427E+02  0.35546403138E+03  0.35969192412E+03  0.00000000000E+00 0.  1.
          5    1    4    4  501    0  0.50067458176E+02  0.21172223526E+02 -0.10981262655E+02  0.55615411055E+02  0.41800000000E+01 0. -1.
         -5    1    4    4    0  501 -0.55990609952E+02 -0.45992796229E+02 -0.28979968927E+02  0.78151114558E+02  0.41800000000E+01 0. -1.
</event>
<event>
11    1  0.7882745E-009  0.1432057E+03  0.7561462E-02  0.1104031E+00
         22   -1    0    0    0    0  0.00000000000E+00  0.00000000000E+00  0.36486641941E+04  0.36486641941E+04  0.00000000000E+00 0. -1.
         22   -1    0    0    0    0 -0.00000000000E+00 -0.00000000000E+00 -0.30280238723E+03  0.30280238723E+03  0.00000000000E+00 0. -1.
         24    2    1    2    0    0  0.38050230848E+02 -0.90025721426E+01 -0.16448505350E+03  0.18710290545E+03  0.80145480406E+02 0.  0.
         25    2    1    2    0    0 -0.50842244556E+02  0.77447841752E+02 -0.78252821087E+02  0.17422008610E+03  0.12508410118E+03 0.  0.
        -24    2    1    2    0    0  0.12792013708E+02 -0.68445269609E+02  0.35885996814E+04  0.35901435898E+04  0.78961579398E+02 0.  0.
        -13    1    3    3    0    0 -0.17927160830E+02 -0.83640112575E+01 -0.87857940125E+01  0.21645552804E+02  0.00000000000E+00 0.  1.
         14    1    3    3    0    0  0.55977391678E+02 -0.63856088510E+00 -0.15569925949E+03  0.16545735264E+03  0.00000000000E+00 0. -1.
         13    1    5    5    0    0 -0.18885691789E+02 -0.62478829027E+02  0.29584966761E+04  0.29592165950E+04  0.00000000000E+00 0. -1.
        -14    1    5    5    0    0  0.31677705498E+02 -0.59664405821E+01  0.63010300532E+03  0.63092699479E+03  0.00000000000E+00 0.  1.
          5    1    4    4  501    0 -0.77142717686E+01 -0.25035841088E+02  0.13715349343E+02  0.29864469450E+02  0.41800000000E+01 0. -1.
         -5    1    4    4    0  501 -0.43127972788E+02  0.10248368284E+03 -0.91968170430E+02  0.14435561665E+03  0.41800000000E+01 0. -1.
</event>
<event>
11    1  0.7882745E-009  0.1560273E+03  0.7561462E-02  0.1090874E+00
         22   -1    0    0    0    0  0.00000000000E+00  0.00000000000E+00  0.19612398552E+04  0.19612398552E+04  0.00000000000E+00 0. -1.
         22   -1    0    0    0    0 -0.00000000000E+00 -0.00000000000E+00 -0.47337365554E+03  0.47337365554E+03  0.00000000000E+00 0.  1.
        -24    2    1    2    0    0  0.39001930407E+02  0.20574677950E+02 -0.43936514796E+03  0.44924329333E+03  0.82663991041E+02 0.  0.
         25    2    1    2    0    0 -0.23319647983E+02 -0.11140034849E+03  0.23929148691E+03  0.29302169842E+03  0.12508979339E+03 0.  0.
         24    2    1    2    0    0 -0.15682282424E+02  0.90825670536E+02  0.16879398608E+04  0.16923485190E+04  0.80045611743E+02 0.  0.
        -11    1    5    5    0    0  0.26359587337E+02  0.14803673322E+02  0.25660201997E+03  0.25837680476E+03  0.00000000000E+00 0.  1.
         12    1    5    5    0    0 -0.42041869761E+02  0.76021997214E+02  0.14313378408E+04  0.14339717143E+04  0.00000000000E+00 0. -1.
         13    1    3    3    0    0  0.54841630069E+02 -0.13110075354E+02 -0.27366194749E+03  0.27941070124E+03  0.00000000000E+00 0. -1.
        -14    1    3    3    0    0 -0.15839699662E+02  0.33684753304E+02 -0.16570320047E+03  0.16983259209E+03  0.00000000000E+00 0.  1.
          5    1    4    4  501    0 -0.20309498275E+02  0.19369891481E+02  0.90600326666E+02  0.94939770424E+02  0.41800000000E+01 0.  1.
         -5    1    4    4    0  501 -0.30101497083E+01 -0.13077023997E+03  0.14869116025E+03  0.19808192800E+03  0.41800000000E+01 0.  1.
</event>
<event>
11    1  0.7882745E-009  0.2058979E+03  0.7561462E-02  0.1050430E+00
         22   -1    0    0    0    0  0.00000000000E+00  0.00000000000E+00  0.38700653616E+03  0.38700653616E+03  0.00000000000E+00 0. -1.
         22   -1    0    0    0    0 -0.00000000000E+00 -0.00000000000E+00 -0.56477110439E+03  0.56477110439E+03  0.00000000000E+00 0. -1.
         24    2    1    2    0    0 -0.13697333057E+03  0.74904929545E+02 -0.41915907288E+03  0.45446924118E+03  0.80470622251E+02 0.  0.
         25    2    1    2    0    0  0.23994937858E+03 -0.61777444153E+02  0.80081648532E+02  0.28888123135E+03  0.12508852268E+03 0.  0.
        -24    2    1    2    0    0 -0.10297604801E+03 -0.13127485392E+02  0.16131285612E+03  0.20842716802E+03  0.81508585331E+02 0.  0.
        -11    1    3    3    0    0 -0.29648872695E+02 -0.12903779662E+02 -0.12730613470E+03  0.13134844922E+03  0.00000000000E+00 0.  1.
         12    1    3    3    0    0 -0.10732445787E+03  0.87808709207E+02 -0.29185293819E+03  0.32312079196E+03  0.00000000000E+00 0. -1.
         11    1    5    5    0    0 -0.10341903382E+03 -0.20458987353E+02  0.16810233944E+03  0.19842495620E+03  0.00000000000E+00 0. -1.
        -12    1    5    5    0    0  0.44298580638E+00  0.73315019611E+01 -0.67894833214E+01  0.10002211816E+02  0.00000000000E+00 0.  1.
          5    1    4    4  501    0  0.10916754559E+03  0.34167691040E+02  0.22118625051E+02  0.11658340403E+03  0.41800000000E+01 0. -1.
         -5    1    4    4    0  501  0.13078183299E+03 -0.95945135193E+02  0.57963023481E+02  0.17229782732E+03  0.41800000000E+01 0. -1.
</event>
<event>
11    1  0.7882745E-009  0.1470209E+03  0.7561462E-02  0.1099962E+00
         22   -1    0    0    0    0  0.00000000000E+00  0.00000000000E+00  0.81260151547E+02  0.81260151547E+02  0.00000000000E+00 0. -1.
         22   -1    0    0    0    0 -0.00000000000E+00 -0.00000000000E+00 -0.15859577945E+04  0.15859577945E+04  0.00000000000E+00 0. -1.
         24    2    1    2    0    0 -0.73164596815E+01 -0.10267251143E+03 -0.10745001068E+04  0.10823696907E+04  0.79865466031E+02 0.  0.
         25    2    1    2    0    0 -0.26698224438E+02  0.17265599827E+02 -0.43958663144E+03  0.45813710635E+03  0.12506920302E+03 0.  0.
        -24    2    1    2    0    0  0.34014684119E+02  0.85406911603E+02  0.93890952862E+01  0.12671114899E+03  0.86696141113E+02 0.  0.
        -13    1    3    3    0    0 -0.69232230013E+01 -0.20185335141E+02 -0.47631436864E+02  0.52193223212E+02  0.00000000000E+00 0.  1.
         14    1    3    3    0    0 -0.39323668020E+00 -0.82487176288E+02 -0.10268686699E+04  0.10301764675E+04  0.00000000000E+00 0. -1.
         13    1    5    5    0    0  0.22362274455E+02  0.95037686276E+02  0.29093572307E+02  0.10187575316E+03  0.00000000000E+00 0. -1.
        -14    1    5    5    0    0  0.11652409664E+02 -0.96307746731E+01 -0.19704477021E+02  0.24835395838E+02  0.00000000000E+00 0.  1.
          5    1    4    4  501    0 -0.23037186877E+02 -0.45042558092E+02 -0.31129302698E+03  0.31540508092E+03  0.41800000000E+01 0. -1.
         -5    1    4    4    0  501 -0.36610375611E+01  0.62308157918E+02 -0.12829360446E+03  0.14273202543E+03  0.41800000000E+01 0. -1.
</event>
<event>
11    1  0.7882745E-009  0.1381440E+03  0.7561462E-02  0.1109649E+00
         22   -1    0    0    0    0  0.00000000000E+00  0.00000000000E+00  0.83447570324E+03  0.83447570324E+03  0.00000000000E+00 0.  1.
         22   -1    0    0    0    0 -0.00000000000E+00 -0.00000000000E+00 -0.34807791868E+03  0.34807791868E+03  0.00000000000E+00 0.  1.
        -24    2    1    2    0    0  0.36067893197E+02 -0.11573797313E+02 -0.32448420268E+03  0.33647752209E+03  0.80574682022E+02 0.  0.
         25    2    1    2    0    0 -0.80031591844E+02  0.51946831679E+00  0.50832635602E+03  0.52957453394E+03  0.12509267457E+03 0.  0.
         24    2    1    2    0    0  0.43963698646E+02  0.11054328996E+02  0.30255563121E+03  0.31650156589E+03  0.81106881620E+02 0.  0.
        -13    1    5    5    0    0  0.33436739483E+02  0.36066750126E+02  0.26844406956E+03  0.27291215527E+03  0.00000000000E+00 0.  1.
         14    1    5    5    0    0  0.10526959163E+02 -0.25012421130E+02  0.34111561644E+02  0.43589410615E+02  0.00000000000E+00 0. -1.
         13    1    3    3    0    0 -0.63814334183E+01  0.11302342440E+02 -0.58875908047E+01  0.14252345863E+02  0.00000000000E+00 0. -1.
        -14    1    3    3    0    0  0.42449326616E+02 -0.22876139753E+02 -0.31859661187E+03  0.32222517623E+03  0.00000000000E+00 0.  1.
          5    1    4    4  501    0  0.42859374947E+01  0.17270596577E+00 -0.59338309211E+01  0.84310045048E+01  0.41800000000E+01 0.  1.
         -5    1    4    4    0  501 -0.84317529338E+02  0.34676235102E+00  0.51426018694E+03  0.52114352944E+03  0.41800000000E+01 0.  1.
</event>
<event>
11    1  0.7882745E-009  0.1370717E+03  0.7561462E-02  0.1110873E+00
         22   -1    0    0    0    0  0.00000000000E+00  0.00000000000E+00  0.20326597624E+03  0.20326597624E+03  0.00000000000E+00 0.  1.
         22   -1    0    0    0    0 -0.00000000000E+00 -0.00000000000E+00 -0.28059598697E+03  0.28059598697E+03  0.00000000000E+00 0.  1.
         24    2    1    2    0    0  0.36399252967E+02  0.39647798283E+02 -0.18956021087E+03  0.21313320254E+03  0.81214745925E+02 0.  0.
         25    2    1    2    0    0 -0.64086414133E+02 -0.39159232417E+02  0.27309393595E+02  0.14843712388E+03  0.12508901953E+03 0.  0.
        -24    2    1    2    0    0  0.27687161165E+02 -0.48856586621E+00  0.84920806547E+02  0.12229163678E+03  0.83527740615E+02 0.  0.
        -13    1    3    3    0    0  0.19255391150E+02  0.87805302799E+01 -0.17272455351E+03  0.17401620380E+03  0.00000000000E+00 0.  1.
         14    1    3    3    0    0  0.17143861817E+02  0.30867268003E+02 -0.16835657366E+02  0.39116998747E+02  0.00000000000E+00 0. -1.
         11    1    5    5    0    0  0.19030322333E+00 -0.19517372419E+02 -0.98008678512E+01  0.21840811617E+02  0.00000000000E+00 0. -1.
        -12    1    5    5    0    0  0.27496857942E+02  0.19028806553E+02  0.94721674398E+02  0.10045082516E+03  0.00000000000E+00 0.  1.
          5    1    4    4  501    0 -0.53897764119E+02 -0.39123464812E+02 -0.41611274640E+02  0.78642132812E+02  0.41800000000E+01 0.  1.
         -5    1    4    4    0  501 -0.10188650014E+02 -0.35767604857E-01  0.68920668235E+02  0.69794991070E+02  0.41800000000E+01 0.  1.
</event>
<event>
11    1  0.7882745E-009  0.1429717E+03  0.7561462E-02  0.1104285E+00
         22   -1    0    0    0    0  0.00000000000E+00  0.00000000000E+00  0.11980793211E+04  0.11980793211E+04  0.00000000000E+00 0.  1.
         22   -1    0    0    0    0 -0.00000000000E+00 -0.00000000000E+00 -0.20165860307E+03  0.20165860307E+03  0.00000000000E+00 0. -1.
        -24    2    1    2    0    0  0.16952654567E+02  0.76024307086E+02 -0.16981183998E+03  0.20326863167E+03  0.80093619322E+02 0.  0.
         25    2    1    2    0    0 -0.51350800314E+02  0.81882611625E+01  0.47290085040E+03  0.49192196515E+03  0.12509217870E+03 0.  0.
         24    2    1    2    0    0  0.34398145746E+02 -0.84212568248E+02  0.69333170763E+03  0.70454732737E+03  0.86041214670E+02 0.  0.
        -13    1    5    5    0    0  0.16764251457E+02 -0.92225612229E+00  0.36406877295E+03  0.36445570667E+03  0.00000000000E+00 0.  1.
         14    1    5    5    0    0  0.17633894289E+02 -0.83290312126E+02  0.32926293467E+03  0.34009162070E+03  0.00000000000E+00 0. -1.
         11    1    3    3    0    0  0.20134641563E+02  0.90574772197E+02 -0.16138234772E+03  0.18615438567E+03  0.00000000000E+00 0. -1.
        -12    1    3    3    0    0 -0.31819869951E+01 -0.14550465111E+02 -0.84294922686E+01  0.17114245998E+02  0.00000000000E+00 0.  1.
          5    1    4    4  501    0 -0.60000471571E+02 -0.43837723722E+02  0.35465400791E+03  0.36237927692E+03  0.41800000000E+01 0.  1.
         -5    1    4    4    0  501  0.86496712573E+01  0.52025984884E+02  0.11824684249E+03  0.12954268823E+03  0.41800000000E+01 0.  1.
</event>
<event>
11    1  0.7882745E-009  0.1444488E+03  0.7561462E-02  0.1102690E+00
         22   -1    0    0    0    0  0.00000000000E+00  0.00000000000E+00  0.16171014770E+03  0.16171014770E+03  0.00000000000E+00 0. -1.
         22   -1    0    0    0    0 -0.00000000000E+00 -0.00000000000E+00 -0.20104792627E+04  0.20104792627E+04  0.00000000000E+00 0.  1.
        -24    2    1    2    0    0 -0.37110241987E+02 -0.40195880896E+01 -0.19019346666E+04  0.19041450810E+04  0.83783569101E+02 0.  0.
         25    2    1    2    0    0  0.54015192143E+01 -0.66483881420E+02 -0.76295418210E+01  0.14196944315E+03  0.12509128659E+03 0.  0.
         24    2    1    2    0    0  0.31708722772E+02  0.70503469510E+02  0.60795093438E+02  0.12607488620E+03  0.78883783064E+02 0.  0.
        -13    1    5    5    0    0  0.33428490401E+02  0.73680845989E+02  0.17692615519E+02  0.82821251380E+02  0.00000000000E+00 0.  1.
         14    1    5    5    0    0 -0.17197676287E+01 -0.31773764799E+01  0.43102477920E+02  0.43253634816E+02  0.00000000000E+00 0. -1.
         13    1    3    3    0    0 -0.63124281139E+02  0.67456573035E+01 -0.12790487186E+04  0.12806232089E+04  0.00000000000E+00 0. -1.
        -14    1    3    3    0    0  0.26014039153E+02 -0.10765245393E+02 -0.62288594799E+03  0.62352187207E+03  0.00000000000E+00 0.  1.
          5    1    4    4  501    0 -0.10651652987E+02 -0.10193795905E+03 -0.70885041004E+01  0.10282278199E+03  0.41800000000E+01 0.  1.
         -5    1    4    4    0  501  0.16053172202E+02  0.35454077627E+02 -0.54103772064E+00  0.39146661160E+02  0.41800000000E+01 0.  1.
</event>
<event>
11    1  0.7882745E-009  0.1687428E+03  0.7561462E-02  0.1079131E+00
         22   -1    0    0    0    0  0.00000000000E+00  0.00000000000E+00  0.10230624320E+03  0.10230624320E+03  0.00000000000E+00 0. -1.
         22   -1    0    0    0    0 -0.00000000000E+00 -0.00000000000E+00 -0.51039915430E+03  0.51039915430E+03  0.00000000000E+00 0. -1.
        -24    2    1    2    0    0  0.74300269751E+01 -0.11848752088E+03 -0.22027351310E+03  0.26267224532E+03  0.79886106303E+02 0.  0.
         25    2    1    2    0    0  0.66954871339E+01  0.10608389673E+03 -0.20330369604E+03  0.26129987330E+03  0.12508640322E+03 0.  0.
         24    2    1    2    0    0 -0.14125514109E+02  0.12403624151E+02  0.15484298047E+02  0.88733278877E+02  0.85325560375E+02 0.  0.
        -13    1    5    5    0    0 -0.36742631843E+02 -0.19095833238E+02 -0.96549679113E+01  0.42519292646E+02  0.00000000000E+00 0.  1.
         14    1    5    5    0    0  0.22617117734E+02  0.31499457389E+02  0.25139265958E+02  0.46213986230E+02  0.00000000000E+00 0. -1.
         11    1    3    3    0    0 -0.23744661150E+02 -0.38222018091E+01 -0.42722743097E+02  0.49027042920E+02  0.00000000000E+00 0. -1.
        -12    1    3    3    0    0  0.31174688125E+02 -0.11466531907E+03 -0.17755077001E+03  0.21364520240E+03  0.00000000000E+00 0.  1.
          5    1    4    4  501    0 -0.20010493820E+02  0.11662801505E+03 -0.19956141573E+03  0.23204470433E+03  0.41800000000E+01 0. -1.
         -5    1    4    4    0  501  0.26705980954E+02 -0.10544118317E+02 -0.37422803071E+01  0.29255168974E+02  0.41800000000E+01 0. -1.
</event>
<event>
11    1  0.7882745E-009  0.2042327E+03  0.7561462E-02  0.1051570E+00
         22   -1    0    0    0    0  0.00000000000E+00  0.00000000000E+00  0.31231057368E+03  0.31231057368E+03  0.00000000000E+00 0.  1.
         22   -1    0    0    0    0 -0.00000000000E+00 -0.00000000000E+00 -0.20842777355E+04  0.20842777355E+04  0.00000000000E+00 0. -1.
        -24    2    1    2    0    0 -0.89773945257E+02  0.13284892409E+03 -0.18556304802E+04  0.18643294615E+04  0.81557734739E+02 0.  0.
         25    2    1    2    0    0  0.22190667039E+02 -0.19827662031E+03 -0.14239078265E+03  0.27518682237E+03  0.12508640356E+03 0.  0.
         24    2    1    2    0    0  0.67583278219E+02  0.65427696215E+02  0.22605410100E+03  0.25707202534E+03  0.78340836772E+02 0.  0.
        -11    1    5    5    0    0  0.94039647254E+01  0.63379149664E+02  0.11257898784E+03  0.12953524488E+03  0.00000000000E+00 0.  1.
         12    1    5    5    0    0  0.58179313493E+02  0.20485465510E+01  0.11347511317E+03  0.12753678046E+03  0.00000000000E+00 0. -1.
         13    1    3    3    0    0 -0.90859587311E+02  0.14114269125E+03 -0.18202615172E+04  0.18279848782E+04  0.00000000000E+00 0. -1.
        -14    1    3    3    0    0  0.10856420533E+01 -0.82937671572E+01 -0.35368963049E+02  0.36344583358E+02  0.00000000000E+00 0.  1.
          5    1    4    4  501    0 -0.42283401386E+02 -0.22605641170E+02 -0.24851835506E+02  0.54166291857E+02  0.41800000000E+01 0. -1.
         -5    1    4    4    0  501  0.64474068425E+02 -0.17567097914E+03 -0.11753894715E+03  0.22102053051E+03  0.41800000000E+01 0. -1.
</event>
<event>
11    1  0.7882745E-009  0.1942015E+03  0.7561462E-02  0.1058701E+00
         22   -1    0    0    0    0  0.00000000000E+00  0.00000000000E+00  0.72983704542E+03  0.72983704542E+03  0.00000000000E+00 0.  1.
         22   -1    0    0    0    0 -0.00000000000E+00 -0.00000000000E+00 -0.18867861509E+03  0.18867861509E+03  0.00000000000E+00 0.  1.
        -24    2    1    2    0    0 -0.16672459035E+02 -0.82953244401E+02 -0.91801634525E+02  0.14924669979E+03  0.81779127229E+02 0.  0.
         25    2    1    2    0    0 -0.96525412440E+02  0.16581707062E+03  0.18903716439E+03  0.29697800039E+03  0.12509367305E+03 0.  0.
         24    2    1    2    0    0  0.11319787147E+03 -0.82863826219E+02  0.44392290046E+03  0.47229096032E+03  0.79442040793E+02 0.  0.
        -13    1    5    5    0    0  0.61235678389E+02 -0.45286892875E+02  0.35241560366E+03  0.36055161722E+03  0.00000000000E+00 0.  1.
         14    1    5    5    0    0  0.51962193086E+02 -0.37576933344E+02  0.91507296804E+02  0.11173934311E+03  0.00000000000E+00 0. -1.
         13    1    3    3    0    0  0.21273122919E+02 -0.32898426348E+02 -0.14463909926E+01  0.39203880699E+02  0.00000000000E+00 0. -1.
        -14    1    3    3    0    0 -0.37945581955E+02 -0.50054818052E+02 -0.90355243532E+02  0.11004281909E+03  0.00000000000E+00 0.  1.
          5    1    4    4  501    0 -0.11176264630E+02  0.83994026041E+02  0.14417261026E+02  0.86053675791E+02  0.41800000000E+01 0. -1.
         -5    1    4    4    0  501 -0.85349147810E+02  0.81823044579E+02  0.17461990336E+03  0.21092432460E+03  0.41800000000E+01 0. -1.
</event>
<event>
11    1  0.7882745E-009  0.1503554E+03  0.7561462E-02  0.1096516E+00
         22   -1    0    0    0    0  0.00000000000E+00  0.00000000000E+00  0.24441365225E+03  0.24441365225E+03  0.00000000000E+00 0.  1.
         22   -1    0    0    0    0 -0.00000000000E+00 -0.00000000000E+00 -0.63269249155E+03  0.63269249155E+03  0.00000000000E+00 0.  1.
         24    2    1    2    0    0 -0.79458294019E+02 -0.35484998680E+02 -0.54574849485E+03  0.55853685312E+03  0.80927072396E+02 0.  0.
         25    2    1    2    0    0  0.54459647133E+02 -0.36681675728E+02  0.25404603026E+02  0.14353338540E+03  0.12508013579E+03 0.  0.
        -24    2    1    2    0    0  0.24998646886E+02  0.72166674408E+02  0.13206505252E+03  0.17503590528E+03  0.85810423599E+02 0.  0.
        -13    1    3    3    0    0 -0.44831501514E+02 -0.58045233311E+02 -0.41439559772E+03  0.42083586355E+03  0.00000000000E+00 0.  1.
         14    1    3    3    0    0 -0.34626792505E+02  0.22560234631E+02 -0.13135289713E+03  0.13770098957E+03  0.00000000000E+00 0. -1.
         13    1    5    5    0    0  0.91927759379E+01  0.49868560835E+02  0.12283116556E+02  0.52175237819E+02  0.00000000000E+00 0. -1.
        -14    1    5    5    0    0  0.15805870948E+02  0.22298113573E+02  0.11978193596E+03  0.12286066746E+03  0.00000000000E+00 0.  1.
          5    1    4    4  501    0 -0.39189507487E+02 -0.13254650219E+02  0.21544399291E+02  0.46830938388E+02  0.41800000000E+01 0. -1.
         -5    1    4    4    0  501  0.93649154620E+02 -0.23427025510E+02  0.38602037346E+01  0.96702447012E+02  0.41800000000E+01 0. -1.
</event>
<event>
11    1  0.7882745E-009  0.1577460E+03  0.7561462E-02  0.1089217E+00
         22   -1    0    0    0    0  0.00000000000E+00  0.00000000000E+00  0.71321489418E+03  0.71321489418E+03  0.00000000000E+00 0. -1.
         22   -1    0    0    0    0 -0.00000000000E+00 -0.00000000000E+00 -0.49107000379E+03  0.49107000379E+03  0.00000000000E+00 0.  1.
         24    2    1    2    0    0  0.50177280418E+02 -0.34181768571E+02 -0.42468593410E+03  0.43644941347E+03  0.80273252836E+02 0.  0.
         25    2    1    2    0    0  0.30753399668E+02 -0.29770555275E+02  0.28258928879E+02  0.13519452225E+03  0.12508770616E+03 0.  0.
        -24    2    1    2    0    0 -0.80930680085E+02  0.63952323846E+02  0.61857189561E+03  0.63264096225E+03  0.83448920728E+02 0.  0.
        -13    1    3    3    0    0  0.16061976067E+02  0.20586132481E+02 -0.22706707011E+03  0.22856340532E+03  0.00000000000E+00 0.  1.
         14    1    3    3    0    0  0.34115304350E+02 -0.54767901051E+02 -0.19761886400E+03  0.20788600815E+03  0.00000000000E+00 0. -1.
         11    1    5    5    0    0 -0.23330533939E+02  0.48395844109E+02  0.46153947061E+03  0.46465595280E+03  0.00000000000E+00 0. -1.
        -12    1    5    5    0    0 -0.57600146147E+02  0.15556479737E+02  0.15703242500E+03  0.16798500945E+03  0.00000000000E+00 0.  1.
          5    1    4    4  501    0 -0.13818712318E+02 -0.52346205314E+02  0.55908627628E+02  0.77937982166E+02  0.41800000000E+01 0. -1.
         -5    1    4    4    0  501  0.44572111986E+02  0.22575650038E+02 -0.27649698749E+02  0.57256540084E+02  0.41800000000E+01 0. -1.
</event>
<event>
11    1  0.7882745E-009  0.1705663E+03  0.7561462E-02  0.1077540E+00
         22   -1    0    0    0    0  0.00000000000E+00  0.00000000000E+00  0.22176629196E+04  0.22176629196E+04  0.00000000000E+00 0. -1.
         22   -1    0    0    0    0 -0.00000000000E+00 -0.00000000000E+00 -0.24876129740E+03  0.24876129740E+03  0.00000000000E+00 0.  1.
        -24    2    1    2    0    0 -0.11348198201E+03 -0.45021475601E+02 -0.19038341194E+03  0.24056362225E+03  0.81975113926E+02 0.  0.
         25    2    1    2    0    0  0.34232751408E+02  0.89925910368E+02  0.16709163995E+03  0.22983979899E+03  0.12509263142E+03 0.  0.
         24    2    1    2    0    0  0.79249230599E+02 -0.44904434767E+02  0.19921933942E+04  0.19960207958E+04  0.83472441359E+02 0.  0.
        -11    1    5    5    0    0  0.10441499552E+02 -0.42531344453E+02  0.41046147682E+03  0.41279118707E+03  0.00000000000E+00 0.  1.
         12    1    5    5    0    0  0.68807731047E+02 -0.23730903139E+01  0.15817319174E+04  0.15832296087E+04  0.00000000000E+00 0. -1.
         13    1    3    3    0    0 -0.23935976208E+02  0.16837361685E+02 -0.12061634799E+02  0.31652973629E+02  0.00000000000E+00 0. -1.
        -14    1    3    3    0    0 -0.89546005799E+02 -0.61858837286E+02 -0.17832177714E+03  0.20891064862E+03  0.00000000000E+00 0.  1.
          5    1    4    4  501    0  0.76787509559E+02  0.65681686695E+02  0.14286864906E+03  0.17504093485E+03  0.41800000000E+01 0.  1.
         -5    1    4    4    0  501 -0.42554758151E+02  0.24244223673E+02  0.24222990893E+02  0.54798864136E+02  0.41800000000E+01 0.  1.
</event>
<event>
11    1  0.7882745E-009  0.2717058E+03  0.7561462E-02  0.1012932E+00
         22   -1    0    0    0    0  0.00000000000E+00  0.00000000000E+00  0.92470917715E+03  0.92470917715E+03  0.00000000000E+00 0. -1.
         22   -1    0    0    0    0 -0.00000000000E+00 -0.00000000000E+00 -0.38074628558E+03  0.38074628558E+03  0.00000000000E+00 0. -1.
         24    2    1    2    0    0 -0.82108333870E+02  0.26800966091E+03 -0.19532677042E+03  0.35111061993E+03  0.80963963272E+02 0.  0.
         25    2    1    2    0    0  0.89494879706E+02 -0.15980516030E+03  0.20131322462E+02  0.22271317698E+03  0.12509542878E+03 0.  0.
        -24    2    1    2    0    0 -0.73865458359E+01 -0.10820450061E+03  0.71915833953E+03  0.73163166583E+03  0.79582674714E+02 0.  0.
        -11    1    3    3    0    0  0.64825796282E+01  0.11229645831E+03 -0.80454145578E+02  0.13829456941E+03  0.00000000000E+00 0.  1.
         12    1    3    3    0    0 -0.88590913499E+02  0.15571320260E+03 -0.11487262484E+03  0.21281605052E+03  0.00000000000E+00 0. -1.
         11    1    5    5    0    0 -0.23018885847E+02  0.13677763168E+01  0.15658531426E+03  0.15827413105E+03  0.00000000000E+00 0. -1.
        -12    1    5    5    0    0  0.15632340011E+02 -0.10957227692E+03  0.56257302527E+03  0.57335753478E+03  0.00000000000E+00 0.  1.
          5    1    4    4  501    0  0.67097031041E+00  0.33956268049E+01  0.35791598230E+02  0.36200709750E+02  0.41800000000E+01 0.  1.
         -5    1    4    4    0  501  0.88823909396E+02 -0.16320078711E+03 -0.15660275768E+02  0.18651246722E+03  0.41800000000E+01 0.  1.
</event>
<event>
11    1  0.7882745E-009  0.1386217E+03  0.7561462E-02  0.1109107E+00
         22   -1    0    0    0    0  0.00000000000E+00  0.00000000000E+00  0.40130471485E+02  0.40130471485E+02  0.00000000000E+00 0.  1.
         22   -1    0    0    0    0 -0.00000000000E+00 -0.00000000000E+00 -0.30718029495E+04  0.30718029495E+04  0.00000000000E+00 0. -1.
        -24    2    1    2    0    0  0.65850114819E+02  0.64142200137E+01 -0.23726843023E+04  0.23748637389E+04  0.77263187787E+02 0.  0.
         25    2    1    2    0    0 -0.22253183964E+02  0.21434701241E+02 -0.61901575140E+03  0.63228240576E+03  0.12508353023E+03 0.  0.
         24    2    1    2    0    0 -0.43596930855E+02 -0.27848921255E+02 -0.39972424282E+02  0.10478727628E+03  0.81892147196E+02 0.  0.
        -11    1    5    5    0    0 -0.56391833038E+02 -0.44600101598E+02 -0.17540871534E+02  0.74006013742E+02  0.00000000000E+00 0.  1.
         12    1    5    5    0    0  0.12794902183E+02  0.16751180343E+02 -0.22431552748E+02  0.30781262538E+02  0.00000000000E+00 0. -1.
         11    1    3    3    0    0  0.67273897480E+02  0.13658811372E+02 -0.23501174472E+04  0.23511198089E+04  0.00000000000E+00 0. -1.
        -12    1    3    3    0    0 -0.14237826612E+01 -0.72445913579E+01 -0.22566855124E+02  0.23743929986E+02  0.00000000000E+00 0.  1.
          5    1    4    4  501    0 -0.72219142480E+02  0.20977771128E+02 -0.29784996353E+03  0.30722588530E+03  0.41800000000E+01 0.  1.
         -5    1    4    4    0  501  0.49965958515E+02  0.45693011304E+00 -0.32116578787E+03  0.32505652046E+03  0.41800000000E+01 0.  1.
</event>
<event>
11    1  0.7882745E-009  0.2651482E+03  0.7561462E-02  0.1016125E+00
         22   -1    0    0    0    0  0.00000000000E+00  0.00000000000E+00  0.19111244348E+03  0.19111244348E+03  0.00000000000E+00 0.  1.
         22   -1    0    0    0    0 -0.00000000000E+00 -0.00000000000E+00 -0.12598872690E+04  0.12598872690E+04  0.00000000000E+00 0. -1.
         24    2    1    2    0    0 -0.21431005027E+03  0.68962242642E+02 -0.94417895390E+03  0.97402773891E+03  0.81065101143E+02 0.  0.
         25    2    1    2    0    0  0.26663139971E+03 -0.10689475900E+03 -0.17779790799E+03  0.36024804625E+03  0.12509103054E+03 0.  0.
        -24    2    1    2    0    0 -0.52321349440E+02  0.37932516359E+02  0.53202036411E+02  0.11672392728E+03  0.81348749935E+02 0.  0.
        -11    1    3    3    0    0 -0.13277711374E+03  0.72713638100E+02 -0.50009327510E+03  0.52250389367E+03  0.00000000000E+00 0.  1.
         12    1    3    3    0    0 -0.81532936533E+02 -0.37513954582E+01 -0.44408567880E+03  0.45152384524E+03  0.00000000000E+00 0. -1.
         11    1    5    5    0    0 -0.49292265586E+02  0.12783246117E+02 -0.70075382557E+01  0.51402766660E+02  0.00000000000E+00 0. -1.
        -12    1    5    5    0    0 -0.30290838535E+01  0.25149270242E+02  0.60209574667E+02  0.65321160616E+02  0.00000000000E+00 0.  1.
          5    1    4    4  501    0  0.94037827993E+01 -0.53122304195E+01  0.17975101086E+02  0.21382880583E+02  0.41800000000E+01 0. -1.
         -5    1    4    4    0  501  0.25722761691E+03 -0.10158252858E+03 -0.19577300908E+03  0.33886516566E+03  0.41800000000E+01 0. -1.
</event>
<event>
11    1  0.7882745E-009  0.1417788E+03  0.7561462E-02  0.1105588E+00
         22   -1    0    0    0    0  0.00000000000E+00  0.00000000000E+00  0.61579964490E+03  0.61579964490E+03  0.00000000000E+00 0.  1.
         22   -1    0    0    0    0 -0.00000000000E+00 -0.00000000000E+00 -0.40496052702E+03  0.40496052702E+03  0.00000000000E+00 0. -1.
         24    2    1    2    0    0  0.31172731228E+02  0.84853597384E+01 -0.35710118355E+03  0.36756803566E+03  0.80878087560E+02 0.  0.
         25    2    1    2    0    0  0.24916648154E+02  0.34743317827E+02  0.81910658907E+02  0.15550767174E+03  0.12508134329E+03 0.  0.
        -24    2    1    2    0    0 -0.56089379382E+02 -0.43228677565E+02  0.48602964253E+03  0.49768446452E+03  0.80313608826E+02 0.  0.
        -13    1    3    3    0    0  0.12996649056E+02 -0.69891847074E+01 -0.64492072786E+01  0.16104467209E+02  0.00000000000E+00 0.  1.
         14    1    3    3    0    0  0.18176082172E+02  0.15474544446E+02 -0.35065197627E+03  0.35146356845E+03  0.00000000000E+00 0. -1.
         11    1    5    5    0    0 -0.64825364317E+02 -0.12519641337E+02  0.21852004716E+03  0.22827632441E+03  0.00000000000E+00 0. -1.
        -12    1    5    5    0    0  0.87359849357E+01 -0.30709036229E+02  0.26750959537E+03  0.26940814010E+03  0.00000000000E+00 0.  1.
          5    1    4    4  501    0  0.36768663346E+02  0.61306305084E+02  0.98487273459E+02  0.12176868678E+03  0.41800000000E+01 0.  1.
         -5    1    4    4    0  501 -0.11852015192E+02 -0.26562987258E+02 -0.16576614552E+02  0.33738984961E+02  0.41800000000E+01 0.  1.
</event>
<event>
11    1  0.7882745E-009  0.1333552E+03  0.7561462E-02  0.1115214E+00
         22   -1    0    0    0    0  0.00000000000E+00  0.00000000000E+00  0.17230939408E+04  0.17230939408E+04  0.00000000000E+00 0.  1.
         22   -1    0    0    0    0 -0.00000000000E+00 -0.00000000000E+00 -0.41091040631E+02  0.41091040631E+02  0.00000000000E+00 0.  1.
        -24    2    1    2    0    0  0.41086865236E+02  0.23087944437E+02  0.32102210932E+02  0.98404697090E+02  0.80198184452E+02 0.  0.
         25    2    1    2    0    0 -0.26125563536E+02 -0.28074382629E+02  0.68096657182E+03  0.69342150698E+03  0.12508876200E+03 0.  0.
         24    2    1    2    0    0 -0.14961301699E+02  0.49864381920E+01  0.96893411740E+03  0.97235877734E+03  0.79997268069E+02 0.  0.
        -13    1    5    5    0    0 -0.37748207563E+02 -0.18828091863E+02  0.72247938229E+03  0.72370980513E+03  0.00000000000E+00 0.  1.
         14    1    5    5    0    0  0.22786905864E+02  0.23814530055E+02  0.24645473511E+03  0.24864897221E+03  0.00000000000E+00 0. -1.
         13    1    3    3    0    0  0.15308333802E+01  0.27333884080E+02  0.48244809465E+02  0.55471130420E+02  0.00000000000E+00 0. -1.
        -14    1    3    3    0    0  0.39556031855E+02 -0.42459396423E+01 -0.16142598534E+02  0.42933566670E+02  0.00000000000E+00 0.  1.
          5    1    4    4  501    0  0.48462285139E+02 -0.27808526448E+02  0.30532970061E+03  0.31042810069E+03  0.41800000000E+01 0. -1.
         -5    1    4    4    0  501 -0.74587848675E+02 -0.26585618180E+00  0.37563687121E+03  0.38299340629E+03  0.41800000000E+01 0. -1.
</event>
<event>
11    1  0.7882745E-009  0.2246255E+03  0.7561462E-02  0.1038358E+00
         22   -1    0    0    0    0  0.00000000000E+00  0.00000000000E+00  0.19757886265E+03  0.19757886265E+03  0.00000000000E+00 0.  1.
         22   -1    0    0    0    0 -0.00000000000E+00 -0.00000000000E+00 -0.68026798054E+03  0.68026798054E+03  0.00000000000E+00 0. -1.
         24    2    1    2    0    0  0.27287411192E+02  0.19012925208E+03 -0.47064270504E+03  0.51470061456E+03  0.80736803945E+02 0.  0.
         25    2    1    2    0    0 -0.33341218171E+02 -0.16714109925E+03 -0.10557261252E+03  0.23630576585E+03  0.12508818718E+03 0.  0.
        -24    2    1    2    0    0  0.60538069794E+01 -0.22988152835E+02  0.93526199664E+02  0.12684046278E+03  0.82317976315E+02 0.  0.
        -11    1    3    3    0    0  0.40263650637E+02  0.37420299706E+02 -0.13235974075E+03  0.14331971729E+03  0.00000000000E+00 0.  1.
         12    1    3    3    0    0 -0.12976239446E+02  0.15270895238E+03 -0.33828296429E+03  0.37138089727E+03  0.00000000000E+00 0. -1.
         13    1    5    5    0    0 -0.14298041345E+02  0.27724706633E+01 -0.10371136129E+02  0.17879626520E+02  0.00000000000E+00 0. -1.
        -14    1    5    5    0    0  0.20351848325E+02 -0.25760623498E+02  0.10389733579E+03  0.10896083626E+03  0.00000000000E+00 0.  1.
          5    1    4    4  501    0 -0.75445913982E+02 -0.10006638423E+03 -0.92760852355E+02  0.15597248257E+03  0.41800000000E+01 0. -1.
         -5    1    4    4    0  501  0.42104695811E+02 -0.67074715015E+02 -0.12811760164E+02  0.80333283278E+02  0.41800000000E+01 0. -1.
</event>
<event>
11    1  0.7882745E-009  0.1303534E+03  0.7561462E-02  0.1118836E+00
         22   -1    0    0    0    0  0.00000000000E+00  0.00000000000E+00  0.25305475438E+04  0.25305475438E+04  0.00000000000E+00 0. -1.
         22   -1    0    0    0    0 -0.00000000000E+00 -0.00000000000E+00 -0.31518457146E+02  0.31518457146E+02  0.00000000000E+00 0. -1.
         24    2    1    2    0    0  0.29688404647E+02 -0.21826089049E+02  0.44100545933E+02  0.95301751001E+02  0.76024904200E+02 0.  0.
         25    2    1    2    0    0 -0.45262316543E+02 -0.57509582754E+01  0.90263564733E+03  0.91240445981E+03  0.12509610557E+03 0.  0.
        -24    2    1    2    0    0  0.15573911896E+02  0.27577047324E+02  0.15522928933E+04  0.15543597901E+04  0.73607676582E+02 0.  0.
        -11    1    3    3    0    0 -0.62260811767E+01 -0.39989545184E+02  0.36175694165E+02  0.54282673655E+02  0.00000000000E+00 0.  1.
         12    1    3    3    0    0  0.35914485824E+02  0.18163456135E+02  0.79248517680E+01  0.41019077346E+02  0.00000000000E+00 0. -1.
         13    1    5    5    0    0 -0.14545251574E+02  0.19524460504E+02  0.12886356246E+04  0.12888656027E+04  0.00000000000E+00 0. -1.
        -14    1    5    5    0    0  0.30119163470E+02  0.80525868203E+01  0.26365726872E+03  0.26549418734E+03  0.00000000000E+00 0.  1.
          5    1    4    4  501    0 -0.43237924775E+02  0.46779082531E+02  0.26454732312E+03  0.27214069757E+03  0.41800000000E+01 0.  1.
         -5    1    4    4    0  501 -0.20243917683E+01 -0.52530040807E+02  0.63808832421E+03  0.64026376224E+03  0.41800000000E+01 0.  1.
</event>
<event>
11    1  0.7882745E-009  0.1609704E+03  0.7561462E-02  0.1086168E+00
         22   -1    0    0    0    0  0.00000000000E+00  0.00000000000E+00  0.29802971774E+03  0.29802971774E+03  0.00000000000E+00 0.  1.
         22   -1    0    0    0    0 -0.00000000000E+00 -0.00000000000E+00 -0.18692744170E+04  0.18692744170E+04  0.00000000000E+00 0. -1.
         24    2    1    2    0    0 -0.80876813290E+02 -0.54172309118E+02 -0.15980015459E+04  0.16025758242E+04  0.71865384249E+02 0.  0.
         25    2    1    2    0    0  0.16170579178E+03  0.98252314716E+02 -0.20360415026E+03  0.30480305124E+03  0.12509184467E+03 0.  0.
        -24    2    1    2    0    0 -0.80828978487E+02 -0.44080005598E+02  0.23036099687E+03  0.25992525937E+03  0.77579513576E+02 0.  0.
        -11    1    3    3    0    0 -0.10606855428E+02 -0.70228117962E+01 -0.34247239889E+02  0.36533528540E+02  0.00000000000E+00 0.  1.
         12    1    3    3    0    0 -0.70269957862E+02 -0.47149497322E+02 -0.15637543060E+04  0.15660422956E+04  0.00000000000E+00 0. -1.
         11    1    5    5    0    0  0.24610481639E+01 -0.22305813561E+02  0.12536181579E+02  0.25705289830E+02  0.00000000000E+00 0. -1.
        -12    1    5    5    0    0 -0.83290026651E+02 -0.21774192037E+02  0.21782481529E+03  0.23421996954E+03  0.00000000000E+00 0.  1.
          5    1    4    4  501    0  0.24141217700E+02 -0.29342905928E+02 -0.45341729375E+02  0.59305559124E+02  0.41800000000E+01 0. -1.
         -5    1    4    4    0  501  0.13756457408E+03  0.12759522064E+03 -0.15826242088E+03  0.24549749212E+03  0.41800000000E+01 0. -1.
</event>
<event>
11    1  0.7882745E-009  0.1596357E+03  0.7561462E-02  0.1087420E+00
         22   -1    0    0    0    0  0.00000000000E+00  0.00000000000E+00  0.55085616166E+03  0.55085616166E+03  0.00000000000E+00 0.  1.
         22   -1    0    0    0    0 -0.00000000000E+00 -0.00000000000E+00 -0.58983861268E+03  0.58983861268E+03  0.00000000000E+00 0.  1.
         24    2    1    2    0    0 -0.72710591771E+01  0.10595177414E+03 -0.52056007274E+03  0.53761386999E+03  0.82263218532E+02 0.  0.
         25    2    1    2    0    0 -0.80340570771E+01 -0.35723749160E+02  0.23087542039E+02  0.13236820437E+03  0.12509026582E+03 0.  0.
        -24    2    1    2    0    0  0.15305116254E+02 -0.70228024980E+02  0.45849007969E+03  0.47071269999E+03  0.78683357093E+02 0.  0.
        -13    1    3    3    0    0 -0.26836914816E+02  0.10827637271E+03 -0.39240738895E+03  0.40795533063E+03  0.00000000000E+00 0.  1.
         14    1    3    3    0    0  0.19565855639E+02 -0.23245985747E+01 -0.12815268379E+03  0.12965853936E+03  0.00000000000E+00 0. -1.
         11    1    5    5    0    0 -0.25354625233E+02 -0.25497131393E+02  0.83961430498E+02  0.91337191446E+02  0.00000000000E+00 0. -1.
        -12    1    5    5    0    0  0.40659741487E+02 -0.44730893586E+02  0.37452864919E+03  0.37937550854E+03  0.00000000000E+00 0.  1.
          5    1    4    4  501    0  0.47505357200E+02 -0.18082256486E+02  0.46890781519E+02  0.69281633596E+02  0.41800000000E+01 0. -1.
         -5    1    4    4    0  501 -0.55539414277E+02 -0.17641492674E+02 -0.23803239480E+02  0.63086570771E+02  0.41800000000E+01 0. -1.
</event>
<event>
11    1  0.7882745E-009  0.1889128E+03  0.7561462E-02  0.1062653E+00
         22   -1    0    0    0    0  0.00000000000E+00  0.00000000000E+00  0.37019307406E+03  0.37019307406E+03  0.00000000000E+00 0. -1.
         22   -1    0    0    0    0 -0.00000000000E+00 -0.00000000000E+00 -0.99406413661E+03  0.99406413661E+03  0.00000000000E+00 0. -1.
        -24    2    1    2    0    0 -0.85626978268E+02 -0.10571415408E+03 -0.81796972762E+03  0.83300832654E+03  0.79504308077E+02 0.  0.
         25    2    1    2    0    0  0.11405683697E+03  0.18566103462E+03 -0.53558389443E+02  0.25689410064E+03  0.12508835289E+03 0.  0.
         24    2    1    2    0    0 -0.28429858702E+02 -0.79946880545E+02  0.24765705451E+03  0.27435478349E+03  0.82077828914E+02 0.  0.
        -13    1    5    5    0    0 -0.22553962571E+01 -0.87103593258E+01 -0.51737800349E+01  0.10379073741E+02  0.00000000000E+00 0.  1.
         14    1    5    5    0    0 -0.26174462445E+02 -0.71236521219E+02  0.25283083455E+03  0.26397570975E+03  0.00000000000E+00 0. -1.
         13    1    3    3    0    0 -0.47515349785E+02 -0.10323355268E+03 -0.49995122236E+03  0.51270469044E+03  0.00000000000E+00 0. -1.
        -14    1    3    3    0    0 -0.38111628483E+02 -0.24806014006E+01 -0.31801850527E+03  0.32030363610E+03  0.00000000000E+00 0.  1.
          5    1    4    4  501    0 -0.17825756960E+02  0.67237470504E+02 -0.36799870072E+02  0.78805697054E+02  0.41800000000E+01 0. -1.
         -5    1    4    4    0  501  0.13188259393E+03  0.11842356412E+03 -0.16758519371E+02  0.17808840359E+03  0.41800000000E+01 0. -1.
</event>
<event>
11    1  0.7882745E-009  0.1267352E+03  0.7561462E-02  0.1123347E+00
         22   -1    0    0    0    0  0.00000000000E+00  0.00000000000E+00  0.18230952916E+03  0.18230952916E+03  0.00000000000E+00 0.  1.
         22   -1    0    0    0    0 -0.00000000000E+00 -0.00000000000E+00 -0.12026030833E+04  0.12026030833E+04  0.00000000000E+00 0. -1.
         24    2    1    2    0    0  0.64646691684E+01  0.27752885096E+01 -0.98999789431E+03  0.99293273277E+03  0.75961087984E+02 0.  0.
         25    2    1    2    0    0  0.31610916775E+01 -0.20611946178E+02 -0.18062369638E+03  0.22070775658E+03  0.12510855004E+03 0.  0.
        -24    2    1    2    0    0 -0.96257608459E+01  0.17836657669E+02  0.15032803657E+03  0.17127212310E+03  0.79528736598E+02 0.  0.
        -13    1    3    3    0    0  0.84040346882E+01 -0.34540635931E+02 -0.62964653364E+03  0.63064922156E+03  0.00000000000E+00 0.  1.
         14    1    3    3    0    0 -0.19393655199E+01  0.37315924441E+02 -0.36035136068E+03  0.36228351121E+03  0.00000000000E+00 0. -1.
         13    1    5    5    0    0  0.29577947158E+02  0.15057959473E+02  0.30182928906E+02  0.44862080858E+02  0.00000000000E+00 0. -1.
        -14    1    5    5    0    0 -0.39203708004E+02  0.27786981951E+01  0.12014510766E+03  0.12641004224E+03  0.00000000000E+00 0.  1.
          5    1    4    4  501    0 -0.21936887756E+02 -0.24236058651E+02  0.49827867051E+01  0.33330378736E+02  0.41800000000E+01 0.  1.
         -5    1    4    4    0  501  0.25097979434E+02  0.36241124726E+01 -0.18560648309E+03  0.18737737784E+03  0.41800000000E+01 0.  1.
</event>
<event>
11    1  0.7882745E-009  0.1523340E+03  0.7561462E-02  0.1094518E+00
         22   -1    0    0    0    0  0.00000000000E+00  0.00000000000E+00  0.10463212737E+03  0.10463212737E+03  0.00000000000E+00 0. -1.
         22   -1    0    0    0    0 -0.00000000000E+00 -0.00000000000E+00 -0.16511400213E+04  0.16511400213E+04  0.00000000000E+00 0.  1.
         24    2    1    2    0    0 -0.55705307594E+02 -0.50188835731E+02 -0.13617175933E+04  0.13660344898E+04  0.78443756999E+02 0.  0.
         25    2    1    2    0    0  0.10263439682E+03 -0.24500939125E+02 -0.21067550996E+03  0.26676931188E+03  0.12509028674E+03 0.  0.
        -24    2    1    2    0    0 -0.46929089227E+02  0.74689774856E+02  0.25885209341E+02  0.12296834693E+03  0.81671711144E+02 0.  0.
        -11    1    3    3    0    0 -0.73082487812E+02 -0.26050351567E+02 -0.10681315178E+04  0.10709456616E+04  0.00000000000E+00 0.  1.
         12    1    3    3    0    0  0.17377180218E+02 -0.24138484164E+02 -0.29358607551E+03  0.29508882823E+03  0.00000000000E+00 0. -1.
         11    1    5    5    0    0  0.37261141263E+01  0.65332471586E+02  0.27088179616E+00  0.65439201912E+02  0.00000000000E+00 0. -1.
        -12    1    5    5    0    0 -0.50655203354E+02  0.93573032707E+01  0.25614327545E+02  0.57529145021E+02  0.00000000000E+00 0.  1.
          5    1    4    4  501    0  0.19658552372E+02  0.22456372509E+02  0.53456259232E+01  0.30607114600E+02  0.41800000000E+01 0. -1.
         -5    1    4    4    0  501  0.82975844449E+02 -0.46957311635E+02 -0.21602113588E+03  0.23616219728E+03  0.41800000000E+01 0. -1.
</event>
<event>
11    1  0.7882745E-009  0.1363423E+03  0.7561462E-02  0.1111713E+00
         22   -1    0    0    0    0  0.00000000000E+00  0.00000000000E+00  0.88819626631E+03  0.88819626631E+03  0.00000000000E+00 0. -1.
         22   -1    0    0    0    0 -0.00000000000E+00 -0.00000000000E+00 -0.42902965097E+03  0.42902965097E+03  0.00000000000E+00 0. -1.
        -24    2    1    2    0    0 -0.12574067605E+02  0.52222183324E+02 -0.40302007989E+03  0.41457944860E+03  0.81028826949E+02 0.  0.
         25    2    1    2    0    0  0.79390435248E+01 -0.85737161181E+02  0.33196529151E+03  0.36505245355E+03  0.12509376426E+03 0.  0.
         24    2    1    2    0    0  0.46350240800E+01  0.33514977857E+02  0.53022140371E+03  0.53759401514E+03  0.82023478123E+02 0.  0.
        -13    1    5    5    0    0  0.25445151828E+02 -0.19204925148E+02  0.17519036172E+03  0.17806725622E+03  0.00000000000E+00 0.  1.
         14    1    5    5    0    0 -0.20810127748E+02  0.52719903005E+02  0.35503104200E+03  0.35952675891E+03  0.00000000000E+00 0. -1.
         13    1    3    3    0    0  0.10834841148E+02  0.26429011311E+02 -0.34986126761E+03  0.35102534523E+03  0.00000000000E+00 0. -1.
        -14    1    3    3    0    0 -0.23408908752E+02  0.25793172013E+02 -0.53158812282E+02  0.63554103366E+02  0.00000000000E+00 0.  1.
          5    1    4    4  501    0 -0.49454772539E+02 -0.45815557891E+01  0.81250629146E+02  0.95319999564E+02  0.41800000000E+01 0. -1.
         -5    1    4    4    0  501  0.57393816064E+02 -0.81155605392E+02  0.25071466237E+03  0.26973245399E+03  0.41800000000E+01 0. -1.
</event>
<event>
11    1  0.8405223E-009  0.1518128E+03  0.7561462E-02  0.1095041E+00
         22   -1    0    0    0    0  0.00000000000E+00  0.00000000000E+00  0.11566363602E+04  0.11566363602E+04  0.00000000000E+00 0. -1.
         22   -1    0    0    0    0 -0.00000000000E+00 -0.00000000000E+00 -0.44373692734E+03  0.44373692734E+03  0.00000000000E+00 0. -1.
         24    2    1    2    0    0  0.25339144404E+02  0.75476750866E+02 -0.25854751782E+03  0.28228941865E+03  0.80633025190E+02 0.  0.
         25    2    1    2    0    0  0.10059051592E+02 -0.11538311629E+03 -0.12874506154E+03  0.21362953351E+03  0.12509132133E+03 0.  0.
        -24    2    1    2    0    0 -0.35398195996E+02  0.39906365420E+02  0.11001920122E+04  0.11044543354E+04  0.80940502344E+02 0.  0.
        -11    1    3    3    0    0  0.65351275094E+01  0.19280056373E+02 -0.37606658256E+01  0.20701958186E+02  0.00000000000E+00 0.  1.
         12    1    3    3    0    0  0.18804016894E+02  0.56196694493E+02 -0.25478685200E+03  0.26158746047E+03  0.00000000000E+00 0. -1.
         13    1    5    5    0    0 -0.17982294009E+02  0.64399017270E+02  0.76977078679E+03  0.77266917922E+03  0.00000000000E+00 0. -1.
        -14    1    5    5    0    0 -0.17415901987E+02 -0.24492651850E+02  0.33042122542E+03  0.33178515616E+03  0.00000000000E+00 0.  1.
          5    1    4    4  501    0  0.43239019519E+02 -0.12622592361E+02  0.39535841131E+00  0.45239046797E+02  0.41800000000E+01 0.  1.
         -5    1    4    4    0  501 -0.33179967927E+02 -0.10276052393E+03 -0.12914041995E+03  0.16839048671E+03  0.41800000000E+01 0.  1.
</event>
<event>
11    1  0.7882745E-009  0.1600544E+03  0.7561462E-02  0.1087026E+00
         22   -1    0    0    0    0  0.00000000000E+00  0.00000000000E+00  0.56151223724E+03  0.56151223724E+03  0.00000000000E+00 0.  1.
         22   -1    0    0    0    0 -0.00000000000E+00 -0.00000000000E+00 -0.17399566505E+04  0.17399566505E+04  0.00000000000E+00 0.  1.
         24    2    1    2    0    0 -0.58367298948E+02  0.77186397092E+02 -0.11095007384E+04  0.11165839043E+04  0.80020280690E+02 0.  0.
         25    2    1    2    0    0  0.16983454830E+02 -0.12075711515E+03 -0.61005877431E+03  0.63457794381E+03  0.12508693001E+03 0.  0.
        -24    2    1    2    0    0  0.41383844119E+02  0.43570718055E+02  0.54111509954E+03  0.55030703955E+03  0.80132744890E+02 0.  0.
        -13    1    3    3    0    0 -0.59672095747E+02  0.64095757827E+02 -0.10869823485E+04  0.10905043104E+04  0.00000000000E+00 0.  1.
         14    1    3    3    0    0  0.13047967988E+01  0.13090639266E+02 -0.22518389981E+02  0.26079593908E+02  0.00000000000E+00 0. -1.
         11    1    5    5    0    0  0.55085837377E+02  0.22830473051E+01  0.25396963692E+03  0.25988504817E+03  0.00000000000E+00 0. -1.
        -12    1    5    5    0    0 -0.13701993258E+02  0.41287670750E+02  0.28714546262E+03  0.29042199138E+03  0.00000000000E+00 0.  1.
          5    1    4    4  501    0  0.35436818403E+01 -0.32953932179E+02 -0.22381490622E+02  0.40210979216E+02  0.41800000000E+01 0.  1.
         -5    1    4    4    0  501  0.13439772989E+02 -0.87803182969E+02 -0.58767728369E+03  0.59436696459E+03  0.41800000000E+01 0.  1.
</event>
<event>
11    1  0.7882745E-009  0.1347325E+03  0.7561462E-02  0.1113587E+00
         22   -1    0    0    0    0  0.00000000000E+00  0.00000000000E+00  0.14129215235E+04  0.14129215235E+04  0.00000000000E+00 0.  1.
         22   -1    0    0    0    0 -0.00000000000E+00 -0.00000000000E+00 -0.75727849560E+03  0.75727849560E+03  0.00000000000E+00 0.  1.
        -24    2    1    2    0    0 -0.81418440336E+01 -0.40158967914E+02 -0.72006859617E+03  0.72526892715E+03  0.76401578353E+02 0.  0.
         25    2    1    2    0    0 -0.19510129057E+02 -0.38252584432E+01  0.89061707874E+02  0.15483809520E+03  0.12509024813E+03 0.  0.
         24    2    1    2    0    0  0.27651973091E+02  0.43984226357E+02  0.12866499162E+04  0.12900929967E+04  0.78566466222E+02 0.  0.
        -13    1    5    5    0    0  0.24497056061E+02  0.22474314108E+02  0.12090045584E+04  0.12094615425E+04  0.00000000000E+00 0.  1.
         14    1    5    5    0    0  0.31549170294E+01  0.21509912249E+02  0.77645357801E+02  0.80631454250E+02  0.00000000000E+00 0. -1.
         11    1    3    3    0    0  0.25562503095E+02 -0.56902726288E+01 -0.10147958922E+03  0.10480423558E+03  0.00000000000E+00 0. -1.
        -12    1    3    3    0    0 -0.33704347129E+02 -0.34468695285E+02 -0.61858900695E+03  0.62046469158E+03  0.00000000000E+00 0.  1.
          5    1    4    4  501    0  0.46876631840E+02 -0.17971699874E+02  0.11478272904E+02  0.51668401929E+02  0.41800000000E+01 0. -1.
         -5    1    4    4    0  501 -0.66386760897E+02  0.14146441430E+02  0.77583434970E+02  0.10316969327E+03  0.41800000000E+01 0. -1.
</event>
<event>
11    1  0.7882745E-009  0.1540749E+03  0.7561462E-02  0.1092786E+00
         22   -1    0    0    0    0  0.00000000000E+00  0.00000000000E+00  0.11367904511E+04  0.11367904511E+04  0.00000000000E+00 0. -1.
         22   -1    0    0    0    0 -0.00000000000E+00 -0.00000000000E+00 -0.26883373107E+03  0.26883373107E+03  0.00000000000E+00 0.  1.
         24    2    1    2    0    0  0.54789412147E+02  0.73466065814E+02 -0.18243756474E+03  0.21989770909E+03  0.81684728857E+02 0.  0.
         25    2    1    2    0    0 -0.57592898789E+02 -0.59492363991E+02  0.19205258340E+02  0.15123836352E+03  0.12509163556E+03 0.  0.
        -24    2    1    2    0    0  0.28034866412E+01 -0.13973701823E+02  0.10311890265E+04  0.10344881096E+04  0.81312463519E+02 0.  0.
        -13    1    3    3    0    0  0.83546332199E+01  0.74594536351E+02 -0.97001149987E+02  0.12265140785E+03  0.00000000000E+00 0.  1.
         14    1    3    3    0    0  0.46434778928E+02 -0.11284705374E+01 -0.85436414748E+02  0.97246301239E+02  0.00000000000E+00 0. -1.
         11    1    5    5    0    0  0.86111155291E+01  0.15454466779E+02  0.88869926539E+03  0.88887534343E+03  0.00000000000E+00 0. -1.
        -12    1    5    5    0    0 -0.58076288879E+01 -0.29428168602E+02  0.14248976108E+03  0.14561276618E+03  0.00000000000E+00 0.  1.
          5    1    4    4  501    0  0.21265597665E+02 -0.54093323610E+02  0.38403605154E+02  0.69789845909E+02  0.41800000000E+01 0. -1.
         -5    1    4    4    0  501 -0.78858496454E+02 -0.53990403809E+01 -0.19198346814E+02  0.81448517607E+02  0.41800000000E+01 0. -1.
</event>
<event>
11    1  0.7882745E-009  0.1508334E+03  0.7561462E-02  0.1096030E+00
         22   -1    0    0    0    0  0.00000000000E+00  0.00000000000E+00  0.19114519816E+04  0.19114519816E+04  0.00000000000E+00 0. -1.
         22   -1    0    0    0    0 -0.00000000000E+00 -0.00000000000E+00 -0.10681719467E+03  0.10681719467E+03  0.00000000000E+00 0.  1.
        -24    2    1    2    0    0 -0.50709140296E+01  0.12047316285E+02 -0.77358960689E+02  0.11279363781E+03  0.81037916636E+02 0.  0.
         25    2    1    2    0    0  0.66783468097E+02 -0.65239215125E+02  0.67368904242E+03  0.69153322170E+03  0.12508031039E+03 0.  0.
         24    2    1    2    0    0 -0.61712554068E+02  0.53191898840E+02  0.12083047052E+04  0.12139423168E+04  0.83772730348E+02 0.  0.
        -11    1    5    5    0    0 -0.34958032119E+02  0.15246143213E+02  0.15529381434E+03  0.15990834145E+03  0.00000000000E+00 0.  1.
         12    1    5    5    0    0 -0.26754521949E+02  0.37945755627E+02  0.10530108909E+04  0.10540339753E+04  0.00000000000E+00 0. -1.
         13    1    3    3    0    0 -0.42571068665E+02  0.44239263219E+01 -0.49629068983E+02  0.65535574305E+02  0.00000000000E+00 0. -1.
        -14    1    3    3    0    0  0.37500154635E+02  0.76233899635E+01 -0.27729891706E+02  0.47258063505E+02  0.00000000000E+00 0.  1.
          5    1    4    4  501    0 -0.20002046973E+02 -0.52564932284E+02  0.14462066924E+03  0.15522810428E+03  0.41800000000E+01 0. -1.
         -5    1    4    4    0  501  0.86785515070E+02 -0.12674282842E+02  0.52906837318E+03  0.53630511742E+03  0.41800000000E+01 0. -1.
</event>
<event>
11    1  0.7882745E-009  0.1777504E+03  0.7561462E-02  0.1071477E+00
         22   -1    0    0    0    0  0.00000000000E+00  0.00000000000E+00  0.17705957181E+04  0.17705957181E+04  0.00000000000E+00 0. -1.
         22   -1    0    0    0    0 -0.00000000000E+00 -0.00000000000E+00 -0.89092458274E+03  0.89092458274E+03  0.00000000000E+00 0.  1.
         24    2    1    2    0    0 -0.28112251719E+02  0.61044437986E+02 -0.82720875175E+03  0.83357153624E+03  0.77784734722E+02 0.  0.
         25    2    1    2    0    0 -0.16719004140E+02 -0.17617635009E+03  0.14884004812E+03  0.26290377258E+03  0.12508957702E+03 0.  0.
        -24    2    1    2    0    0  0.44831255859E+02  0.11513191211E+03  0.15580398390E+04  0.15650449920E+04  0.81317209009E+02 0.  0.
        -11    1    3    3    0    0 -0.30120990141E+02  0.26480723787E+02 -0.71543989862E+03  0.71656315236E+03  0.00000000000E+00 0.  1.
         12    1    3    3    0    0  0.20087384228E+01  0.34563714198E+02 -0.11176885313E+03  0.11700838388E+03  0.00000000000E+00 0. -1.
         13    1    5    5    0    0  0.24812943658E+02  0.11907858701E+03  0.14501777761E+04  0.14552700692E+04  0.00000000000E+00 0. -1.
        -14    1    5    5    0    0  0.20018312201E+02 -0.39466749031E+01  0.10786206289E+03  0.10977492280E+03  0.00000000000E+00 0.  1.
          5    1    4    4  501    0 -0.58901713489E+01 -0.18777568200E+03  0.15672970872E+03  0.24469588240E+03  0.41800000000E+01 0.  1.
         -5    1    4    4    0  501 -0.10828832792E+02  0.11599331909E+02 -0.78896605954E+01  0.18207890176E+02  0.41800000000E+01 0.  1.
</event>
<event>
11    1  0.7882745E-009  0.1998918E+03  0.7561462E-02  0.1054600E+00
         22   -1    0    0    0    0  0.00000000000E+00  0.00000000000E+00  0.29887510285E+04  0.29887510285E+04  0.00000000000E+00 0.  1.
         22   -1    0    0    0    0 -0.00000000000E+00 -0.00000000000E+00 -0.89965375523E+02  0.89965375523E+02  0.00000000000E+00 0. -1.
        -24    2    1    2    0    0 -0.17847579810E+02  0.13919443587E+03  0.39242752016E+02  0.16641658791E+03  0.80379475391E+02 0.  0.
         25    2    1    2    0    0 -0.10002185427E+03 -0.22591790092E+03  0.81115609377E+03  0.85712963525E+03  0.12511488270E+03 0.  0.
         24    2    1    2    0    0  0.11786943408E+03  0.86723465048E+02  0.20483868072E+04  0.20551701809E+04  0.80136118773E+02 0.  0.
        -13    1    5    5    0    0  0.47744536441E+02  0.74734727800E+02  0.14205502187E+04  0.14233157570E+04  0.00000000000E+00 0.  1.
         14    1    5    5    0    0  0.70124897643E+02  0.11988737248E+02  0.62783658848E+03  0.63185442384E+03  0.00000000000E+00 0. -1.
         11    1    3    3    0    0 -0.71329745887E+00  0.22413955482E+02 -0.23719797389E+02  0.32642349514E+02  0.00000000000E+00 0. -1.
        -12    1    3    3    0    0 -0.17134282351E+02  0.11678048039E+03  0.62962549405E+02  0.13377423840E+03  0.00000000000E+00 0.  1.
          5    1    4    4  501    0 -0.83004403605E+02 -0.10015556133E+03  0.25069613814E+03  0.28246573874E+03  0.41800000000E+01 0. -1.
         -5    1    4    4    0  501 -0.17017450669E+02 -0.12576233959E+03  0.56045995563E+03  0.57466389651E+03  0.41800000000E+01 0. -1.
</event>
<event>
11    1  0.7882745E-009  0.1582867E+03  0.7561462E-02  0.1088700E+00
         22   -1    0    0    0    0  0.00000000000E+00  0.00000000000E+00  0.14789571033E+04  0.14789571033E+04  0.00000000000E+00 0.  1.
         22   -1    0    0    0    0 -0.00000000000E+00 -0.00000000000E+00 -0.26602415481E+03  0.26602415481E+03  0.00000000000E+00 0. -1.
         24    2    1    2    0    0 -0.64206931034E+01  0.15407558506E+02 -0.23581554930E+03  0.25173033957E+03  0.86490302408E+02 0.  0.
         25    2    1    2    0    0  0.11481510578E+02 -0.10990386772E+03  0.34932901419E+03  0.38715371732E+03  0.12508619210E+03 0.  0.
        -24    2    1    2    0    0 -0.50608174742E+01  0.94496309215E+02  0.10994194836E+04  0.11060972013E+04  0.75977978980E+02 0.  0.
        -11    1    3    3    0    0 -0.25393775106E+02 -0.50613538480E+01 -0.16627013892E+02  0.30772044259E+02  0.00000000000E+00 0.  1.
         12    1    3    3    0    0  0.18973082002E+02  0.20468912354E+02 -0.21918853541E+03  0.22095829531E+03  0.00000000000E+00 0. -1.
         11    1    5    5    0    0  0.19726014360E+02  0.68107071560E+02  0.93758682268E+03  0.94026418569E+03  0.00000000000E+00 0. -1.
        -12    1    5    5    0    0 -0.24786831834E+02  0.26389237655E+02  0.16183266097E+03  0.16583301557E+03  0.00000000000E+00 0.  1.
          5    1    4    4  501    0  0.26046475462E+02 -0.21918479223E+01  0.20356255861E+03  0.20527642521E+03  0.41800000000E+01 0. -1.
         -5    1    4    4    0  501 -0.14564964884E+02 -0.10771201980E+03  0.14576645558E+03  0.18187729211E+03  0.41800000000E+01 0. -1.
</event>
<event>
11    1  0.7882745E-009  0.1353547E+03  0.7561462E-02  0.1112859E+00
         22   -1    0    0    0    0  0.00000000000E+00  0.00000000000E+00  0.17028025931E+03  0.17028025931E+03  0.00000000000E+00 0. -1.
         22   -1    0    0    0    0 -0.00000000000E+00 -0.00000000000E+00 -0.21428793500E+04  0.21428793500E+04  0.00000000000E+00 0.  1.
         24    2    1    2    0    0  0.29868034267E+01 -0.51925265988E+02 -0.19063380945E+04  0.19087180588E+04  0.79840735448E+02 0.  0.
         25    2    1    2    0    0 -0.24383186463E+02  0.88720435506E+00 -0.19824802801E+03  0.23567655419E+03  0.12508329493E+03 0.  0.
        -24    2    1    2    0    0  0.21396383036E+02  0.51038061633E+02  0.13198703180E+03  0.16876499637E+03  0.89433542328E+02 0.  0.
        -11    1    3    3    0    0 -0.19807598015E+02 -0.57285443473E+02 -0.16955958554E+04  0.16966788936E+04  0.00000000000E+00 0.  1.
         12    1    3    3    0    0  0.22794401442E+02  0.53601774842E+01 -0.21074223908E+03  0.21203916518E+03  0.00000000000E+00 0. -1.
         11    1    5    5    0    0  0.16422452686E+02  0.67723804479E+02  0.13419903651E+03  0.15121372969E+03  0.00000000000E+00 0. -1.
        -12    1    5    5    0    0  0.49739303503E+01 -0.16685742846E+02 -0.22120047051E+01  0.17551266686E+02  0.00000000000E+00 0.  1.
          5    1    4    4  501    0  0.18352167764E+02 -0.54295298757E+02 -0.92883861895E+02  0.10922300916E+03  0.41800000000E+01 0.  1.
         -5    1    4    4    0  501 -0.42735354226E+02  0.55182503112E+02 -0.10536416611E+03  0.12645354503E+03  0.41800000000E+01 0.  1.
</event>
<event>
11    1  0.7882745E-009  0.1861869E+03  0.7561462E-02  0.1064745E+00
         22   -1    0    0    0    0  0.00000000000E+00  0.00000000000E+00  0.51204166974E+03  0.51204166974E+03  0.00000000000E+00 0. -1.
         22   -1    0    0    0    0 -0.00000000000E+00 -0.00000000000E+00 -0.24955923926E+04  0.24955923926E+04  0.00000000000E+00 0.  1.
        -24    2    1    2    0    0 -0.44237043841E+02  0.74751291602E+02 -0.23147181946E+04  0.23177201563E+04  0.79760458422E+02 0.  0.
         25    2    1    2    0    0  0.14960702950E+03 -0.15350600427E+03 -0.71999794450E+02  0.25841348838E+03  0.12508878428E+03 0.  0.
         24    2    1    2    0    0 -0.10536998566E+03  0.78754712663E+02  0.40316726624E+03  0.43150041764E+03  0.79646890809E+02 0.  0.
        -11    1    5    5    0    0 -0.25207878933E+02  0.40775850427E+02  0.58661008372E+02  0.75757646753E+02  0.00000000000E+00 0.  1.
         12    1    5    5    0    0 -0.80162106724E+02  0.37978862237E+02  0.34450625786E+03  0.35574277089E+03  0.00000000000E+00 0. -1.
         13    1    3    3    0    0 -0.62316075633E+02  0.47388606025E+02 -0.12190506469E+04  0.12215618908E+04  0.00000000000E+00 0. -1.
        -14    1    3    3    0    0  0.18079031792E+02  0.27362685577E+02 -0.10956675478E+04  0.10961582656E+04  0.00000000000E+00 0.  1.
          5    1    4    4  501    0  0.23515112148E+02 -0.11306553353E+03 -0.29284593820E+02  0.11921340196E+03  0.41800000000E+01 0.  1.
         -5    1    4    4    0  501  0.12609191735E+03 -0.40440470739E+02 -0.42715200630E+02  0.13920008642E+03  0.41800000000E+01 0.  1.
</event>
<event>
11    1  0.7882745E-009  0.1334729E+03  0.7561462E-02  0.1115074E+00
         22   -1    0    0    0    0  0.00000000000E+00  0.00000000000E+00  0.12345690950E+03  0.12345690950E+03  0.00000000000E+00 0. -1.
         22   -1    0    0    0    0 -0.00000000000E+00 -0.00000000000E+00 -0.59130259376E+03  0.59130259376E+03  0.00000000000E+00 0.  1.
        -24    2    1    2    0    0 -0.14519388677E+02  0.42284432939E+02 -0.44322079738E+03  0.45268273016E+03  0.80487222839E+02 0.  0.
         25    2    1    2    0    0  0.12280463578E+02 -0.61009905546E+02 -0.81564435502E+02  0.16179571768E+03  0.12510826816E+03 0.  0.
         24    2    1    2    0    0  0.22389250987E+01  0.18725472606E+02  0.56939548630E+02  0.10028105541E+03  0.80364928712E+02 0.  0.
        -13    1    5    5    0    0  0.31648098751E+02 -0.64204883046E+01  0.10572448740E+01  0.32310100454E+02  0.00000000000E+00 0.  1.
         14    1    5    5    0    0 -0.29409173653E+02  0.25145960911E+02  0.55882303756E+02  0.67970954960E+02  0.00000000000E+00 0. -1.
         13    1    3    3    0    0  0.26198647864E+02 -0.58828812506E+01 -0.91778461876E+02  0.95625642513E+02  0.00000000000E+00 0. -1.
        -14    1    3    3    0    0 -0.40718036541E+02  0.48167314190E+02 -0.35144233550E+03  0.35705708765E+03  0.00000000000E+00 0.  1.
          5    1    4    4  501    0 -0.53118321074E+02 -0.15938627860E+02 -0.13787742623E+02  0.57298954078E+02  0.41800000000E+01 0.  1.
         -5    1    4    4    0  501  0.65398784652E+02 -0.45071277686E+02 -0.67776692879E+02  0.10449676361E+03  0.41800000000E+01 0.  1.
</event>
<event>
11    1  0.7882745E-009  0.1522998E+03  0.7561462E-02  0.1094552E+00
         22   -1    0    0    0    0  0.00000000000E+00  0.00000000000E+00  0.11293954825E+04  0.11293954825E+04  0.00000000000E+00 0. -1.
         22   -1    0    0    0    0 -0.00000000000E+00 -0.00000000000E+00 -0.29603258453E+03  0.29603258453E+03  0.00000000000E+00 0. -1.
         24    2    1    2    0    0  0.47145571957E+02  0.99452121385E+01 -0.27219579123E+03  0.28579888512E+03  0.72586787894E+02 0.  0.
         25    2    1    2    0    0 -0.11384369972E+03 -0.24462880617E+02  0.68818767472E+03  0.70908931164E+03  0.12508619330E+03 0.  0.
        -24    2    1    2    0    0  0.66698127761E+02  0.14517668479E+02  0.41737101447E+03  0.43053987026E+03  0.80663580478E+02 0.  0.
        -13    1    3    3    0    0  0.76253087185E+01  0.56519792634E+01  0.11649369590E+01  0.95628071592E+01  0.00000000000E+00 0.  1.
         14    1    3    3    0    0  0.39520263239E+02  0.42932328751E+01 -0.27336072819E+03  0.27623607796E+03  0.00000000000E+00 0. -1.
         11    1    5    5    0    0  0.60314436753E+02  0.40583891096E+02  0.22887285015E+03  0.24014092744E+03  0.00000000000E+00 0. -1.
        -12    1    5    5    0    0  0.63836910083E+01 -0.26066222617E+02  0.18849816432E+03  0.19039894281E+03  0.00000000000E+00 0.  1.
          5    1    4    4  501    0 -0.10376077441E+03 -0.39233129605E+02  0.67996501790E+03  0.68896693298E+03  0.41800000000E+01 0.  1.
         -5    1    4    4    0  501 -0.10082925307E+02  0.14770248987E+02  0.82226568135E+01  0.20122378661E+02  0.41800000000E+01 0.  1.
</event>
<event>
11    1  0.7882745E-009  0.1693433E+03  0.7561462E-02  0.1078605E+00
         22   -1    0    0    0    0  0.00000000000E+00  0.00000000000E+00  0.63012990133E+02  0.63012990133E+02  0.00000000000E+00 0. -1.
         22   -1    0    0    0    0 -0.00000000000E+00 -0.00000000000E+00 -0.10265801137E+04  0.10265801137E+04  0.00000000000E+00 0.  1.
         24    2    1    2    0    0 -0.12931443552E+03 -0.96867860428E+02 -0.54514129174E+03  0.57452623849E+03  0.82436430897E+02 0.  0.
         25    2    1    2    0    0  0.56259441066E+02  0.38211677564E+02 -0.33974289718E+03  0.36837007403E+03  0.12508404474E+03 0.  0.
        -24    2    1    2    0    0  0.73054994452E+02  0.58656182865E+02 -0.78682934614E+02  0.14669679127E+03  0.80940498932E+02 0.  0.
        -11    1    3    3    0    0 -0.67111001032E+02 -0.81939036922E+02 -0.42954514559E+03  0.44241035739E+03  0.00000000000E+00 0.  1.
         12    1    3    3    0    0 -0.62203434486E+02 -0.14928823506E+02 -0.11559614615E+03  0.13211588109E+03  0.00000000000E+00 0. -1.
         11    1    5    5    0    0  0.14676507230E+02  0.62452837524E+02 -0.51102123528E+02  0.82019411168E+02  0.00000000000E+00 0. -1.
        -12    1    5    5    0    0  0.58378487222E+02 -0.37966546592E+01 -0.27580811086E+02  0.64677380104E+02  0.00000000000E+00 0.  1.
          5    1    4    4  501    0  0.73411927059E+01  0.70410257784E+02 -0.25902606636E+03  0.26855813703E+03  0.41800000000E+01 0. -1.
         -5    1    4    4    0  501  0.48918248361E+02 -0.32198580220E+02 -0.80716830817E+02  0.99811937002E+02  0.41800000000E+01 0. -1.
</event>
<event>
11    1  0.7882745E-009  0.1403035E+03  0.7561462E-02  0.1107220E+00
         22   -1    0    0    0    0  0.00000000000E+00  0.00000000000E+00  0.24262854757E+04  0.24262854757E+04  0.00000000000E+00 0. -1.
         22   -1    0    0    0    0 -0.00000000000E+00 -0.00000000000E+00 -0.38152657967E+03  0.38152657967E+03  0.00000000000E+00 0. -1.
         24    2    1    2    0    0  0.40393905566E+02 -0.28931010122E+02 -0.36884461251E+03  0.38094384264E+03  0.81260027791E+02 0.  0.
         25    2    1    2    0    0 -0.91105982944E+02  0.15939950131E+02  0.13268183539E+04  0.13359072377E+04  0.12508725487E+03 0.  0.
        -24    2    1    2    0    0  0.50712077378E+02  0.12991059992E+02  0.10867851546E+04  0.10909609750E+04  0.79708181911E+02 0.  0.
        -13    1    3    3    0    0 -0.37141834685E+01 -0.76275138590E+01  0.37222539821E+00  0.84919184084E+01  0.00000000000E+00 0.  1.
         14    1    3    3    0    0  0.44108089034E+02 -0.21303496263E+02 -0.36921683791E+03  0.37245192423E+03  0.00000000000E+00 0. -1.
         11    1    5    5    0    0  0.56962087184E+02 -0.69830590767E+01  0.10015894342E+04  0.10032321950E+04  0.00000000000E+00 0. -1.
        -12    1    5    5    0    0 -0.62500098068E+01  0.19974119068E+02  0.85195720445E+02  0.87728779983E+02  0.00000000000E+00 0.  1.
          5    1    4    4  501    0 -0.78446438379E+01  0.93539897418E+01  0.94282737045E+03  0.94291566878E+03  0.41800000000E+01 0. -1.
         -5    1    4    4    0  501 -0.83261339106E+02  0.65859603890E+01  0.38399098342E+03  0.39299156888E+03  0.41800000000E+01 0. -1.
</event>
<event>
11    1  0.7882745E-009  0.1425470E+03  0.7561462E-02  0.1104747E+00
         22   -1    0    0    0    0  0.00000000000E+00  0.00000000000E+00  0.14181447333E+04  0.14181447333E+04  0.00000000000E+00 0.  1.
         22   -1    0    0    0    0 -0.00000000000E+00 -0.00000000000E+00 -0.16410657752E+04  0.16410657752E+04  0.00000000000E+00 0. -1.
        -24    2    1    2    0    0  0.38029220947E+02 -0.57607547856E+02 -0.15954105287E+04  0.15988799091E+04  0.79481806772E+02 0.  0.
         25    2    1    2    0    0 -0.32080125343E+02  0.14433109540E+02  0.57456144897E+02  0.14207619950E+03  0.12508792421E+03 0.  0.
         24    2    1    2    0    0 -0.59490956037E+01  0.43174438316E+02  0.13150333418E+04  0.13182543998E+04  0.81132907584E+02 0.  0.
        -13    1    5    5    0    0  0.37359599101E+02  0.19412699469E+02  0.68041626513E+03  0.68171760018E+03  0.00000000000E+00 0.  1.
         14    1    5    5    0    0 -0.43308694704E+02  0.23761738847E+02  0.63461707670E+03  0.63653679965E+03  0.00000000000E+00 0. -1.
         11    1    3    3    0    0 -0.54771682789E+01 -0.26232968979E+02 -0.11409756593E+04  0.11412903325E+04  0.00000000000E+00 0. -1.
        -12    1    3    3    0    0  0.43506389226E+02 -0.31374578877E+02 -0.45443486936E+03  0.45758957658E+03  0.00000000000E+00 0.  1.
          5    1    4    4  501    0 -0.26016676427E+02  0.20641537706E+01  0.96714828759E+02  0.10026145164E+03  0.41800000000E+01 0. -1.
         -5    1    4    4    0  501 -0.60634489164E+01  0.12368955769E+02 -0.39258683862E+02  0.41814747855E+02  0.41800000000E+01 0. -1.
</event>
<event>
11    1  0.7882745E-009  0.1279106E+03  0.7561462E-02  0.1121863E+00
         22   -1    0    0    0    0  0.00000000000E+00  0.00000000000E+00  0.37657264230E+03  0.37657264230E+03  0.00000000000E+00 0.  1.
         22   -1    0    0    0    0 -0.00000000000E+00 -0.00000000000E+00 -0.64185376411E+03  0.64185376411E+03  0.00000000000E+00 0. -1.
        -24    2    1    2    0    0 -0.14454359548E+02 -0.18790563735E+01 -0.56179161075E+03  0.56794806606E+03  0.82114142952E+02 0.  0.
         25    2    1    2    0    0  0.21764806576E+02 -0.23616472173E+02 -0.12380215783E+02  0.12973907394E+03  0.12509001959E+03 0.  0.
         24    2    1    2    0    0 -0.73104470272E+01  0.25495528546E+02  0.30889070472E+03  0.32073926641E+03  0.82199421806E+02 0.  0.
        -11    1    5    5    0    0 -0.13461465810E+02  0.52739774633E+02  0.15365277516E+03  0.16300880407E+03  0.00000000000E+00 0.  1.
         12    1    5    5    0    0  0.61510187832E+01 -0.27244246086E+02  0.15523792955E+03  0.15773046234E+03  0.00000000000E+00 0. -1.
         13    1    3    3    0    0 -0.10595663930E+02  0.36506009324E+02 -0.39150905926E+03  0.39335009888E+03  0.00000000000E+00 0. -1.
        -14    1    3    3    0    0 -0.38586956182E+01 -0.38385065697E+02 -0.17028255149E+03  0.17459796718E+03  0.00000000000E+00 0.  1.
          5    1    4    4  501    0 -0.28099882425E+02  0.32459678028E+02  0.20434339073E+02  0.47731213093E+02  0.41800000000E+01 0.  1.
         -5    1    4    4    0  501  0.49864689001E+02 -0.56076150200E+02 -0.32814554855E+02  0.82007860847E+02  0.41800000000E+01 0.  1.
</event>
<event>
11    1  0.7882745E-009  0.1337665E+03  0.7561462E-02  0.1114726E+00
         22   -1    0    0    0    0  0.00000000000E+00  0.00000000000E+00  0.22909744565E+04  0.22909744565E+04  0.00000000000E+00 0. -1.
         22   -1    0    0    0    0 -0.00000000000E+00 -0.00000000000E+00 -0.17257306320E+04  0.17257306320E+04  0.00000000000E+00 0. -1.
        -24    2    1    2    0    0 -0.29794399109E+02 -0.38130409057E+02 -0.16023539241E+04  0.16059355996E+04  0.95652587512E+02 0.  0.
         25    2    1    2    0    0  0.50985143749E+02 -0.79969207720E+01 -0.82263124791E+02  0.15836244286E+03  0.12509199008E+03 0.  0.
         24    2    1    2    0    0 -0.21190744640E+02  0.46127329829E+02  0.22498608735E+04  0.22524070460E+04  0.94269680708E+02 0.  0.
        -11    1    5    5    0    0  0.72742669815E+01 -0.12321883338E+01  0.13672514930E+02  0.15536116397E+02  0.00000000000E+00 0.  1.
         12    1    5    5    0    0 -0.28465011622E+02  0.47359518162E+02  0.22361883586E+04  0.22368709297E+04  0.00000000000E+00 0. -1.
         11    1    3    3    0    0 -0.63127989260E+02 -0.35501771910E+02 -0.97134915667E+03  0.97404553436E+03  0.00000000000E+00 0. -1.
        -12    1    3    3    0    0  0.33333590151E+02 -0.26286371466E+01 -0.63100476747E+03  0.63189006523E+03  0.00000000000E+00 0.  1.
          5    1    4    4  501    0  0.44523801398E+02  0.47930098537E+02 -0.94537884160E+01  0.66230731176E+02  0.41800000000E+01 0.  1.
         -5    1    4    4    0  501  0.64613423513E+01 -0.55927019309E+02 -0.72809336375E+02  0.92131711680E+02  0.41800000000E+01 0.  1.
</event>
<event>
11    1  0.7882745E-009  0.1695153E+03  0.7561462E-02  0.1078454E+00
         22   -1    0    0    0    0  0.00000000000E+00  0.00000000000E+00  0.37304359304E+03  0.37304359304E+03  0.00000000000E+00 0.  1.
         22   -1    0    0    0    0 -0.00000000000E+00 -0.00000000000E+00 -0.42289339763E+03  0.42289339763E+03  0.00000000000E+00 0. -1.
        -24    2    1    2    0    0  0.30706210456E+02 -0.10952905811E+03 -0.36078827984E+03  0.38656803657E+03  0.79543561018E+02 0.  0.
         25    2    1    2    0    0 -0.72702079437E+01  0.12811378091E+03  0.18406331438E+03  0.25689130750E+03  0.12509134017E+03 0.  0.
         24    2    1    2    0    0 -0.23436002513E+02 -0.18584722800E+02  0.12687516087E+03  0.15247764660E+03  0.79104286416E+02 0.  0.
        -13    1    5    5    0    0 -0.34427775455E+02 -0.44054791739E+02  0.94903037724E+02  0.11014845876E+03  0.00000000000E+00 0.  1.
         14    1    5    5    0    0  0.10991772942E+02  0.25470068939E+02  0.31972123150E+02  0.42329187837E+02  0.00000000000E+00 0. -1.
         11    1    3    3    0    0  0.34220923265E+02 -0.63113184579E+02 -0.30769016050E+03  0.31595502928E+03  0.00000000000E+00 0. -1.
        -12    1    3    3    0    0 -0.35147128088E+01 -0.46415873532E+02 -0.53098119332E+02  0.70613007290E+02  0.00000000000E+00 0.  1.
          5    1    4    4  501    0 -0.20105444697E+02  0.83168277911E+01 -0.13139096741E+02  0.25758625626E+02  0.41800000000E+01 0. -1.
         -5    1    4    4    0  501  0.12835236753E+02  0.11979695312E+03  0.19720241112E+03  0.23113268187E+03  0.41800000000E+01 0. -1.
</event>
<event>
11    1  0.7882745E-009  0.2033021E+03  0.7561462E-02  0.1052213E+00
         22   -1    0    0    0    0  0.00000000000E+00  0.00000000000E+00  0.17558350803E+03  0.17558350803E+03  0.00000000000E+00 0. -1.
         22   -1    0    0    0    0 -0.00000000000E+00 -0.00000000000E+00 -0.77233229612E+03  0.77233229612E+03  0.00000000000E+00 0. -1.
        -24    2    1    2    0    0 -0.43235105188E+02  0.15330046201E+03 -0.55461871119E+03  0.58277030571E+03  0.81541452305E+02 0.  0.
         25    2    1    2    0    0  0.73077912522E+02 -0.14955690290E+03 -0.12862116892E+03  0.24474170152E+03  0.12508975524E+03 0.  0.
         24    2    1    2    0    0 -0.29842807334E+02 -0.37435591127E+01  0.86491092016E+02  0.12040379692E+03  0.78177732961E+02 0.  0.
        -13    1    5    5    0    0 -0.69319779298E+01 -0.28941904706E+02  0.80498771959E+02  0.85823880435E+02  0.00000000000E+00 0.  1.
         14    1    5    5    0    0 -0.22910829405E+02  0.25198345594E+02  0.59923200572E+01  0.34579916488E+02  0.00000000000E+00 0. -1.
         13    1    3    3    0    0 -0.49069011265E+02  0.11065025287E+03 -0.28355017112E+03  0.30830495596E+03  0.00000000000E+00 0. -1.
        -14    1    3    3    0    0  0.58339060772E+01  0.42650209148E+02 -0.27106854007E+03  0.27446534975E+03  0.00000000000E+00 0.  1.
          5    1    4    4  501    0  0.10867363306E+03 -0.11409629232E+03 -0.93074986538E+02  0.18305285565E+03  0.41800000000E+01 0. -1.
         -5    1    4    4    0  501 -0.35595720533E+02 -0.35460610585E+02 -0.35546182382E+02  0.61688845874E+02  0.41800000000E+01 0. -1.
</event>
<event>
11    1  0.7882745E-009  0.1342883E+03  0.7561462E-02  0.1114109E+00
         22   -1    0    0    0    0  0.00000000000E+00  0.00000000000E+00  0.17111881471E+04  0.17111881471E+04  0.00000000000E+00 0. -1.
         22   -1    0    0    0    0 -0.00000000000E+00 -0.00000000000E+00 -0.12566593977E+04  0.12566593977E+04  0.00000000000E+00 0.  1.
        -24    2    1    2    0    0 -0.90961853198E+01  0.19900155357E+02 -0.11277935948E+04  0.11309997828E+04  0.82239645356E+02 0.  0.
         25    2    1    2    0    0 -0.36323579212E+02 -0.14238894810E+01 -0.92190824182E+02  0.15958205269E+03  0.12508338662E+03 0.  0.
         24    2    1    2    0    0  0.45419764531E+02 -0.18476265876E+02  0.16745131685E+04  0.16772657093E+04  0.82592862124E+02 0.  0.
        -11    1    5    5    0    0 -0.23435751344E+02 -0.12902389419E+02  0.51984103186E+03  0.52052896605E+03  0.00000000000E+00 0.  1.
         12    1    5    5    0    0  0.68855515876E+02 -0.55738764573E+01  0.11546721366E+04  0.11567367433E+04  0.00000000000E+00 0. -1.
         11    1    3    3    0    0 -0.35963991873E+01  0.32669527568E+02 -0.17239629331E+03  0.17550132212E+03  0.00000000000E+00 0. -1.
        -12    1    3    3    0    0 -0.54997861325E+01 -0.12769372210E+02 -0.95539730153E+03  0.95549846064E+03  0.00000000000E+00 0.  1.
          5    1    4    4  501    0 -0.64295717409E+02 -0.55303579353E+01 -0.17056611629E+01  0.64690848009E+02  0.41800000000E+01 0. -1.
         -5    1    4    4    0  501  0.27972138198E+02  0.41064684542E+01 -0.90485163020E+02  0.94891204678E+02  0.41800000000E+01 0. -1.
</event>
<event>
11    1  0.7882745E-009  0.1462772E+03  0.7561462E-02  0.1100745E+00
         22   -1    0    0    0    0  0.00000000000E+00  0.00000000000E+00  0.73002349088E+03  0.73002349088E+03  0.00000000000E+00 0.  1.
         22   -1    0    0    0    0 -0.00000000000E+00 -0.00000000000E+00 -0.19103011852E+03  0.19103011852E+03  0.00000000000E+00 0.  1.
        -24    2    1    2    0    0 -0.40413779737E+02 -0.60612881598E+02 -0.12816134430E+03  0.16778065140E+03  0.80111308839E+02 0.  0.
         25    2    1    2    0    0  0.68493426257E+02  0.75029870508E+02  0.12489922195E+03  0.20387965537E+03  0.12508504036E+03 0.  0.
         24    2    1    2    0    0 -0.28079646520E+02 -0.14416988910E+02  0.54225549472E+03  0.54939330262E+03  0.82435813213E+02 0.  0.
        -11    1    5    5    0    0 -0.36673425817E+02  0.80147264855E+01  0.49463234528E+03  0.49605476814E+03  0.00000000000E+00 0.  1.
         12    1    5    5    0    0  0.85937792972E+01 -0.22431715396E+02  0.47623149439E+02  0.53338534482E+02  0.00000000000E+00 0. -1.
         11    1    3    3    0    0  0.12977197288E+02  0.97878658120E+01 -0.66988817143E+01  0.17580812917E+02  0.00000000000E+00 0. -1.
        -12    1    3    3    0    0 -0.53390977025E+02 -0.70400747410E+02 -0.12146246259E+03  0.15019983848E+03  0.00000000000E+00 0.  1.
          5    1    4    4  501    0  0.63026092429E+02 -0.11782152755E+02  0.19477883897E+02  0.67141401620E+02  0.41800000000E+01 0. -1.
         -5    1    4    4    0  501  0.54673338275E+01  0.86812023264E+02  0.10542133805E+03  0.13673825375E+03  0.41800000000E+01 0. -1.
</event>
<event>
11    1  0.7882745E-009  0.1530094E+03  0.7561462E-02  0.1093843E+00
         22   -1    0    0    0    0  0.00000000000E+00  0.00000000000E+00  0.53816218001E+03  0.53816218001E+03  0.00000000000E+00 0.  1.
         22   -1    0    0    0    0 -0.00000000000E+00 -0.00000000000E+00 -0.15399692278E+03  0.15399692278E+03  0.00000000000E+00 0.  1.
        -24    2    1    2    0    0 -0.35506794114E+02 -0.56683105256E+02 -0.84833967441E+02  0.13447361554E+03  0.80078988481E+02 0.  0.
         25    2    1    2    0    0  0.11434690953E+03  0.47474444768E+02  0.20197500571E+03  0.26790042082E+03  0.12509074273E+03 0.  0.
         24    2    1    2    0    0 -0.78840115420E+02  0.92086604872E+01  0.26702421896E+03  0.28978506644E+03  0.79830370107E+02 0.  0.
        -13    1    5    5    0    0 -0.78014208719E+02  0.32904308649E+02  0.23606332101E+03  0.25078836061E+03  0.00000000000E+00 0.  1.
         14    1    5    5    0    0 -0.82590670070E+00 -0.23695648162E+02  0.30960897946E+02  0.38996705826E+02  0.00000000000E+00 0. -1.
         13    1    3    3    0    0 -0.20065320504E+02 -0.70848576676E+02 -0.37338263212E+02  0.82560788536E+02  0.00000000000E+00 0. -1.
        -14    1    3    3    0    0 -0.15441473609E+02  0.14165471421E+02 -0.47495704229E+02  0.51912827008E+02  0.00000000000E+00 0.  1.
          5    1    4    4  501    0  0.12223062859E+03  0.19248976814E+01  0.17711464355E+03  0.21524660545E+03  0.41800000000E+01 0.  1.
         -5    1    4    4    0  501 -0.78837190600E+01  0.45549547087E+02  0.24860362164E+02  0.52653815370E+02  0.41800000000E+01 0.  1.
</event>
<event>
11    1  0.7882745E-009  0.1707195E+03  0.7561462E-02  0.1077407E+00
         22   -1    0    0    0    0  0.00000000000E+00  0.00000000000E+00  0.13086509075E+04  0.13086509075E+04  0.00000000000E+00 0.  1.
         22   -1    0    0    0    0 -0.00000000000E+00 -0.00000000000E+00 -0.13341434034E+03  0.13341434034E+03  0.00000000000E+00 0. -1.
         24    2    1    2    0    0 -0.12461681021E+03  0.45556530265E+02 -0.47418633906E+02  0.16169161281E+03  0.79315219052E+02 0.  0.
         25    2    1    2    0    0  0.65772004503E+02  0.21219094056E+02  0.18318480898E+03  0.23233685178E+03  0.12509009524E+03 0.  0.
        -24    2    1    2    0    0  0.58844805707E+02 -0.66775624321E+02  0.10394703921E+04  0.10480367833E+04  0.99803345944E+02 0.  0.
        -13    1    3    3    0    0 -0.93684421982E+02 -0.54590346622E+01 -0.38211307973E+02  0.10132460727E+03  0.00000000000E+00 0.  1.
         14    1    3    3    0    0 -0.30932388228E+02  0.51015564927E+02 -0.92073259323E+01  0.60367005534E+02  0.00000000000E+00 0. -1.
         13    1    5    5    0    0  0.13407547384E+02 -0.85737986148E+01  0.18514469139E+02  0.24414297390E+02  0.00000000000E+00 0. -1.
        -14    1    5    5    0    0  0.45437258323E+02 -0.58201825706E+02  0.10209559230E+04  0.10236224859E+04  0.00000000000E+00 0.  1.
          5    1    4    4  501    0 -0.34269860387E+02  0.25130892901E+02  0.53928934611E+02  0.68787989484E+02  0.41800000000E+01 0.  1.
         -5    1    4    4    0  501  0.10004186489E+03 -0.39117988448E+01  0.12925587437E+03  0.16354886230E+03  0.41800000000E+01 0.  1.
</event>
<event>
11    1  0.7882745E-009  0.2224585E+03  0.7561462E-02  0.1039688E+00
         22   -1    0    0    0    0  0.00000000000E+00  0.00000000000E+00  0.36203076164E+03  0.36203076164E+03  0.00000000000E+00 0. -1.
         22   -1    0    0    0    0 -0.00000000000E+00 -0.00000000000E+00 -0.24950836156E+03  0.24950836156E+03  0.00000000000E+00 0. -1.
        -24    2    1    2    0    0  0.41887426891E+01  0.20757797712E+01 -0.50192597057E+02  0.94340410007E+02  0.79743098347E+02 0.  0.
         25    2    1    2    0    0  0.13916412955E+03  0.11484455556E+03 -0.49001311411E+02  0.22495861209E+03  0.12509724912E+03 0.  0.
         24    2    1    2    0    0 -0.14335287224E+03 -0.11692033533E+03  0.21171630855E+03  0.29224010110E+03  0.79750050717E+02 0.  0.
        -13    1    5    5    0    0 -0.12488985248E+02 -0.34430725181E+02  0.84000138802E+02  0.91637726444E+02  0.00000000000E+00 0.  1.
         14    1    5    5    0    0 -0.13086388699E+03 -0.82489610150E+02  0.12771616975E+03  0.20060237466E+03  0.00000000000E+00 0. -1.
         13    1    3    3    0    0 -0.23369034329E+02 -0.27117994203E+02 -0.38400015191E+02  0.52498176556E+02  0.00000000000E+00 0. -1.
        -14    1    3    3    0    0  0.27557777018E+02  0.29193773975E+02 -0.11792581866E+02  0.41842233451E+02  0.00000000000E+00 0.  1.
          5    1    4    4  501    0 -0.23700578357E+02  0.12565861666E+02 -0.45672971731E+01  0.27530908037E+02  0.41800000000E+01 0. -1.
         -5    1    4    4    0  501  0.16286470791E+03  0.10227869389E+03 -0.44434014238E+02  0.19742770405E+03  0.41800000000E+01 0. -1.
</event>
<event>
11    1  0.7882745E-009  0.2576841E+03  0.7561462E-02  0.1019884E+00
         22   -1    0    0    0    0  0.00000000000E+00  0.00000000000E+00  0.68373173127E+03  0.68373173127E+03  0.00000000000E+00 0. -1.
         22   -1    0    0    0    0 -0.00000000000E+00 -0.00000000000E+00 -0.63475817260E+03  0.63475817260E+03  0.00000000000E+00 0.  1.
         24    2    1    2    0    0  0.16974377755E+02  0.20404213589E+02 -0.37351301360E+03  0.38319953187E+03  0.81396857826E+02 0.  0.
         25    2    1    2    0    0  0.15504356452E+03 -0.16582329834E+03 -0.16073587875E+03  0.30499423797E+03  0.12509831856E+03 0.  0.
        -24    2    1    2    0    0 -0.17201794228E+03  0.14541908475E+03  0.58322245102E+03  0.63029613404E+03  0.79924380119E+02 0.  0.
        -11    1    3    3    0    0  0.32375074949E+02  0.39997200501E+02 -0.32069770053E+03  0.32479984090E+03  0.00000000000E+00 0.  1.
         12    1    3    3    0    0 -0.15400697194E+02 -0.19592986912E+02 -0.52815313072E+02  0.58399690967E+02  0.00000000000E+00 0. -1.
         11    1    5    5    0    0 -0.99492085402E+02  0.11561641724E+03  0.45617289042E+03  0.48099847915E+03  0.00000000000E+00 0. -1.
        -12    1    5    5    0    0 -0.72525856875E+02  0.29802667503E+02  0.12704956060E+03  0.14929765489E+03  0.00000000000E+00 0.  1.
          5    1    4    4  501    0  0.15788211139E+03 -0.99703208579E+02 -0.14599095698E+03  0.23706185441E+03  0.41800000000E+01 0. -1.
         -5    1    4    4    0  501 -0.28385468657E+01 -0.66120089758E+02 -0.14744921767E+02  0.67932383557E+02  0.41800000000E+01 0. -1.
</event>
<event>
11    1  0.7882745E-009  0.1376147E+03  0.7561462E-02  0.1110252E+00
         22   -1    0    0    0    0  0.00000000000E+00  0.00000000000E+00  0.33198101429E+03  0.33198101429E+03  0.00000000000E+00 0.  1.
         22   -1    0    0    0    0 -0.00000000000E+00 -0.00000000000E+00 -0.94734030845E+03  0.94734030845E+03  0.00000000000E+00 0.  1.
         24    2    1    2    0    0 -0.59348145715E+02  0.25331589521E+01 -0.86561690761E+03  0.87147037589E+03  0.81482304987E+02 0.  0.
         25    2    1    2    0    0  0.14909826274E+02  0.38993194366E+02 -0.66501686116E+01  0.13203582748E+03  0.12508582201E+03 0.  0.
        -24    2    1    2    0    0  0.44438319441E+02 -0.41526353318E+02  0.25690778206E+03  0.27581511937E+03  0.79832132222E+02 0.  0.
        -13    1    3    3    0    0 -0.39035626799E+02  0.36933605172E+02 -0.64741449230E+03  0.64964097484E+03  0.00000000000E+00 0.  1.
         14    1    3    3    0    0 -0.20312518916E+02 -0.34400446220E+02 -0.21820241531E+03  0.22182940105E+03  0.00000000000E+00 0. -1.
         11    1    5    5    0    0 -0.12793055976E+02  0.92913560835E+01  0.99928079804E+02  0.10117120496E+03  0.00000000000E+00 0. -1.
        -12    1    5    5    0    0  0.57231375417E+02 -0.50817709402E+02  0.15697970226E+03  0.17464391441E+03  0.00000000000E+00 0.  1.
          5    1    4    4  501    0  0.10634641530E+01  0.28150581520E+02  0.58156583580E+02  0.64755284028E+02  0.41800000000E+01 0.  1.
         -5    1    4    4    0  501  0.13846362121E+02  0.10842612846E+02 -0.64806752191E+02  0.67280543450E+02  0.41800000000E+01 0.  1.
</event>
<event>
11    1  0.7882745E-009  0.1272547E+03  0.7561462E-02  0.1122689E+00
         22   -1    0    0    0    0  0.00000000000E+00  0.00000000000E+00  0.94638781933E+02  0.94638781933E+02  0.00000000000E+00 0.  1.
         22   -1    0    0    0    0 -0.00000000000E+00 -0.00000000000E+00 -0.73948628363E+03  0.73948628363E+03  0.00000000000E+00 0.  1.
        -24    2    1    2    0    0  0.22767059028E+02 -0.25890727763E+01 -0.59051864616E+03  0.59642281171E+03  0.80516188401E+02 0.  0.
         25    2    1    2    0    0 -0.24319766408E+02  0.32423788928E+02 -0.78677142864E+02  0.15323259156E+03  0.12508949269E+03 0.  0.
         24    2    1    2    0    0  0.15527073802E+01 -0.29834716152E+02  0.24348287325E+02  0.84469662290E+02  0.75164909124E+02 0.  0.
        -13    1    5    5    0    0  0.17484883190E+02 -0.50215927465E+02  0.24626213792E+02  0.58598727948E+02  0.00000000000E+00 0.  1.
         14    1    5    5    0    0 -0.15932175810E+02  0.20381211313E+02 -0.27792646765E+00  0.25870934342E+02  0.00000000000E+00 0. -1.
         13    1    3    3    0    0 -0.15240599033E+02  0.43388861903E+01 -0.25084968884E+02  0.29670818259E+02  0.00000000000E+00 0. -1.
        -14    1    3    3    0    0  0.38007658060E+02 -0.69279589666E+01 -0.56543367728E+03  0.56675199346E+03  0.00000000000E+00 0.  1.
          5    1    4    4  501    0 -0.51055776920E+02  0.10920293686E+01 -0.95633369791E+02  0.10849469435E+03  0.41800000000E+01 0. -1.
         -5    1    4    4    0  501  0.26736010512E+02  0.31331759560E+02  0.16956226927E+02  0.44737897210E+02  0.41800000000E+01 0. -1.
</event>
<event>
11    1  0.7882745E-009  0.1438839E+03  0.7561462E-02  0.1103297E+00
         22   -1    0    0    0    0  0.00000000000E+00  0.00000000000E+00  0.43381282302E+03  0.43381282302E+03  0.00000000000E+00 0.  1.
         22   -1    0    0    0    0 -0.00000000000E+00 -0.00000000000E+00 -0.80522325422E+03  0.80522325422E+03  0.00000000000E+00 0. -1.
        -24    2    1    2    0    0  0.45400375326E+02  0.16403872627E+02 -0.76364119042E+03  0.76956677487E+03  0.82188029378E+02 0.  0.
         25    2    1    2    0    0 -0.75304705570E+02  0.43480214926E+02  0.21004094555E+03  0.25947758639E+03  0.12510032479E+03 0.  0.
         24    2    1    2    0    0  0.29904330244E+02 -0.59884087553E+02  0.18218981367E+03  0.20999171597E+03  0.80143743745E+02 0.  0.
        -11    1    5    5    0    0  0.56491575431E+02 -0.29823341635E+02  0.12075474843E+03  0.13661053791E+03  0.00000000000E+00 0.  1.
         12    1    5    5    0    0 -0.26587245187E+02 -0.30060745917E+02  0.61435065243E+02  0.73381178058E+02  0.00000000000E+00 0. -1.
         11    1    3    3    0    0  0.98925236139E+01  0.25953788150E+02 -0.63929363944E+03  0.63989672493E+03  0.00000000000E+00 0. -1.
        -12    1    3    3    0    0  0.35507851712E+02 -0.95499155231E+01 -0.12434755097E+03  0.12967004995E+03  0.00000000000E+00 0.  1.
          5    1    4    4  501    0 -0.57136602672E+02 -0.20070542929E+02  0.17355260572E+03  0.18386244155E+03  0.41800000000E+01 0. -1.
         -5    1    4    4    0  501 -0.18168102898E+02  0.63550757855E+02  0.36488339824E+02  0.75615144845E+02  0.41800000000E+01 0. -1.
</event>
<event>
11    1  0.7882745E-009  0.1633896E+03  0.7561462E-02  0.1083932E+00
         22   -1    0    0    0    0  0.00000000000E+00  0.00000000000E+00  0.18485993301E+04  0.18485993301E+04  0.00000000000E+00 0. -1.
         22   -1    0    0    0    0 -0.00000000000E+00 -0.00000000000E+00 -0.18686145097E+03  0.18686145097E+03  0.00000000000E+00 0.  1.
         24    2    1    2    0    0  0.19937743954E+02  0.10193148363E+03 -0.14455718514E+03  0.19521913024E+03  0.80163508183E+02 0.  0.
         25    2    1    2    0    0 -0.17940266872E+02 -0.13019671325E+03  0.51397848943E+03  0.54506371884E+03  0.12509009828E+03 0.  0.
        -24    2    1    2    0    0 -0.19974770814E+01  0.28265229619E+02  0.12923165749E+04  0.12951779320E+04  0.81245509238E+02 0.  0.
        -13    1    3    3    0    0  0.28024615179E+02  0.10091379075E+03 -0.15172688120E+03  0.18436382155E+03  0.00000000000E+00 0.  1.
         14    1    3    3    0    0 -0.80868712249E+01  0.10176928892E+01  0.71696960595E+01  0.10855308683E+02  0.00000000000E+00 0. -1.
         13    1    5    5    0    0 -0.30176450953E+02  0.33687701918E+02  0.10780558976E+04  0.10790041695E+04  0.00000000000E+00 0. -1.
        -14    1    5    5    0    0  0.28178973871E+02 -0.54224722990E+01  0.21426067728E+03  0.21617376252E+03  0.00000000000E+00 0.  1.
          5    1    4    4  501    0  0.14532872029E+02 -0.14335841958E+03  0.44176118094E+03  0.46468618897E+03  0.41800000000E+01 0.  1.
         -5    1    4    4    0  501 -0.32473138902E+02  0.13161706322E+02  0.72217308482E+02  0.80377529869E+02  0.41800000000E+01 0.  1.
</event>
<event>
11    1  0.7882745E-009  0.1360723E+03  0.7561462E-02  0.1112025E+00
         22   -1    0    0    0    0  0.00000000000E+00  0.00000000000E+00  0.16180211206E+03  0.16180211206E+03  0.00000000000E+00 0.  1.
         22   -1    0    0    0    0 -0.00000000000E+00 -0.00000000000E+00 -0.11670955669E+04  0.11670955669E+04  0.00000000000E+00 0.  1.
         24    2    1    2    0    0 -0.53628134629E+02  0.99300233454E+01 -0.83523980199E+03  0.84062626337E+03  0.77797208489E+02 0.  0.
         25    2    1    2    0    0  0.40707734677E+02 -0.37619318214E+02 -0.30156782778E+03  0.33115429218E+03  0.12509067798E+03 0.  0.
        -24    2    1    2    0    0  0.12920399951E+02  0.27689294869E+02  0.13151417490E+03  0.15711712343E+03  0.80350348402E+02 0.  0.
        -13    1    3    3    0    0 -0.60499441011E+02  0.11049772201E+02 -0.82899745962E+03  0.83127556675E+03  0.00000000000E+00 0.  1.
         14    1    3    3    0    0  0.68713063821E+01 -0.11197488557E+01 -0.62423423730E+01  0.93506966157E+01  0.00000000000E+00 0. -1.
         13    1    5    5    0    0 -0.12417167532E+02  0.49681869637E+02  0.66259047768E+02  0.83742078021E+02  0.00000000000E+00 0. -1.
        -14    1    5    5    0    0  0.25337567483E+02 -0.21992574768E+02  0.65255127136E+02  0.73375045406E+02  0.00000000000E+00 0.  1.
          5    1    4    4  501    0  0.16716660898E+02 -0.62634574726E+02 -0.28536583473E+03  0.29266648037E+03  0.41800000000E+01 0. -1.
         -5    1    4    4    0  501  0.23991073779E+02  0.25015256512E+02 -0.16201993048E+02  0.38487811813E+02  0.41800000000E+01 0. -1.
</event>
<event>
11    1  0.7882745E-009  0.1612908E+03  0.7561462E-02  0.1085869E+00
         22   -1    0    0    0    0  0.00000000000E+00  0.00000000000E+00  0.51227037505E+03  0.51227037505E+03  0.00000000000E+00 0. -1.
         22   -1    0    0    0    0 -0.00000000000E+00 -0.00000000000E+00 -0.32669580263E+03  0.32669580263E+03  0.00000000000E+00 0. -1.
        -24    2    1    2    0    0  0.16469634517E+02 -0.78474945566E+02 -0.55759108936E+02  0.12978053861E+03  0.85465455191E+02 0.  0.
         25    2    1    2    0    0 -0.37694213615E+02  0.11540344691E+03 -0.19682478594E+03  0.26291897453E+03  0.12509029342E+03 0.  0.
         24    2    1    2    0    0  0.21224579098E+02 -0.36928501343E+02  0.43815846730E+03  0.44626666452E+03  0.73190822034E+02 0.  0.
        -11    1    5    5    0    0  0.24575842315E+01 -0.56153821491E+01 -0.44574919764E+00  0.61458058286E+01  0.00000000000E+00 0.  1.
         12    1    5    5    0    0  0.18766994866E+02 -0.31313119194E+02  0.43860421650E+03  0.44012085870E+03  0.00000000000E+00 0. -1.
         11    1    3    3    0    0 -0.64630000457E+01 -0.57766648721E+02 -0.73844916909E+02  0.93977804972E+02  0.00000000000E+00 0. -1.
        -12    1    3    3    0    0  0.22932634563E+02 -0.20708296845E+02  0.18085807973E+02  0.35802733642E+02  0.00000000000E+00 0.  1.
          5    1    4    4  501    0 -0.51403631057E+02  0.13581363736E+03 -0.18526021567E+03  0.23542832728E+03  0.41800000000E+01 0.  1.
         -5    1    4    4    0  501  0.13709417442E+02 -0.20410190446E+02 -0.11564570280E+02  0.27490647253E+02  0.41800000000E+01 0. -1.
</event>
<event>
11    1  0.7882745E-009  0.1755230E+03  0.7561462E-02  0.1073323E+00
         22   -1    0    0    0    0  0.00000000000E+00  0.00000000000E+00  0.15973027862E+04  0.15973027862E+04  0.00000000000E+00 0. -1.
         22   -1    0    0    0    0 -0.00000000000E+00 -0.00000000000E+00 -0.55233090151E+02  0.55233090151E+02  0.00000000000E+00 0.  1.
         24    2    1    2    0    0  0.13433075803E+03  0.12208479944E+01  0.15434944632E+03  0.21967113095E+03  0.79908767816E+02 0.  0.
         25    2    1    2    0    0 -0.99214293686E+02 -0.46847160801E+02  0.32072175917E+03  0.36131530676E+03  0.12509265185E+03 0.  0.
        -24    2    1    2    0    0 -0.35116464340E+02  0.45626312806E+02  0.10669984906E+04  0.10715494387E+04  0.80109263535E+02 0.  0.
        -13    1    3    3    0    0  0.10329295745E+03  0.25499232610E+01  0.58115046113E+02  0.11854659739E+03  0.00000000000E+00 0.  1.
         14    1    3    3    0    0  0.31037800574E+02 -0.13290752666E+01  0.96234400207E+02  0.10112453356E+03  0.00000000000E+00 0. -1.
         13    1    5    5    0    0 -0.43070740307E+02  0.63892028795E+02  0.91739308277E+03  0.92062334770E+03  0.00000000000E+00 0. -1.
        -14    1    5    5    0    0  0.79542759665E+01 -0.18265715989E+02  0.14960540782E+03  0.15092609097E+03  0.00000000000E+00 0.  1.
          5    1    4    4  501    0 -0.36288560838E+02 -0.60429648564E+02  0.59783598193E+02  0.92521095358E+02  0.41800000000E+01 0. -1.
         -5    1    4    4    0  501 -0.62925732848E+02  0.13582487763E+02  0.26093816097E+03  0.26879421140E+03  0.41800000000E+01 0. -1.
</event>
<event>
11    1  0.7882745E-009  0.1628534E+03  0.7561462E-02  0.1084424E+00
         22   -1    0    0    0    0  0.00000000000E+00  0.00000000000E+00  0.96101959449E+02  0.96101959449E+02  0.00000000000E+00 0.  1.
         22   -1    0    0    0    0 -0.00000000000E+00 -0.00000000000E+00 -0.10517673547E+04  0.10517673547E+04  0.00000000000E+00 0.  1.
        -24    2    1    2    0    0  0.13960630412E+02 -0.24646382142E+02 -0.53962156414E+03  0.54633879746E+03  0.80574845787E+02 0.  0.
         25    2    1    2    0    0 -0.35479414983E+02 -0.79709174138E+02 -0.44130811513E+03  0.46691777539E+03  0.12508802968E+03 0.  0.
         24    2    1    2    0    0  0.21518784572E+02  0.10435555628E+03  0.25264283991E+02  0.13461274132E+03  0.78288989424E+02 0.  0.
        -11    1    5    5    0    0  0.29432018030E+02  0.11499725106E+03  0.25209265354E+02  0.12135121959E+03  0.00000000000E+00 0.  1.
         12    1    5    5    0    0 -0.79132334587E+01 -0.10641694781E+02  0.55018637414E-01  0.13261521731E+02  0.00000000000E+00 0. -1.
         11    1    3    3    0    0 -0.68750592812E+01  0.27412797727E+02 -0.14224214072E+03  0.14502260002E+03  0.00000000000E+00 0. -1.
        -12    1    3    3    0    0  0.20835689693E+02 -0.52059179869E+02 -0.39737942342E+03  0.40131619745E+03  0.00000000000E+00 0.  1.
          5    1    4    4  501    0 -0.17749106872E+02 -0.34177635405E+02 -0.40255265340E+03  0.40441223117E+03  0.41800000000E+01 0.  1.
         -5    1    4    4    0  501 -0.17730308111E+02 -0.45531538733E+02 -0.38755461727E+02  0.62505544224E+02  0.41800000000E+01 0.  1.
</event>
<event>
11    1  0.7882745E-009  0.1513122E+03  0.7561462E-02  0.1095545E+00
         22   -1    0    0    0    0  0.00000000000E+00  0.00000000000E+00  0.33608119064E+03  0.33608119064E+03  0.00000000000E+00 0. -1.
         22   -1    0    0    0    0 -0.00000000000E+00 -0.00000000000E+00 -0.15086478862E+04  0.15086478862E+04  0.00000000000E+00 0.  1.
        -24    2    1    2    0    0  0.15090059077E+02 -0.35344731175E+02 -0.13979671535E+04  0.14008410925E+04  0.81034833295E+02 0.  0.
         25    2    1    2    0    0 -0.97171997705E+02  0.46144009999E+02 -0.26222081782E+02  0.16705381161E+03  0.12509081342E+03 0.  0.
         24    2    1    2    0    0  0.82081938627E+02 -0.10799278824E+02  0.25162253969E+03  0.27683417279E+03  0.80431260525E+02 0.  0.
        -11    1    5    5    0    0 -0.74398007636E+00 -0.13902187395E+02  0.23191754129E+01  0.14113925582E+02  0.00000000000E+00 0.  1.
         12    1    5    5    0    0  0.82825918704E+02  0.31029085715E+01  0.24930336428E+03  0.26272024720E+03  0.00000000000E+00 0. -1.
         13    1    3    3    0    0 -0.14395760922E+02  0.15776413811E+02 -0.15388558747E+03  0.15536057157E+03  0.00000000000E+00 0. -1.
        -14    1    3    3    0    0  0.29485819999E+02 -0.51121144987E+02 -0.12440815660E+04  0.12454805209E+04  0.00000000000E+00 0.  1.
          5    1    4    4  501    0 -0.87114259187E+02 -0.26467918343E+02 -0.86191046067E+01  0.91548928007E+02  0.41800000000E+01 0.  1.
         -5    1    4    4    0  501 -0.10057738518E+02  0.72611928342E+02 -0.17602977175E+02  0.75504883598E+02  0.41800000000E+01 0.  1.
</event>
<event>
11    1  0.7882745E-009  0.1418881E+03  0.7561462E-02  0.1105468E+00
         22   -1    0    0    0    0  0.00000000000E+00  0.00000000000E+00  0.22113333886E+04  0.22113333886E+04  0.00000000000E+00 0.  1.
         22   -1    0    0    0    0 -0.00000000000E+00 -0.00000000000E+00 -0.15136480768E+03  0.15136480768E+03  0.00000000000E+00 0. -1.
        -24    2    1    2    0    0  0.58673994186E+02  0.13260883596E+02 -0.11705300931E+03  0.15301212857E+03  0.78056491566E+02 0.  0.
         25    2    1    2    0    0 -0.11391678147E+03 -0.40276273590E+02  0.49593091231E+03  0.52553995104E+03  0.12508220912E+03 0.  0.
         24    2    1    2    0    0  0.55242787287E+02  0.27015389995E+02  0.16810906779E+04  0.16841461166E+04  0.80626782622E+02 0.  0.
        -13    1    5    5    0    0  0.26945790503E+02 -0.28401281586E+02  0.66878587538E+03  0.66993078413E+03  0.00000000000E+00 0.  1.
         14    1    5    5    0    0  0.28296996785E+02  0.55416671580E+02  0.10123048025E+04  0.10142153325E+04  0.00000000000E+00 0. -1.
         13    1    3    3    0    0  0.42443779894E+02  0.19122733498E+02 -0.12545887257E+03  0.13381734602E+03  0.00000000000E+00 0. -1.
        -14    1    3    3    0    0  0.16230214292E+02 -0.58618499023E+01  0.84058632642E+01  0.19194782558E+02  0.00000000000E+00 0.  1.
          5    1    4    4  501    0 -0.97012851245E+02 -0.82846920040E+02  0.37720627611E+03  0.39821746898E+03  0.41800000000E+01 0.  1.
         -5    1    4    4    0  501 -0.16903930228E+02  0.42570646449E+02  0.11872463620E+03  0.12732248206E+03  0.41800000000E+01 0.  1.
</event>
<event>
11    1  0.7882745E-009  0.2223485E+03  0.7561462E-02  0.1039756E+00
         22   -1    0    0    0    0  0.00000000000E+00  0.00000000000E+00  0.10844244698E+04  0.10844244698E+04  0.00000000000E+00 0.  1.
         22   -1    0    0    0    0 -0.00000000000E+00 -0.00000000000E+00 -0.45463429062E+03  0.45463429062E+03  0.00000000000E+00 0. -1.
        -24    2    1    2    0    0  0.17983955880E+03  0.23029134075E+02 -0.34074871340E+03  0.39435489074E+03  0.80829983583E+02 0.  0.
         25    2    1    2    0    0 -0.20019324803E+03 -0.40917015942E+01  0.79601162938E+02  0.24915341517E+03  0.12508797133E+03 0.  0.
         24    2    1    2    0    0  0.20353689227E+02 -0.18937432481E+02  0.89093772962E+03  0.89555045449E+03  0.86415736176E+02 0.  0.
        -13    1    5    5    0    0  0.13822771036E+02  0.14749569851E+02  0.75755246680E+03  0.75782211551E+03  0.00000000000E+00 0.  1.
         14    1    5    5    0    0  0.65309181906E+01 -0.33687002332E+02  0.13338526283E+03  0.13772833898E+03  0.00000000000E+00 0. -1.
         13    1    3    3    0    0  0.15583228008E+03  0.31028404091E+02 -0.33113914113E+03  0.36728679824E+03  0.00000000000E+00 0. -1.
        -14    1    3    3    0    0  0.24007278724E+02 -0.79992700165E+01 -0.96095722660E+01  0.27068092501E+02  0.00000000000E+00 0.  1.
          5    1    4    4  501    0 -0.19540167753E+03 -0.25606961403E+02  0.36365063956E+02  0.20044306506E+03  0.41800000000E+01 0. -1.
         -5    1    4    4    0  501 -0.47915704959E+01  0.21515259809E+02  0.43236098983E+02  0.48710350109E+02  0.41800000000E+01 0. -1.
</event>
<event>
11    1  0.7882745E-009  0.1302053E+03  0.7561462E-02  0.1119017E+00
         22   -1    0    0    0    0  0.00000000000E+00  0.00000000000E+00  0.78289108625E+02  0.78289108625E+02  0.00000000000E+00 0. -1.
         22   -1    0    0    0    0 -0.00000000000E+00 -0.00000000000E+00 -0.77740938248E+03  0.77740938248E+03  0.00000000000E+00 0.  1.
         24    2    1    2    0    0  0.53934931761E+02 -0.13985184843E+02 -0.51303347319E+03  0.52224166280E+03  0.80177599717E+02 0.  0.
         25    2    1    2    0    0 -0.35889738034E+02 -0.24675106540E+02 -0.18117473069E+03  0.22443063932E+03  0.12509154508E+03 0.  0.
        -24    2    1    2    0    0 -0.18045193726E+02  0.38660291383E+02 -0.49120699745E+01  0.10902618897E+03  0.10021144797E+03 0.  0.
        -11    1    3    3    0    0  0.49863555855E+02  0.14313839497E+02 -0.45056179869E+03  0.45353852609E+03  0.00000000000E+00 0.  1.
         12    1    3    3    0    0  0.40713759061E+01 -0.28299024340E+02 -0.62471674498E+02  0.68703136718E+02  0.00000000000E+00 0. -1.
         11    1    5    5    0    0  0.40443186479E+02  0.14528666575E+02 -0.13797455071E+02  0.45134280226E+02  0.00000000000E+00 0. -1.
        -12    1    5    5    0    0 -0.58488380206E+02  0.24131624809E+02  0.88853850968E+01  0.63891908747E+02  0.00000000000E+00 0.  1.
          5    1    4    4  501    0 -0.24702682854E+02  0.10919356850E+02 -0.18470919771E+03  0.18672015159E+03  0.41800000000E+01 0. -1.
         -5    1    4    4    0  501 -0.11187055180E+02 -0.35594463390E+02  0.35344670211E+01  0.37710487729E+02  0.41800000000E+01 0. -1.
</event>
<event>
11    1  0.7882745E-009  0.1574556E+03  0.7561462E-02  0.1089495E+00
         22   -1    0    0    0    0  0.00000000000E+00  0.00000000000E+00  0.27131496864E+03  0.27131496864E+03  0.00000000000E+00 0. -1.
         22   -1    0    0    0    0 -0.00000000000E+00 -0.00000000000E+00 -0.27120662572E+03  0.27120662572E+03  0.00000000000E+00 0.  1.
         24    2    1    2    0    0  0.17154537104E+02 -0.14563620681E+02 -0.18069523489E+03  0.19415149135E+03  0.67362129502E+02 0.  0.
         25    2    1    2    0    0  0.71943350379E+02  0.55828461761E+02  0.41260683306E+02  0.16013254701E+03  0.12508927140E+03 0.  0.
        -24    2    1    2    0    0 -0.89097887482E+02 -0.41264841080E+02  0.13954289450E+03  0.18823755599E+03  0.79498034040E+02 0.  0.
        -13    1    3    3    0    0  0.20540773821E+02 -0.39856997133E+02 -0.10195389827E+03  0.11137818899E+03  0.00000000000E+00 0.  1.
         14    1    3    3    0    0 -0.33862367170E+01  0.25293376451E+02 -0.78741336625E+02  0.82773302368E+02  0.00000000000E+00 0. -1.
         13    1    5    5    0    0 -0.33101706627E+02 -0.15961395137E+02  0.11724460775E+03  0.12286898373E+03  0.00000000000E+00 0. -1.
        -14    1    5    5    0    0 -0.55996180855E+02 -0.25303445943E+02  0.22298286746E+02  0.65368572256E+02  0.00000000000E+00 0.  1.
          5    1    4    4  501    0  0.84786603728E+02 -0.11528850138E+02  0.28302709340E+02  0.90223047572E+02  0.41800000000E+01 0.  1.
         -5    1    4    4    0  501 -0.12843253349E+02  0.67357311899E+02  0.12957973965E+02  0.69909499442E+02  0.41800000000E+01 0.  1.
</event>
<event>
11    1  0.7882745E-009  0.1314956E+03  0.7561462E-02  0.1117445E+00
         22   -1    0    0    0    0  0.00000000000E+00  0.00000000000E+00  0.21356989275E+03  0.21356989275E+03  0.00000000000E+00 0.  1.
         22   -1    0    0    0    0 -0.00000000000E+00 -0.00000000000E+00 -0.69820908792E+03  0.69820908792E+03  0.00000000000E+00 0.  1.
        -24    2    1    2    0    0  0.35514808638E+02 -0.24441868753E+02 -0.33003489642E+03  0.34196011334E+03  0.78453678579E+02 0.  0.
         25    2    1    2    0    0 -0.38587600752E+02  0.36848402071E+01 -0.34145145141E+03  0.36570308965E+03  0.12508826936E+03 0.  0.
         24    2    1    2    0    0  0.30727921134E+01  0.20757028546E+02  0.18684715266E+03  0.20411577768E+03  0.79442406535E+02 0.  0.
        -11    1    5    5    0    0  0.92486198285E+01  0.40813603879E+02  0.17517087630E+03  0.18010031408E+03  0.00000000000E+00 0.  1.
         12    1    5    5    0    0 -0.61758277151E+01 -0.20056575332E+02  0.11676276358E+02  0.24015463594E+02  0.00000000000E+00 0. -1.
         13    1    3    3    0    0  0.48515499431E+02 -0.82930717704E+01 -0.10490279162E+03  0.11587546942E+03  0.00000000000E+00 0. -1.
        -14    1    3    3    0    0 -0.13000690792E+02 -0.16148796983E+02 -0.22513210480E+03  0.22608464392E+03  0.00000000000E+00 0.  1.
          5    1    4    4  501    0 -0.61635838474E+02  0.32350380148E+02 -0.30804366915E+03  0.31583840518E+03  0.41800000000E+01 0. -1.
         -5    1    4    4    0  501  0.23048237722E+02 -0.28665539941E+02 -0.33407782259E+02  0.49864684474E+02  0.41800000000E+01 0. -1.
</event>
<event>
11    1  0.7882745E-009  0.1341026E+03  0.7561462E-02  0.1114328E+00
         22   -1    0    0    0    0  0.00000000000E+00  0.00000000000E+00  0.73184927448E+03  0.73184927448E+03  0.00000000000E+00 0. -1.
         22   -1    0    0    0    0 -0.00000000000E+00 -0.00000000000E+00 -0.27493405887E+03  0.27493405887E+03  0.00000000000E+00 0.  1.
        -24    2    1    2    0    0 -0.47037823229E+02  0.83937962767E+01 -0.88888910109E+02  0.12922243150E+03  0.80710506333E+02 0.  0.
         25    2    1    2    0    0  0.35384318882E+02 -0.45660948848E+02 -0.13388107331E+03  0.19209072676E+03  0.12505092260E+03 0.  0.
         24    2    1    2    0    0  0.11653504347E+02  0.37267152571E+02  0.67968519903E+03  0.68547017509E+03  0.79829482825E+02 0.  0.
        -13    1    5    5    0    0 -0.55032681442E+01 -0.16332116044E+02  0.43336355672E+02  0.46637578171E+02  0.00000000000E+00 0.  1.
         14    1    5    5    0    0  0.17156772491E+02  0.53599268615E+02  0.63634884336E+03  0.63883259692E+03  0.00000000000E+00 0. -1.
         11    1    3    3    0    0 -0.33802264598E+02  0.91067825146E+01  0.41422822045E+01  0.35251738703E+02  0.00000000000E+00 0. -1.
        -12    1    3    3    0    0 -0.13235558631E+02 -0.71298623790E+00 -0.93031192314E+02  0.93970692798E+02  0.00000000000E+00 0.  1.
          5    1    4    4  501    0  0.80547959723E+02 -0.12743234624E+02 -0.81900881916E+02  0.11565288887E+03  0.41800000000E+01 0.  1.
         -5    1    4    4    0  501 -0.45163640842E+02 -0.32917714224E+02 -0.51980191396E+02  0.76437837890E+02  0.41800000000E+01 0.  1.
</event>
<event>
11    1  0.7882745E-009  0.1582342E+03  0.7561462E-02  0.1088750E+00
         22   -1    0    0    0    0  0.00000000000E+00  0.00000000000E+00  0.22934765888E+04  0.22934765888E+04  0.00000000000E+00 0.  1.
         22   -1    0    0    0    0 -0.00000000000E+00 -0.00000000000E+00 -0.80012818940E+02  0.80012818940E+02  0.00000000000E+00 0.  1.
        -24    2    1    2    0    0  0.22498837463E+01 -0.11707931553E+02 -0.46024059016E+02  0.93541309483E+02  0.80558208355E+02 0.  0.
         25    2    1    2    0    0 -0.61664412612E+02 -0.70817445041E+02  0.14962513078E+04  0.15044046143E+04  0.12509059613E+03 0.  0.
         24    2    1    2    0    0  0.59414528865E+02  0.82525376594E+02  0.76323652108E+03  0.77554348392E+03  0.92721002612E+02 0.  0.
        -13    1    5    5    0    0  0.57857290460E+02  0.89023411341E+02  0.45456761516E+03  0.46680226068E+03  0.00000000000E+00 0.  1.
         14    1    5    5    0    0  0.15572384052E+01 -0.64980347474E+01  0.30866890592E+03  0.30874122324E+03  0.00000000000E+00 0. -1.
         13    1    3    3    0    0 -0.26271893424E+02  0.22736147333E+02 -0.30413383451E+02  0.46174870575E+02  0.00000000000E+00 0. -1.
        -14    1    3    3    0    0  0.28521777171E+02 -0.34444078886E+02 -0.15610675565E+02  0.47366438908E+02  0.00000000000E+00 0.  1.
          5    1    4    4  501    0  0.36493939026E+02 -0.56802516656E+01  0.28049724479E+03  0.28294919964E+03  0.41800000000E+01 0. -1.
         -5    1    4    4    0  501 -0.98158351637E+02 -0.65137193376E+02  0.12157540630E+04  0.12214554147E+04  0.41800000000E+01 0. -1.
</event>
<event>
11    1  0.7882745E-009  0.1503379E+03  0.7561462E-02  0.1096534E+00
         22   -1    0    0    0    0  0.00000000000E+00  0.00000000000E+00  0.46415963068E+02  0.46415963068E+02  0.00000000000E+00 0.  1.
         22   -1    0    0    0    0 -0.00000000000E+00 -0.00000000000E+00 -0.71325294455E+03  0.71325294455E+03  0.00000000000E+00 0. -1.
        -24    2    1    2    0    0  0.13341950355E+02 -0.87691856579E+01 -0.26649715171E+03  0.27838110659E+03  0.78869527572E+02 0.  0.
         25    2    1    2    0    0 -0.43559003118E+02  0.80221931670E+02 -0.22722605711E+03  0.27497999914E+03  0.12509745730E+03 0.  0.
         24    2    1    2    0    0  0.30217052763E+02 -0.71452746013E+02 -0.17311377266E+03  0.20630780189E+03  0.81092327908E+02 0.  0.
        -11    1    5    5    0    0  0.37720737493E+02  0.25326986181E+00 -0.80836877552E+02  0.89204926742E+02  0.00000000000E+00 0.  1.
         12    1    5    5    0    0 -0.75036847301E+01 -0.71706015874E+02 -0.92276895109E+02  0.11710287515E+03  0.00000000000E+00 0. -1.
         11    1    3    3    0    0  0.25458633463E+02 -0.33793258693E+02 -0.22136672920E+03  0.22537381203E+03  0.00000000000E+00 0. -1.
        -12    1    3    3    0    0 -0.12116683108E+02  0.25024073035E+02 -0.45130422514E+02  0.53007294565E+02  0.00000000000E+00 0.  1.
          5    1    4    4  501    0  0.61604934424E+01 -0.31313651338E+02 -0.56675110945E+02  0.65176967099E+02  0.41800000000E+01 0. -1.
         -5    1    4    4    0  501 -0.49719496561E+02  0.11153558301E+03 -0.17055094616E+03  0.20980303204E+03  0.41800000000E+01 0. -1.
</event>
<event>
11    1  0.7882745E-009  0.1778485E+03  0.7561462E-02  0.1071397E+00
         22   -1    0    0    0    0  0.00000000000E+00  0.00000000000E+00  0.37183668802E+03  0.37183668802E+03  0.00000000000E+00 0.  1.
         22   -1    0    0    0    0 -0.00000000000E+00 -0.00000000000E+00 -0.13558840241E+04  0.13558840241E+04  0.00000000000E+00 0. -1.
        -24    2    1    2    0    0 -0.50405724566E+02  0.12205093469E+03 -0.10695593650E+04  0.10808083187E+04  0.82171885667E+02 0.  0.
         25    2    1    2    0    0  0.25920251004E+02 -0.99980285697E+02 -0.25088831451E+03  0.29876588545E+03  0.12509272963E+03 0.  0.
         24    2    1    2    0    0  0.24485473561E+02 -0.22070648997E+02  0.33640034350E+03  0.34814650791E+03  0.83391533759E+02 0.  0.
        -11    1    5    5    0    0  0.45416975392E+02  0.90969160980E+01  0.12226312647E+03  0.13074298310E+03  0.00000000000E+00 0.  1.
         12    1    5    5    0    0 -0.20931501831E+02 -0.31167565095E+02  0.21413721703E+03  0.21740352481E+03  0.00000000000E+00 0. -1.
         11    1    3    3    0    0  0.21317033021E+02  0.30536261841E+02 -0.34127436010E+03  0.34330025932E+03  0.00000000000E+00 0. -1.
        -12    1    3    3    0    0 -0.71722757586E+02  0.91514672853E+02 -0.72828500493E+03  0.73750805942E+03  0.00000000000E+00 0.  1.
          5    1    4    4  501    0 -0.37130908811E+02  0.68043130989E+01 -0.53267752085E+02  0.65421165368E+02  0.41800000000E+01 0.  1.
         -5    1    4    4    0  501  0.63051159815E+02 -0.10678459880E+03 -0.19762056243E+03  0.23334472008E+03  0.41800000000E+01 0.  1.
</event>
<event>
11    1  0.1044580E-008  0.1509809E+03  0.7561462E-02  0.1095881E+00
         22   -1    0    0    0    0  0.00000000000E+00  0.00000000000E+00  0.55179223572E+03  0.55179223572E+03  0.00000000000E+00 0. -1.
         22   -1    0    0    0    0 -0.00000000000E+00 -0.00000000000E+00 -0.45213760804E+03  0.45213760804E+03  0.00000000000E+00 0. -1.
        -24    2    1    2    0    0 -0.65788609738E+02  0.69099579503E+02 -0.34183861916E+03  0.36387600802E+03  0.80307002201E+02 0.  0.
         25    2    1    2    0    0  0.63572334981E+02  0.24932105124E+02 -0.35652511597E+02  0.14690603279E+03  0.12508888539E+03 0.  0.
         24    2    1    2    0    0  0.22162747564E+01 -0.94031684628E+02  0.47714575845E+03  0.49314780294E+03  0.81730111673E+02 0.  0.
        -11    1    5    5    0    0 -0.26126127390E+02  0.23435284977E+00  0.10553456787E+03  0.10872062577E+03  0.00000000000E+00 0.  1.
         12    1    5    5    0    0  0.28342402146E+02 -0.94266037478E+02  0.37161119058E+03  0.38442717717E+03  0.00000000000E+00 0. -1.
         13    1    3    3    0    0 -0.32756014222E+02  0.34381027340E+02 -0.28762306048E+03  0.29151678584E+03  0.00000000000E+00 0. -1.
        -14    1    3    3    0    0 -0.33032595516E+02  0.34718552163E+02 -0.54215558688E+02  0.72359222182E+02  0.00000000000E+00 0.  1.
          5    1    4    4  501    0  0.98051248087E+02 -0.22801829767E+01 -0.20757476291E+02  0.10033738938E+03  0.41800000000E+01 0. -1.
         -5    1    4    4    0  501 -0.34478913106E+02  0.27212288101E+02 -0.14895035306E+02  0.46568643414E+02  0.41800000000E+01 0. -1.
</event>
<event>
11    1  0.7882745E-009  0.3076683E+03  0.7561462E-02  0.9969971E-01
         22   -1    0    0    0    0  0.00000000000E+00  0.00000000000E+00  0.27482590606E+03  0.27482590606E+03  0.00000000000E+00 0.  1.
         22   -1    0    0    0    0 -0.00000000000E+00 -0.00000000000E+00 -0.29254242829E+04  0.29254242829E+04  0.00000000000E+00 0.  1.
        -24    2    1    2    0    0 -0.70137351861E+01  0.28675735211E+03 -0.25408329995E+04  0.25582986438E+04  0.82344690882E+02 0.  0.
         25    2    1    2    0    0 -0.14899767385E+03 -0.23424586264E+03 -0.26374281695E+03  0.40283885120E+03  0.12508971010E+03 0.  0.
         24    2    1    2    0    0  0.15601140904E+03 -0.52511489474E+02  0.15397743962E+03  0.23911269392E+03  0.79804838213E+02 0.  0.
        -11    1    5    5    0    0  0.14967935902E+03 -0.24455506181E+02  0.11338006001E+03  0.18935950018E+03  0.00000000000E+00 0.  1.
         12    1    5    5    0    0  0.63320500191E+01 -0.28055983294E+02  0.40597379612E+02  0.49753193740E+02  0.00000000000E+00 0. -1.
         13    1    3    3    0    0 -0.71158269879E+01  0.65749151939E+02 -0.93391569043E+03  0.93625429387E+03  0.00000000000E+00 0. -1.
        -14    1    3    3    0    0  0.10209180177E+00  0.22100820017E+03 -0.16069173091E+04  0.16220443500E+04  0.00000000000E+00 0.  1.
          5    1    4    4  501    0 -0.12520550711E+03 -0.22298374884E+03 -0.27349940156E+03  0.37445636102E+03  0.41800000000E+01 0.  1.
         -5    1    4    4    0  501 -0.23792166745E+02 -0.11262113795E+02  0.97565846128E+01  0.28382490181E+02  0.41800000000E+01 0.  1.
</event>
<event>
11    1  0.7882745E-009  0.2860201E+03  0.7561462E-02  0.1006288E+00
         22   -1    0    0    0    0  0.00000000000E+00  0.00000000000E+00  0.54555935273E+03  0.54555935273E+03  0.00000000000E+00 0.  1.
         22   -1    0    0    0    0 -0.00000000000E+00 -0.00000000000E+00 -0.28446360030E+04  0.28446360030E+04  0.00000000000E+00 0. -1.
        -24    2    1    2    0    0  0.58950395856E+02 -0.24290061296E+03 -0.24540013612E+04  0.24680106781E+04  0.80487078013E+02 0.  0.
         25    2    1    2    0    0 -0.61405823479E+02  0.35231273224E+03 -0.27696230013E+03  0.46930945872E+03  0.12509322881E+03 0.  0.
         24    2    1    2    0    0  0.24554276227E+01 -0.10941211929E+03  0.43188701104E+03  0.45287521889E+03  0.81194412440E+02 0.  0.
        -11    1    5    5    0    0  0.27855066010E+02 -0.99669061921E+02  0.38501328839E+03  0.39867914273E+03  0.00000000000E+00 0.  1.
         12    1    5    5    0    0 -0.25399638388E+02 -0.97430573656E+01  0.46873722648E+02  0.54196076167E+02  0.00000000000E+00 0. -1.
         11    1    3    3    0    0  0.71949961007E+02 -0.22721124257E+03 -0.23483170650E+04  0.23603802201E+04  0.00000000000E+00 0. -1.
        -12    1    3    3    0    0 -0.12999565151E+02 -0.15689370387E+02 -0.10568429615E+03  0.10763045800E+03  0.00000000000E+00 0.  1.
          5    1    4    4  501    0 -0.29470544518E+02  0.34112318915E+03 -0.26565898891E+03  0.43338864078E+03  0.41800000000E+01 0. -1.
         -5    1    4    4    0  501 -0.31935278961E+02  0.11189543098E+02 -0.11303311219E+02  0.35920817941E+02  0.41800000000E+01 0. -1.
</event>
<event>
11    1  0.7882745E-009  0.1432656E+03  0.7561462E-02  0.1103966E+00
         22   -1    0    0    0    0  0.00000000000E+00  0.00000000000E+00  0.16800266598E+04  0.16800266598E+04  0.00000000000E+00 0. -1.
         22   -1    0    0    0    0 -0.00000000000E+00 -0.00000000000E+00 -0.12734431374E+03  0.12734431374E+03  0.00000000000E+00 0. -1.
        -24    2    1    2    0    0 -0.75393168211E+02 -0.15526525714E+02 -0.52804994436E+02  0.12398064045E+03  0.81594294868E+02 0.  0.
         25    2    1    2    0    0  0.48341860571E+02 -0.46106360547E+02  0.98154840612E+02  0.17247728286E+03  0.12510518935E+03 0.  0.
         24    2    1    2    0    0  0.27051307639E+02  0.61632886261E+02  0.15073324999E+04  0.15109130502E+04  0.79224959643E+02 0.  0.
        -13    1    5    5    0    0  0.39493646410E+01  0.20076559348E+02  0.73568668756E+02  0.76361081310E+02  0.00000000000E+00 0.  1.
         14    1    5    5    0    0  0.23101942998E+02  0.41556326913E+02  0.14337638311E+04  0.14345519689E+04  0.00000000000E+00 0. -1.
         11    1    3    3    0    0 -0.32179823570E+02 -0.47216384438E+02 -0.17311324097E+02  0.59704354501E+02  0.00000000000E+00 0. -1.
        -12    1    3    3    0    0 -0.43213344641E+02  0.31689858725E+02 -0.35493670339E+02  0.64276285947E+02  0.00000000000E+00 0.  1.
          5    1    4    4  501    0  0.51963720261E+01 -0.83734982008E+02  0.64787730287E+02  0.10608238256E+03  0.41800000000E+01 0.  1.
         -5    1    4    4    0  501  0.43145488545E+02  0.37628621461E+02  0.33367110326E+02  0.66394900303E+02  0.41800000000E+01 0.  1.
</event>
<event>
11    1  0.7882745E-009  0.1988497E+03  0.7561462E-02  0.1055340E+00
         22   -1    0    0    0    0  0.00000000000E+00  0.00000000000E+00  0.95266977512E+02  0.95266977512E+02  0.00000000000E+00 0.  1.
         22   -1    0    0    0    0 -0.00000000000E+00 -0.00000000000E+00 -0.22562898539E+04  0.22562898539E+04  0.00000000000E+00 0.  1.
        -24    2    1    2    0    0  0.99934720768E+01  0.14823864741E+03 -0.99257106256E+03  0.10066174048E+04  0.77503027695E+02 0.  0.
         25    2    1    2    0    0  0.67369913013E+02 -0.15891827421E+03 -0.12070314781E+04  0.12257105653E+04  0.12509067785E+03 0.  0.
         24    2    1    2    0    0 -0.77363385089E+02  0.10679626800E+02  0.38579664240E+02  0.11922886137E+03  0.81412426020E+02 0.  0.
        -13    1    5    5    0    0 -0.27898503024E+02 -0.93014012696E+00  0.58370322405E+02  0.64701515973E+02  0.00000000000E+00 0.  1.
         14    1    5    5    0    0 -0.49464882065E+02  0.11609766927E+02 -0.19790658164E+02  0.54527345400E+02  0.00000000000E+00 0. -1.
         13    1    3    3    0    0 -0.28284492246E+02  0.68231273122E+02 -0.57547527579E+03  0.58019592568E+03  0.00000000000E+00 0. -1.
        -14    1    3    3    0    0  0.38277964323E+02  0.80007374287E+02 -0.41709578677E+03  0.42642147910E+03  0.00000000000E+00 0.  1.
          5    1    4    4  501    0  0.46040697209E+02 -0.82466706624E+02 -0.99139377179E+03  0.99589135283E+03  0.41800000000E+01 0. -1.
         -5    1    4    4    0  501  0.21329215803E+02 -0.76451567585E+02 -0.21563770632E+03  0.22981921247E+03  0.41800000000E+01 0. -1.
</event>
<event>
11    1  0.7882745E-009  0.1512991E+03  0.7561462E-02  0.1095559E+00
         22   -1    0    0    0    0  0.00000000000E+00  0.00000000000E+00  0.17189194513E+03  0.17189194513E+03  0.00000000000E+00 0. -1.
         22   -1    0    0    0    0 -0.00000000000E+00 -0.00000000000E+00 -0.82741231228E+03  0.82741231228E+03  0.00000000000E+00 0. -1.
        -24    2    1    2    0    0 -0.84384702456E+02 -0.10370200625E+02 -0.71133560185E+03  0.72096304643E+03  0.81000350565E+02 0.  0.
         25    2    1    2    0    0  0.82673578949E+02  0.32773748267E+02 -0.32409922478E+02  0.15686716065E+03  0.12509142170E+03 0.  0.
         24    2    1    2    0    0  0.17111235067E+01 -0.22403547642E+02  0.88225157184E+02  0.12147405032E+03  0.80420268910E+02 0.  0.
        -11    1    5    5    0    0  0.34732377100E+02 -0.10210178863E+02  0.13079334966E+02  0.38492269023E+02  0.00000000000E+00 0.  1.
         12    1    5    5    0    0 -0.33021253593E+02 -0.12193368779E+02  0.75145822219E+02  0.82981781301E+02  0.00000000000E+00 0. -1.
         13    1    3    3    0    0 -0.56910766450E+02 -0.46606358750E+01 -0.65994247016E+03  0.66240819801E+03  0.00000000000E+00 0. -1.
        -14    1    3    3    0    0 -0.27473936006E+02 -0.57095647500E+01 -0.51393131691E+02  0.58554848427E+02  0.00000000000E+00 0.  1.
          5    1    4    4  501    0  0.67404179450E+01  0.36263895371E+02 -0.64366613386E+02  0.74303678646E+02  0.41800000000E+01 0.  1.
         -5    1    4    4    0  501  0.75933161005E+02 -0.34901471038E+01  0.31956690908E+02  0.82563482005E+02  0.41800000000E+01 0.  1.
</event>
<event>
11    1  0.7882745E-009  0.1788952E+03  0.7561462E-02  0.1070540E+00
         22   -1    0    0    0    0  0.00000000000E+00  0.00000000000E+00  0.11236667367E+04  0.11236667367E+04  0.00000000000E+00 0. -1.
         22   -1    0    0    0    0 -0.00000000000E+00 -0.00000000000E+00 -0.35122705734E+03  0.35122705734E+03  0.00000000000E+00 0.  1.
        -24    2    1    2    0    0 -0.40347872479E+02 -0.11949247019E+03 -0.27021417728E+03  0.30954733030E+03  0.83050869025E+02 0.  0.
         25    2    1    2    0    0  0.11381745352E+03  0.11123047084E+03  0.11816394058E+03  0.23438106306E+03  0.12508051605E+03 0.  0.
         24    2    1    2    0    0 -0.73469581041E+02  0.82619993491E+01  0.92448991609E+03  0.93096540073E+03  0.80925474539E+02 0.  0.
        -11    1    5    5    0    0 -0.23542639264E+02 -0.33774813714E+02  0.25506217360E+03  0.25836351582E+03  0.00000000000E+00 0.  1.
         12    1    5    5    0    0 -0.49926941777E+02  0.42036813063E+02  0.66942774249E+03  0.67260188491E+03  0.00000000000E+00 0. -1.
         11    1    3    3    0    0 -0.74190219805E+01 -0.57461685425E+02 -0.44199814808E+02  0.72873251664E+02  0.00000000000E+00 0. -1.
        -12    1    3    3    0    0 -0.32928850499E+02 -0.62030784765E+02 -0.22601436247E+03  0.23667407863E+03  0.00000000000E+00 0.  1.
          5    1    4    4  501    0 -0.41220099319E+01  0.36034156103E+02 -0.16599631487E+02  0.40105754418E+02  0.41800000000E+01 0. -1.
         -5    1    4    4    0  501  0.11793946345E+03  0.75196314738E+02  0.13476357207E+03  0.19427530864E+03  0.41800000000E+01 0. -1.
</event>
<event>
11    1  0.7882745E-009  0.1385379E+03  0.7561462E-02  0.1109202E+00
         22   -1    0    0    0    0  0.00000000000E+00  0.00000000000E+00  0.10588375725E+04  0.10588375725E+04  0.00000000000E+00 0. -1.
         22   -1    0    0    0    0 -0.00000000000E+00 -0.00000000000E+00 -0.50115560536E+03  0.50115560536E+03  0.00000000000E+00 0. -1.
         24    2    1    2    0    0 -0.14456997210E+02  0.56553715620E+02 -0.42264887723E+03  0.43367491131E+03  0.77682222900E+02 0.  0.
         25    2    1    2    0    0 -0.40164913827E+02 -0.29763152150E+02 -0.60596841106E+01  0.13484647375E+03  0.12509111152E+03 0.  0.
        -24    2    1    2    0    0  0.54621911038E+02 -0.26790563470E+02  0.98639052853E+03  0.99147179285E+03  0.79679067441E+02 0.  0.
        -11    1    3    3    0    0 -0.37582207898E+02  0.18995355818E+01 -0.17753493954E+03  0.18147915953E+03  0.00000000000E+00 0.  1.
         12    1    3    3    0    0  0.23125210688E+02  0.54654180038E+02 -0.24511393769E+03  0.25219575178E+03  0.00000000000E+00 0. -1.
         11    1    5    5    0    0  0.61366916561E+02 -0.28113427261E+02  0.97920264624E+03  0.98152640598E+03  0.00000000000E+00 0. -1.
        -12    1    5    5    0    0 -0.67450055234E+01  0.13228637917E+01  0.71878822923E+01  0.99453868689E+01  0.00000000000E+00 0.  1.
          5    1    4    4  501    0  0.18777923409E+01  0.39575067194E+02  0.25974893854E+02  0.47559221589E+02  0.41800000000E+01 0. -1.
         -5    1    4    4    0  501 -0.42042706168E+02 -0.69338219344E+02 -0.32034577965E+02  0.87287252157E+02  0.41800000000E+01 0. -1.
</event>
<event>
11    1  0.7882745E-009  0.1407649E+03  0.7561462E-02  0.1106707E+00
         22   -1    0    0    0    0  0.00000000000E+00  0.00000000000E+00  0.26794531643E+03  0.26794531643E+03  0.00000000000E+00 0.  1.
         22   -1    0    0    0    0 -0.00000000000E+00 -0.00000000000E+00 -0.34666228872E+03  0.34666228872E+03  0.00000000000E+00 0.  1.
        -24    2    1    2    0    0 -0.22425260849E+02 -0.36380864385E+02 -0.27102096978E+03  0.28710361486E+03  0.84555662064E+02 0.  0.
         25    2    1    2    0    0 -0.47429051365E+02  0.29692119372E+02  0.39569085154E+02  0.14263379572E+03  0.12509016873E+03 0.  0.
         24    2    1    2    0    0  0.69854312214E+02  0.66887450129E+01  0.15273491234E+03  0.18487019457E+03  0.76971885459E+02 0.  0.
        -11    1    5    5    0    0  0.39719675520E+02 -0.17445446464E+02  0.13607202073E+03  0.14282013532E+03  0.00000000000E+00 0.  1.
         12    1    5    5    0    0  0.30134636694E+02  0.24134191477E+02  0.16662891602E+02  0.42050059257E+02  0.00000000000E+00 0. -1.
         11    1    3    3    0    0  0.27102294117E+02  0.51962819408E+01 -0.53844199684E+02  0.60503996001E+02  0.00000000000E+00 0. -1.
        -12    1    3    3    0    0 -0.49527554966E+02 -0.41577146325E+02 -0.21717677009E+03  0.22659961885E+03  0.00000000000E+00 0.  1.
          5    1    4    4  501    0 -0.62187633131E+02  0.30596946782E+02 -0.26862538346E+02  0.74448258765E+02  0.41800000000E+01 0.  1.
         -5    1    4    4    0  501  0.14758581766E+02 -0.90482740994E+00  0.66431623500E+02  0.68185536950E+02  0.41800000000E+01 0.  1.
</event>
<event>
11    1  0.7882745E-009  0.1313054E+03  0.7561462E-02  0.1117675E+00
         22   -1    0    0    0    0  0.00000000000E+00  0.00000000000E+00  0.65684572297E+02  0.65684572297E+02  0.00000000000E+00 0.  1.
         22   -1    0    0    0    0 -0.00000000000E+00 -0.00000000000E+00 -0.15637823418E+04  0.15637823418E+04  0.00000000000E+00 0. -1.
         24    2    1    2    0    0 -0.10576375998E+02 -0.40911176726E+02 -0.11951857130E+04  0.11986434559E+04  0.80570849023E+02 0.  0.
         25    2    1    2    0    0 -0.16558214083E+01  0.24622969908E+02 -0.32100048784E+03  0.34539404833E+03  0.12508678200E+03 0.  0.
        -24    2    1    2    0    0  0.12232197406E+02  0.16288206818E+02  0.18088431333E+02  0.85429409875E+02  0.80969502831E+02 0.  0.
        -11    1    3    3    0    0 -0.12104926363E+02  0.90021370676E+01 -0.46772165603E+02  0.49144716799E+02  0.00000000000E+00 0.  1.
         12    1    3    3    0    0  0.15285503650E+01 -0.49913313794E+02 -0.11484135474E+04  0.11494987391E+04  0.00000000000E+00 0. -1.
         13    1    5    5    0    0  0.29791727649E+02 -0.63919741275E+01 -0.20956754344E+02  0.36980939985E+02  0.00000000000E+00 0. -1.
        -14    1    5    5    0    0 -0.17559530243E+02  0.22680180946E+02  0.39045185677E+02  0.48448469890E+02  0.00000000000E+00 0.  1.
          5    1    4    4  501    0  0.48257205046E+02  0.85082615535E+01 -0.26099154783E+03  0.26558465466E+03  0.41800000000E+01 0.  1.
         -5    1    4    4    0  501 -0.49913026454E+02  0.16114708354E+02 -0.60008940014E+02  0.79809393662E+02  0.41800000000E+01 0.  1.
</event>
<event>
11    1  0.7882745E-009  0.1435868E+03  0.7561462E-02  0.1103618E+00
         22   -1    0    0    0    0  0.00000000000E+00  0.00000000000E+00  0.74944675949E+02  0.74944675949E+02  0.00000000000E+00 0. -1.
         22   -1    0    0    0    0 -0.00000000000E+00 -0.00000000000E+00 -0.98915444175E+03  0.98915444175E+03  0.00000000000E+00 0. -1.
        -24    2    1    2    0    0  0.45905390956E+02 -0.48399957627E+02 -0.56995412581E+03  0.57953985534E+03  0.81048612473E+02 0.  0.
         25    2    1    2    0    0 -0.35466841663E+02  0.78251013240E+02 -0.36518421810E+03  0.39545626158E+03  0.12508006932E+03 0.  0.
         24    2    1    2    0    0 -0.10438549293E+02 -0.29851055613E+02  0.20928578108E+02  0.89103000783E+02  0.80630580640E+02 0.  0.
        -13    1    5    5    0    0  0.12454242488E+02 -0.47832435139E+02 -0.55676618394E+01  0.49739811677E+02  0.00000000000E+00 0.  1.
         14    1    5    5    0    0 -0.22892791781E+02  0.17981379527E+02  0.26496239947E+02  0.39363189105E+02  0.00000000000E+00 0. -1.
         13    1    3    3    0    0  0.95089963531E+01 -0.56341160173E+02 -0.45800305056E+03  0.46155340066E+03  0.00000000000E+00 0. -1.
        -14    1    3    3    0    0  0.36396394602E+02  0.79412025456E+01 -0.11195107525E+03  0.11798645468E+03  0.00000000000E+00 0.  1.
          5    1    4    4  501    0 -0.21934721005E+02  0.67717987606E+02 -0.37028158762E+03  0.37708458516E+03  0.41800000000E+01 0.  1.
         -5    1    4    4    0  501 -0.13532120658E+02  0.10533025634E+02  0.50973695203E+01  0.18371676421E+02  0.41800000000E+01 0.  1.
</event>
<event>
11    1  0.7882745E-009  0.1332779E+03  0.7561462E-02  0.1115306E+00
         22   -1    0    0    0    0  0.00000000000E+00  0.00000000000E+00  0.56092219290E+03  0.56092219290E+03  0.00000000000E+00 0.  1.
         22   -1    0    0    0    0 -0.00000000000E+00 -0.00000000000E+00 -0.85440030582E+03  0.85440030582E+03  0.00000000000E+00 0.  1.
        -24    2    1    2    0    0  0.21799562198E+02 -0.41244244575E+02 -0.82319674071E+03  0.82861684222E+03  0.82320645488E+02 0.  0.
         25    2    1    2    0    0  0.17122131956E+02  0.13629545202E+01  0.15691483408E+03  0.20140456707E+03  0.12508600816E+03 0.  0.
         24    2    1    2    0    0 -0.38921694154E+02  0.39881290055E+02  0.37280379372E+03  0.38530108942E+03  0.79805045737E+02 0.  0.
        -11    1    5    5    0    0 -0.24080056722E+02  0.55727085522E+02  0.34354249682E+03  0.34886502306E+03  0.00000000000E+00 0.  1.
         12    1    5    5    0    0 -0.14841637432E+02 -0.15845795467E+02  0.29261296897E+02  0.36436066360E+02  0.00000000000E+00 0. -1.
         13    1    3    3    0    0  0.21375343740E+01  0.15693134439E+02 -0.38764002686E+02  0.41874711055E+02  0.00000000000E+00 0. -1.
        -14    1    3    3    0    0  0.19662027824E+02 -0.56937379014E+02 -0.78443273803E+03  0.78674213117E+03  0.00000000000E+00 0.  1.
          5    1    4    4  501    0  0.19979181024E+02 -0.40282632432E+02  0.15270409032E+03  0.15924154530E+03  0.41800000000E+01 0. -1.
         -5    1    4    4    0  501 -0.28570490675E+01  0.41645586952E+02  0.42107437607E+01  0.42163021773E+02  0.41800000000E+01 0. -1.
</event>
<event>
11    1  0.7882745E-009  0.1472240E+03  0.7561462E-02  0.1099749E+00
         22   -1    0    0    0    0  0.00000000000E+00  0.00000000000E+00  0.12882623857E+03  0.12882623857E+03  0.00000000000E+00 0.  1.
         22   -1    0    0    0    0 -0.00000000000E+00 -0.00000000000E+00 -0.15786723450E+04  0.15786723450E+04  0.00000000000E+00 0. -1.
         24    2    1    2    0    0  0.76918773145E+01 -0.34962213512E+02 -0.12795650241E+04  0.12826576685E+04  0.81501669314E+02 0.  0.
         25    2    1    2    0    0  0.25785585161E+02 -0.38902502400E+02 -0.25152206130E+03  0.28476107750E+03  0.12508885978E+03 0.  0.
        -24    2    1    2    0    0 -0.33477462475E+02  0.73864715912E+02  0.81240978975E+02  0.14007983765E+03  0.80284042635E+02 0.  0.
        -13    1    3    3    0    0 -0.37675168311E+01 -0.21887213578E+00 -0.14871824442E+01  0.40563283529E+01  0.00000000000E+00 0.  1.
         14    1    3    3    0    0  0.11459394146E+02 -0.34743341376E+02 -0.12780778417E+04  0.12786013401E+04  0.00000000000E+00 0. -1.
         11    1    5    5    0    0  0.40034090753E+01  0.25543447729E+02 -0.12055087345E+02  0.28527532963E+02  0.00000000000E+00 0. -1.
        -12    1    5    5    0    0 -0.37480871550E+02  0.48321268184E+02  0.93296066320E+02  0.11155230469E+03  0.00000000000E+00 0.  1.
          5    1    4    4  501    0  0.38413706342E+01  0.41173773040E+02 -0.13753826190E+03  0.14368118040E+03  0.41800000000E+01 0.  1.
         -5    1    4    4    0  501  0.21944214526E+02 -0.80076275440E+02 -0.11398379940E+03  0.14107989710E+03  0.41800000000E+01 0.  1.
</event>
<event>
11    1  0.7882745E-009  0.1284998E+03  0.7561462E-02  0.1121126E+00
         22   -1    0    0    0    0  0.00000000000E+00  0.00000000000E+00  0.34549815599E+03  0.34549815599E+03  0.00000000000E+00 0. -1.
         22   -1    0    0    0    0 -0.00000000000E+00 -0.00000000000E+00 -0.80367507373E+03  0.80367507373E+03  0.00000000000E+00 0. -1.
        -24    2    1    2    0    0  0.45447159503E+01  0.28746704623E+02 -0.73559024460E+03  0.74180435716E+03  0.91288930787E+02 0.  0.
         25    2    1    2    0    0  0.12486373354E+02 -0.38900600145E+02  0.15267665939E+02  0.13247446156E+03  0.12508882896E+03 0.  0.
         24    2    1    2    0    0 -0.17031089304E+02  0.10153895522E+02  0.26214566093E+03  0.27489441101E+03  0.80333243816E+02 0.  0.
        -13    1    5    5    0    0  0.19319761971E+02 -0.20317615817E+02  0.48265939671E+02  0.55818094265E+02  0.00000000000E+00 0.  1.
         14    1    5    5    0    0 -0.36350851275E+02  0.30471511340E+02  0.21387972126E+03  0.21907631674E+03  0.00000000000E+00 0. -1.
         13    1    3    3    0    0  0.19921093121E+02  0.30134469083E+02 -0.71576839215E+03  0.71667937557E+03  0.00000000000E+00 0. -1.
        -14    1    3    3    0    0 -0.15376377171E+02 -0.13877644600E+01 -0.19821852454E+02  0.25124981588E+02  0.00000000000E+00 0.  1.
          5    1    4    4  501    0  0.35630010452E+02  0.18845762401E+02  0.47374650263E+02  0.62341721927E+02  0.41800000000E+01 0. -1.
         -5    1    4    4    0  501 -0.23143637098E+02 -0.57746362546E+02 -0.32106984324E+02  0.70132739629E+02  0.41800000000E+01 0. -1.
</event>
<event>
11    1  0.7882745E-009  0.1757418E+03  0.7561462E-02  0.1073140E+00
         22   -1    0    0    0    0  0.00000000000E+00  0.00000000000E+00  0.10615765187E+03  0.10615765187E+03  0.00000000000E+00 0.  1.
         22   -1    0    0    0    0 -0.00000000000E+00 -0.00000000000E+00 -0.12328260140E+04  0.12328260140E+04  0.00000000000E+00 0.  1.
        -24    2    1    2    0    0 -0.96344923566E+02 -0.74303500641E+02 -0.92714403497E+03  0.93849233540E+03  0.79802553353E+02 0.  0.
         25    2    1    2    0    0  0.13371500902E+03  0.43454327893E+02 -0.23506590248E+03  0.30111740606E+03  0.12509089284E+03 0.  0.
         24    2    1    2    0    0 -0.37370085458E+02  0.30849172748E+02  0.35541575279E+02  0.99373924455E+02  0.79144036679E+02 0.  0.
        -13    1    5    5    0    0 -0.60739938329E+02  0.32918053272E+02  0.29676722934E+02  0.75190732298E+02  0.00000000000E+00 0.  1.
         14    1    5    5    0    0  0.23369852872E+02 -0.20688805235E+01  0.58648523456E+01  0.24183192157E+02  0.00000000000E+00 0. -1.
         11    1    3    3    0    0 -0.39119488076E+02 -0.78692549725E+02 -0.53464061891E+03  0.54181495284E+03  0.00000000000E+00 0. -1.
        -12    1    3    3    0    0 -0.57225435490E+02  0.43890490841E+01 -0.39250341606E+03  0.39667738256E+03  0.00000000000E+00 0.  1.
          5    1    4    4  501    0  0.13106017922E+03  0.70661304624E+01 -0.11168844735E+03  0.17239049408E+03  0.41800000000E+01 0. -1.
         -5    1    4    4    0  501  0.26548298052E+01  0.36388197430E+02 -0.12337745513E+03  0.12872691198E+03  0.41800000000E+01 0. -1.
</event>
<event>
11    1  0.7882745E-009  0.1394509E+03  0.7561462E-02  0.1108173E+00
         22   -1    0    0    0    0  0.00000000000E+00  0.00000000000E+00  0.75344559717E+03  0.75344559717E+03  0.00000000000E+00 0.  1.
         22   -1    0    0    0    0 -0.00000000000E+00 -0.00000000000E+00 -0.15987100978E+04  0.15987100978E+04  0.00000000000E+00 0. -1.
         24    2    1    2    0    0 -0.24022503657E+02 -0.46670296474E+02 -0.15271644050E+04  0.15301351125E+04  0.79543354192E+02 0.  0.
         25    2    1    2    0    0  0.82097195047E+02  0.27646189877E+02  0.20949146480E+02  0.15360072051E+03  0.12510017328E+03 0.  0.
        -24    2    1    2    0    0 -0.58074691389E+02  0.19024106597E+02  0.66095075795E+03  0.66841986196E+03  0.78705914730E+02 0.  0.
        -13    1    3    3    0    0 -0.12995948990E+02 -0.68655114817E+02 -0.12119639739E+04  0.12139765622E+04  0.00000000000E+00 0.  1.
         14    1    3    3    0    0 -0.11026554667E+02  0.21984818343E+02 -0.31520043115E+03  0.31615855032E+03  0.00000000000E+00 0. -1.
         11    1    5    5    0    0  0.21248195974E+01 -0.14177838682E+02  0.25439895903E+02  0.29201271745E+02  0.00000000000E+00 0. -1.
        -12    1    5    5    0    0 -0.60199510987E+02  0.33201945279E+02  0.63551086205E+03  0.63921859021E+03  0.00000000000E+00 0.  1.
          5    1    4    4  501    0  0.47072063313E+02 -0.14113137082E+02  0.66259529842E+02  0.82599984732E+02  0.41800000000E+01 0.  1.
         -5    1    4    4    0  501  0.35025131734E+02  0.41759326959E+02 -0.45310383363E+02  0.71000735781E+02  0.41800000000E+01 0.  1.
</event>
<event>
11    1  0.7882745E-009  0.3629220E+03  0.7561462E-02  0.9765974E-01
         22   -1    0    0    0    0  0.00000000000E+00  0.00000000000E+00  0.18126013165E+04  0.18126013165E+04  0.00000000000E+00 0. -1.
         22   -1    0    0    0    0 -0.00000000000E+00 -0.00000000000E+00 -0.20693218230E+04  0.20693218230E+04  0.00000000000E+00 0. -1.
         24    2    1    2    0    0 -0.69591506904E+02 -0.18306328991E+02 -0.11014601238E+04  0.11067021028E+04  0.79981501606E+02 0.  0.
         25    2    1    2    0    0  0.44771145351E+02 -0.32188810398E+03 -0.91597361032E+03  0.97993438219E+03  0.12508929477E+03 0.  0.
        -24    2    1    2    0    0  0.24820361553E+02  0.34019443297E+03  0.17607132276E+04  0.17952866545E+04  0.81208369808E+02 0.  0.
        -13    1    3    3    0    0 -0.18046044173E+02 -0.30087573574E+02 -0.16201895335E+03  0.16577413260E+03  0.00000000000E+00 0.  1.
         14    1    3    3    0    0 -0.51545462732E+02  0.11781244583E+02 -0.93944117041E+03  0.94092797021E+03  0.00000000000E+00 0. -1.
         11    1    5    5    0    0  0.80301744080E+01  0.24019355881E+03  0.10357563584E+04  0.10632726195E+04  0.00000000000E+00 0. -1.
        -12    1    5    5    0    0  0.16790187145E+02  0.10000087416E+03  0.72495686914E+03  0.73201403492E+03  0.00000000000E+00 0.  1.
          5    1    4    4  501    0  0.50632407904E+02 -0.12099305236E+03 -0.51414231369E+03  0.53062486803E+03  0.41800000000E+01 0. -1.
         -5    1    4    4    0  501 -0.58612625526E+01 -0.20089505162E+03 -0.40183129663E+03  0.44930951416E+03  0.41800000000E+01 0. -1.
</event>
<event>
11    1  0.7882745E-009  0.1671170E+03  0.7561462E-02  0.1080568E+00
         22   -1    0    0    0    0  0.00000000000E+00  0.00000000000E+00  0.71663099022E+03  0.71663099022E+03  0.00000000000E+00 0.  1.
         22   -1    0    0    0    0 -0.00000000000E+00 -0.00000000000E+00 -0.78888464876E+03  0.78888464876E+03  0.00000000000E+00 0.  1.
         24    2    1    2    0    0 -0.29939197942E+02 -0.10847732654E+03 -0.65838805799E+03  0.67272598965E+03  0.80135736747E+02 0.  0.
         25    2    1    2    0    0 -0.50372385572E+01  0.10241339188E+03 -0.66401490352E+02  0.17483843107E+03  0.12508174307E+03 0.  0.
        -24    2    1    2    0    0  0.34976436499E+02  0.60639346587E+01  0.65253588980E+03  0.65795121826E+03  0.76397615858E+02 0.  0.
        -13    1    3    3    0    0  0.20138980047E+02 -0.20503032662E+01 -0.11299915101E+03  0.11479804175E+03  0.00000000000E+00 0.  1.
         14    1    3    3    0    0 -0.50078177988E+02 -0.10642702327E+03 -0.54538890698E+03  0.55792794790E+03  0.00000000000E+00 0. -1.
         11    1    5    5    0    0  0.21591518536E+02  0.54918255022E+00  0.41859061121E+02  0.47102826583E+02  0.00000000000E+00 0. -1.
        -12    1    5    5    0    0  0.13384917963E+02  0.55147521085E+01  0.61067682868E+03  0.61084839167E+03  0.00000000000E+00 0.  1.
          5    1    4    4  501    0 -0.53912449191E+02  0.30597741330E+02  0.49740979455E+01  0.62329671928E+02  0.41800000000E+01 0.  1.
         -5    1    4    4    0  501  0.48875210634E+02  0.71815650550E+02 -0.71375588297E+02  0.11250875914E+03  0.41800000000E+01 0.  1.
</event>
<event>
11    1  0.7882745E-009  0.1281069E+03  0.7561462E-02  0.1121617E+00
         22   -1    0    0    0    0  0.00000000000E+00  0.00000000000E+00  0.67314396830E+03  0.67314396830E+03  0.00000000000E+00 0. -1.
         22   -1    0    0    0    0 -0.00000000000E+00 -0.00000000000E+00 -0.72912978475E+03  0.72912978475E+03  0.00000000000E+00 0. -1.
        -24    2    1    2    0    0  0.16788731973E+01  0.26701622467E+02 -0.65356894351E+03  0.65904765247E+03  0.80471417592E+02 0.  0.
         25    2    1    2    0    0 -0.11875198761E+02 -0.48068293484E+02 -0.56676672202E+01  0.13464938952E+03  0.12508698758E+03 0.  0.
         24    2    1    2    0    0  0.10196325564E+02  0.21366671016E+02  0.60325079428E+03  0.60857671105E+03  0.76769738553E+02 0.  0.
        -11    1    5    5    0    0  0.26826860300E+02 -0.16920440033E+02  0.14498708323E+03  0.14841575398E+03  0.00000000000E+00 0.  1.
         12    1    5    5    0    0 -0.16630534736E+02  0.38287111050E+02  0.45826371104E+03  0.46016095708E+03  0.00000000000E+00 0. -1.
         11    1    3    3    0    0 -0.26596010967E+02  0.18733926442E+02 -0.56070950217E+03  0.56165243133E+03  0.00000000000E+00 0. -1.
        -12    1    3    3    0    0  0.28274884164E+02  0.79676960251E+01 -0.92859441343E+02  0.97395221141E+02  0.00000000000E+00 0.  1.
          5    1    4    4  501    0 -0.34732822118E+02 -0.84153472825E+02  0.14323659181E+01  0.91146585196E+02  0.41800000000E+01 0. -1.
         -5    1    4    4    0  501  0.22857623357E+02  0.36085179341E+02 -0.71000331383E+01  0.43502804325E+02  0.41800000000E+01 0. -1.
</event>
<event>
11    1  0.7882745E-009  0.1684654E+03  0.7561462E-02  0.1079375E+00
         22   -1    0    0    0    0  0.00000000000E+00  0.00000000000E+00  0.29910536214E+04  0.29910536214E+04  0.00000000000E+00 0.  1.
         22   -1    0    0    0    0 -0.00000000000E+00 -0.00000000000E+00 -0.32106113993E+03  0.32106113993E+03  0.00000000000E+00 0. -1.
         24    2    1    2    0    0  0.47106660843E+01 -0.11226725575E+03 -0.29739255397E+03  0.32815242191E+03  0.81336054478E+02 0.  0.
         25    2    1    2    0    0  0.86088208154E+01  0.16419080947E+03  0.16263415651E+04  0.16394103274E+04  0.12508637586E+03 0.  0.
        -24    2    1    2    0    0 -0.13319486900E+02 -0.51923553714E+02  0.13410434704E+04  0.13445520121E+04  0.80926260109E+02 0.  0.
        -13    1    3    3    0    0  0.22676214116E+02 -0.12524051228E+01 -0.26847216797E+02  0.35164644957E+02  0.00000000000E+00 0.  1.
         14    1    3    3    0    0 -0.17965548032E+02 -0.11101485063E+03 -0.27054533717E+03  0.29298777695E+03  0.00000000000E+00 0. -1.
         13    1    5    5    0    0 -0.14225829683E+02  0.15322361932E+02  0.13256374455E+03  0.13420244176E+03  0.00000000000E+00 0. -1.
        -14    1    5    5    0    0  0.90634278294E+00 -0.67245915646E+02  0.12084797258E+04  0.12103495703E+04  0.00000000000E+00 0.  1.
          5    1    4    4  501    0 -0.25311290550E+02  0.15613683433E+01  0.76873943721E+02  0.81056615546E+02  0.41800000000E+01 0.  1.
         -5    1    4    4    0  501  0.33920111365E+02  0.16262944112E+03  0.15494676214E+04  0.15583537118E+04  0.41800000000E+01 0.  1.
</event>
<event>
11    1  0.7882745E-009  0.1447262E+03  0.7561462E-02  0.1102393E+00
         22   -1    0    0    0    0  0.00000000000E+00  0.00000000000E+00  0.10178783132E+04  0.10178783132E+04  0.00000000000E+00 0. -1.
         22   -1    0    0    0    0 -0.00000000000E+00 -0.00000000000E+00 -0.12872580218E+04  0.12872580218E+04  0.00000000000E+00 0.  1.
        -24    2    1    2    0    0  0.61392553452E+02  0.39235264183E+02 -0.12114823632E+04  0.12163152382E+04  0.80154792584E+02 0.  0.
         25    2    1    2    0    0 -0.33618241495E+02 -0.76964826490E+02  0.88357796526E+01  0.15093165163E+03  0.12509405176E+03 0.  0.
         24    2    1    2    0    0 -0.27774311956E+02  0.37729562307E+02  0.93326687492E+03  0.93788944511E+03  0.80340644431E+02 0.  0.
        -11    1    5    5    0    0  0.12559039884E+02 -0.18798353288E+02  0.17619533681E+03  0.17763981616E+03  0.00000000000E+00 0.  1.
         12    1    5    5    0    0 -0.40333351840E+02  0.56527915596E+02  0.75707153810E+03  0.76024962895E+03  0.00000000000E+00 0. -1.
         13    1    3    3    0    0  0.74290696990E+02  0.87764420227E+01 -0.88844189920E+03  0.89158574565E+03  0.00000000000E+00 0. -1.
        -14    1    3    3    0    0 -0.12898143538E+02  0.30458822160E+02 -0.32304046399E+03  0.32472949254E+03  0.00000000000E+00 0.  1.
          5    1    4    4  501    0 -0.48032048255E+02 -0.34197632361E+02 -0.49471211122E+02  0.77080664557E+02  0.41800000000E+01 0.  1.
         -5    1    4    4    0  501  0.14413806760E+02 -0.42767194130E+02  0.58306990775E+02  0.73850987077E+02  0.41800000000E+01 0.  1.
</event>
<event>
11    1  0.7882745E-009  0.1437842E+03  0.7561462E-02  0.1103405E+00
         22   -1    0    0    0    0  0.00000000000E+00  0.00000000000E+00  0.16327558275E+04  0.16327558275E+04  0.00000000000E+00 0.  1.
         22   -1    0    0    0    0 -0.00000000000E+00 -0.00000000000E+00 -0.13845368503E+03  0.13845368503E+03  0.00000000000E+00 0. -1.
        -24    2    1    2    0    0 -0.66455919628E+02 -0.17633751752E+02 -0.95020467362E+02  0.14180783502E+03  0.79707179111E+02 0.  0.
         25    2    1    2    0    0  0.10165751677E+03  0.20682295965E+02  0.33936256731E+03  0.37626734311E+03  0.12509257901E+03 0.  0.
         24    2    1    2    0    0 -0.35201597141E+02 -0.30485442131E+01  0.12499600426E+04  0.12531343344E+04  0.81835848283E+02 0.  0.
        -13    1    5    5    0    0 -0.46036078660E+01 -0.28934214265E+02  0.95667106622E+03  0.95711959070E+03  0.00000000000E+00 0.  1.
         14    1    5    5    0    0 -0.30597989275E+02  0.25885670052E+02  0.29328897633E+03  0.29601474372E+03  0.00000000000E+00 0. -1.
         13    1    3    3    0    0 -0.52254916406E+02 -0.39107762630E+02 -0.95951534860E+02  0.11604607029E+03  0.00000000000E+00 0. -1.
        -14    1    3    3    0    0 -0.14201003222E+02  0.21474010878E+02  0.93106749857E+00  0.25761764738E+02  0.00000000000E+00 0.  1.
          5    1    4    4  501    0  0.10422437134E+03 -0.29362077086E+02  0.26697571078E+03  0.28812905737E+03  0.41800000000E+01 0.  1.
         -5    1    4    4    0  501 -0.25668545752E+01  0.50044373051E+02  0.72386856526E+02  0.88138285746E+02  0.41800000000E+01 0.  1.
</event>
<event>
11    1  0.7882745E-009  0.1438009E+03  0.7561462E-02  0.1103387E+00
         22   -1    0    0    0    0  0.00000000000E+00  0.00000000000E+00  0.22503224752E+04  0.22503224752E+04  0.00000000000E+00 0. -1.
         22   -1    0    0    0    0 -0.00000000000E+00 -0.00000000000E+00 -0.50245025870E+02  0.50245025870E+02  0.00000000000E+00 0.  1.
        -24    2    1    2    0    0 -0.98870395891E+01  0.12566869786E+02 -0.13830732910E+02  0.64647783402E+02  0.61093100739E+02 0.  0.
         25    2    1    2    0    0  0.60170717333E+02 -0.58810092287E+02  0.60792615922E+03  0.62634351872E+03  0.12511133523E+03 0.  0.
         24    2    1    2    0    0 -0.50283677744E+02  0.46243222501E+02  0.16059820231E+04  0.16095761990E+04  0.83008421702E+02 0.  0.
        -11    1    5    5    0    0  0.71225040086E+01 -0.17973501473E+02  0.43562490025E+03  0.43605370143E+03  0.00000000000E+00 0.  1.
         12    1    5    5    0    0 -0.57406181752E+02  0.64216723974E+02  0.11703571228E+04  0.11735224975E+04  0.00000000000E+00 0. -1.
         13    1    3    3    0    0  0.17483888781E+02  0.20066201824E+02  0.91361457819E+01  0.28139082826E+02  0.00000000000E+00 0. -1.
        -14    1    3    3    0    0 -0.27370928371E+02 -0.74993320381E+01 -0.22966878692E+02  0.36508700576E+02  0.00000000000E+00 0.  1.
          5    1    4    4  501    0 -0.26367760953E+02  0.15551391762E+02  0.21351738326E+03  0.21574116426E+03  0.41800000000E+01 0. -1.
         -5    1    4    4    0  501  0.86538478286E+02 -0.74361484049E+02  0.39440877596E+03  0.41060235446E+03  0.41800000000E+01 0. -1.
</event>
<event>
11    1  0.7882745E-009  0.1487509E+03  0.7561462E-02  0.1098162E+00
         22   -1    0    0    0    0  0.00000000000E+00  0.00000000000E+00  0.17101166021E+04  0.17101166021E+04  0.00000000000E+00 0.  1.
         22   -1    0    0    0    0 -0.00000000000E+00 -0.00000000000E+00 -0.65757457973E+03  0.65757457973E+03  0.00000000000E+00 0.  1.
         24    2    1    2    0    0  0.21278903593E+02  0.18439245501E+02 -0.59894083560E+03  0.60513191306E+03  0.81619300008E+02 0.  0.
         25    2    1    2    0    0 -0.89775885518E+02  0.23228781477E+02  0.59671965396E+02  0.16675806021E+03  0.12509285065E+03 0.  0.
        -24    2    1    2    0    0  0.68496981925E+02 -0.41668026977E+02  0.15918108926E+04  0.15958012086E+04  0.79319093038E+02 0.  0.
        -13    1    3    3    0    0 -0.88732776682E+01  0.11810744465E+02 -0.52227130508E+03  0.52248018608E+03  0.00000000000E+00 0.  1.
         14    1    3    3    0    0  0.30152181261E+02  0.66285010355E+01 -0.76669530524E+02  0.82651726973E+02  0.00000000000E+00 0. -1.
         11    1    5    5    0    0  0.24492555717E+00  0.19380112325E+02  0.18477609669E+03  0.18578981310E+03  0.00000000000E+00 0. -1.
        -12    1    5    5    0    0  0.68252056368E+02 -0.61048139303E+02  0.14070347959E+04  0.14100113955E+04  0.00000000000E+00 0.  1.
          5    1    4    4  501    0 -0.67816751796E+02 -0.46601349010E+02  0.32204278765E+02  0.88461209151E+02  0.41800000000E+01 0.  1.
         -5    1    4    4    0  501 -0.21959133722E+02  0.69830130486E+02  0.27467686632E+02  0.78296851063E+02  0.41800000000E+01 0.  1.
</event>
<event>
11    1  0.7882745E-009  0.1318689E+03  0.7561462E-02  0.1116994E+00
         22   -1    0    0    0    0  0.00000000000E+00  0.00000000000E+00  0.64736419999E+03  0.64736419999E+03  0.00000000000E+00 0.  1.
         22   -1    0    0    0    0 -0.00000000000E+00 -0.00000000000E+00 -0.63617574977E+03  0.63617574977E+03  0.00000000000E+00 0.  1.
        -24    2    1    2    0    0  0.45437576156E+02  0.12475643514E+02 -0.45179000673E+03  0.46128393385E+03  0.80302194485E+02 0.  0.
         25    2    1    2    0    0 -0.17439647511E+02  0.22926716627E+01 -0.15416327227E+03  0.19930084260E+03  0.12508042891E+03 0.  0.
         24    2    1    2    0    0 -0.27997928645E+02 -0.14768315177E+02  0.61714172921E+03  0.62295517331E+03  0.78786083067E+02 0.  0.
        -13    1    5    5    0    0 -0.14571032865E+02 -0.35320503610E+02  0.55232744824E+03  0.55364741764E+03  0.00000000000E+00 0.  1.
         14    1    5    5    0    0 -0.13426895780E+02  0.20552188433E+02  0.64814280969E+02  0.69307755679E+02  0.00000000000E+00 0. -1.
         11    1    3    3    0    0  0.31677643820E+01 -0.31760209660E+02 -0.15673107130E+03  0.15994803643E+03  0.00000000000E+00 0. -1.
        -12    1    3    3    0    0  0.42269811774E+02  0.44235853174E+02 -0.29505893543E+03  0.30133589742E+03  0.00000000000E+00 0.  1.
          5    1    4    4  501    0  0.36876813039E+01  0.35202475412E+02  0.44191161445E+01  0.35913984129E+02  0.41800000000E+01 0.  1.
         -5    1    4    4    0  501 -0.21127328815E+02 -0.32909803749E+02 -0.15858238841E+03  0.16338685847E+03  0.41800000000E+01 0.  1.
</event>
<event>
11    1  0.7882745E-009  0.1354481E+03  0.7561462E-02  0.1112750E+00
         22   -1    0    0    0    0  0.00000000000E+00  0.00000000000E+00  0.83885315799E+02  0.83885315799E+02  0.00000000000E+00 0. -1.
         22   -1    0    0    0    0 -0.00000000000E+00 -0.00000000000E+00 -0.94504133309E+03  0.94504133309E+03  0.00000000000E+00 0.  1.
        -24    2    1    2    0    0 -0.20334177586E+02 -0.46600407311E+02 -0.52684423666E+03  0.53524978068E+03  0.79639194341E+02 0.  0.
         25    2    1    2    0    0  0.35220769430E+02 -0.65270986226E+01 -0.36830165903E+03  0.39060961293E+03  0.12508657823E+03 0.  0.
         24    2    1    2    0    0 -0.14886591844E+02  0.53127505933E+02  0.33989878396E+02  0.10306725528E+03  0.80146146352E+02 0.  0.
        -11    1    5    5    0    0 -0.13413440292E+02 -0.77315715817E+01 -0.17478236197E+02  0.23349225258E+02  0.00000000000E+00 0.  1.
         12    1    5    5    0    0 -0.14731515520E+01  0.60859077515E+02  0.51468114593E+02  0.79718030026E+02  0.00000000000E+00 0. -1.
         11    1    3    3    0    0  0.23734395539E+02  0.52152801830E+01 -0.93843017623E+02  0.96938292927E+02  0.00000000000E+00 0. -1.
        -12    1    3    3    0    0 -0.44068573125E+02 -0.51815687494E+02 -0.43300121903E+03  0.43831148775E+03  0.00000000000E+00 0.  1.
          5    1    4    4  501    0  0.17393714474E+02 -0.56073031511E+02 -0.29159234790E+03  0.29747318521E+03  0.41800000000E+01 0.  1.
         -5    1    4    4    0  501  0.17827054956E+02  0.49545932889E+02 -0.76709311139E+02  0.93136427726E+02  0.41800000000E+01 0.  1.
</event>
<event>
11    1  0.7882745E-009  0.1263009E+03  0.7561462E-02  0.1123899E+00
         22   -1    0    0    0    0  0.00000000000E+00  0.00000000000E+00  0.37340162205E+03  0.37340162205E+03  0.00000000000E+00 0. -1.
         22   -1    0    0    0    0 -0.00000000000E+00 -0.00000000000E+00 -0.53840617615E+03  0.53840617615E+03  0.00000000000E+00 0. -1.
        -24    2    1    2    0    0 -0.78121418478E+01 -0.18665132920E+02 -0.46371901579E+03  0.47407641927E+03  0.96455735705E+02 0.  0.
         25    2    1    2    0    0 -0.16511333824E+02 -0.11746648502E+02  0.85867559731E+00  0.12672445469E+03  0.12509093571E+03 0.  0.
         24    2    1    2    0    0  0.24323475672E+02  0.30411781422E+02  0.29785578610E+03  0.31100692424E+03  0.80565064984E+02 0.  0.
        -11    1    5    5    0    0  0.10431069132E+02  0.17810530497E+02  0.10717998353E+02  0.23257207238E+02  0.00000000000E+00 0.  1.
         12    1    5    5    0    0  0.13892406539E+02  0.12601250925E+02  0.28713778775E+03  0.28774971701E+03  0.00000000000E+00 0. -1.
         11    1    3    3    0    0 -0.10893787209E+02 -0.37633095496E+02 -0.44667616651E+03  0.44839103716E+03  0.00000000000E+00 0. -1.
        -12    1    3    3    0    0  0.30816453614E+01  0.18967962576E+02 -0.17042849284E+02  0.25685382110E+02  0.00000000000E+00 0.  1.
          5    1    4    4  501    0 -0.52465368183E+02 -0.26322625339E+02 -0.39274004111E+02  0.70748959443E+02  0.41800000000E+01 0. -1.
         -5    1    4    4    0  501  0.35954034359E+02  0.14575976837E+02  0.40132679708E+02  0.55975495246E+02  0.41800000000E+01 0. -1.
</event>
<event>
11    1  0.8569866E-009  0.2124636E+03  0.7561462E-02  0.1046044E+00
         22   -1    0    0    0    0  0.00000000000E+00  0.00000000000E+00  0.50843289419E+03  0.50843289419E+03  0.00000000000E+00 0.  1.
         22   -1    0    0    0    0 -0.00000000000E+00 -0.00000000000E+00 -0.16204944258E+04  0.16204944258E+04  0.00000000000E+00 0.  1.
        -24    2    1    2    0    0  0.26911209890E+02  0.48900014393E+02 -0.92662119992E+03  0.93166491732E+03  0.79102752111E+02 0.  0.
         25    2    1    2    0    0 -0.13189585416E+03  0.87739589544E+02 -0.65806268764E+03  0.68832426903E+03  0.12509614924E+03 0.  0.
         24    2    1    2    0    0  0.10498464427E+03 -0.13663960394E+03  0.47262235596E+03  0.50893813363E+03  0.77162008918E+02 0.  0.
        -13    1    5    5    0    0  0.13375361298E+02 -0.34075856127E+01  0.12260935742E+03  0.12338381765E+03  0.00000000000E+00 0.  1.
         14    1    5    5    0    0  0.91609282971E+02 -0.13323201832E+03  0.35001299854E+03  0.38555431599E+03  0.00000000000E+00 0. -1.
         13    1    3    3    0    0  0.14455499422E+02  0.54812876985E+02 -0.32643893581E+03  0.33132429998E+03  0.00000000000E+00 0. -1.
        -14    1    3    3    0    0  0.12455710468E+02 -0.59128625913E+01 -0.60018226411E+03  0.60034061733E+03  0.00000000000E+00 0.  1.
          5    1    4    4  501    0 -0.10329633074E+03  0.23730939481E+02 -0.21512440462E+03  0.23985260328E+03  0.41800000000E+01 0.  1.
         -5    1    4    4    0  501 -0.28599523416E+02  0.64008650063E+02 -0.44293828302E+03  0.44847166576E+03  0.41800000000E+01 0.  1.
</event>
<event>
11    1  0.7882745E-009  0.1288912E+03  0.7561462E-02  0.1120639E+00
         22   -1    0    0    0    0  0.00000000000E+00  0.00000000000E+00  0.76353922700E+03  0.76353922700E+03  0.00000000000E+00 0. -1.
         22   -1    0    0    0    0 -0.00000000000E+00 -0.00000000000E+00 -0.34318819017E+02  0.34318819017E+02  0.00000000000E+00 0.  1.
        -24    2    1    2    0    0  0.27870458739E+02 -0.81382725373E+00  0.11423484268E+03  0.14187201661E+03  0.79376602532E+02 0.  0.
         25    2    1    2    0    0 -0.29605651499E+02 -0.18212427138E+02  0.50727703090E+03  0.52362994205E+03  0.12510053168E+03 0.  0.
         24    2    1    2    0    0  0.17351927603E+01  0.19026254392E+02  0.10770853441E+03  0.13235608736E+03  0.74511718728E+02 0.  0.
        -11    1    5    5    0    0 -0.19148502335E+02  0.23070461052E+01 -0.20396044590E+01  0.19394524736E+02  0.00000000000E+00 0.  1.
         12    1    5    5    0    0  0.20883695095E+02  0.16719208287E+02  0.10974813886E+03  0.11296156263E+03  0.00000000000E+00 0. -1.
         13    1    3    3    0    0  0.50274989915E+02 -0.16210645993E+02  0.52781537217E+02  0.74674294944E+02  0.00000000000E+00 0. -1.
        -14    1    3    3    0    0 -0.22404531177E+02  0.15396818740E+02  0.61453305463E+02  0.67197721664E+02  0.00000000000E+00 0.  1.
          5    1    4    4  501    0  0.26138242948E+02 -0.60720426563E+01  0.21883883469E+02  0.34877703510E+02  0.41800000000E+01 0.  1.
         -5    1    4    4    0  501 -0.55743894446E+02 -0.12140384482E+02  0.48539314743E+03  0.48875223854E+03  0.41800000000E+01 0.  1.
</event>
<event>
11    1  0.7882745E-009  0.1881876E+03  0.7561462E-02  0.1063206E+00
         22   -1    0    0    0    0  0.00000000000E+00  0.00000000000E+00  0.22073056826E+03  0.22073056826E+03  0.00000000000E+00 0. -1.
         22   -1    0    0    0    0 -0.00000000000E+00 -0.00000000000E+00 -0.56938441260E+03  0.56938441260E+03  0.00000000000E+00 0.  1.
         24    2    1    2    0    0 -0.19805142170E+01 -0.36945366045E+02 -0.38120998677E+03  0.39131238676E+03  0.80221240999E+02 0.  0.
         25    2    1    2    0    0  0.13614687864E+03  0.68643751193E+02 -0.69810575469E+02  0.20920941114E+03  0.12508846518E+03 0.  0.
        -24    2    1    2    0    0 -0.13416636442E+03 -0.31698385148E+02  0.10236671791E+03  0.18959318296E+03  0.80381771116E+02 0.  0.
        -11    1    3    3    0    0  0.12739696291E+02 -0.18646187547E+02 -0.35652869882E+03  0.35724318504E+03  0.00000000000E+00 0.  1.
         12    1    3    3    0    0 -0.14720210508E+02 -0.18299178498E+02 -0.24681287951E+02  0.34069201723E+02  0.00000000000E+00 0. -1.
         13    1    5    5    0    0 -0.13726404747E+03 -0.41065420926E+02  0.10687520865E+03  0.17874590274E+03  0.00000000000E+00 0. -1.
        -14    1    5    5    0    0  0.30976830465E+01  0.93670357781E+01 -0.45084907371E+01  0.10847280224E+02  0.00000000000E+00 0.  1.
          5    1    4    4  501    0  0.51473079624E+02  0.69612475031E+01 -0.88512316160E+02  0.10271241115E+03  0.41800000000E+01 0.  1.
         -5    1    4    4    0  501  0.84673799012E+02  0.61682503690E+02  0.18701740691E+02  0.10649699998E+03  0.41800000000E+01 0.  1.
</event>
<event>
11    1  0.1354163E-008  0.1723985E+03  0.7561462E-02  0.1075963E+00
         22   -1    0    0    0    0  0.00000000000E+00  0.00000000000E+00  0.46333511152E+03  0.46333511152E+03  0.00000000000E+00 0. -1.
         22   -1    0    0    0    0 -0.00000000000E+00 -0.00000000000E+00 -0.87684196399E+03  0.87684196399E+03  0.00000000000E+00 0. -1.
        -24    2    1    2    0    0  0.11777410869E+02 -0.43984779485E+02 -0.64419018365E+03  0.65069104678E+03  0.79652227932E+02 0.  0.
         25    2    1    2    0    0  0.10747142426E+03  0.42925318644E+02 -0.18380494179E+03  0.25064905437E+03  0.12509197343E+03 0.  0.
         24    2    1    2    0    0 -0.11924883513E+03  0.10594608411E+01  0.41448827298E+03  0.43883697435E+03  0.80968848864E+02 0.  0.
        -13    1    5    5    0    0 -0.80132775933E+02  0.10737794752E+02  0.14214746682E+03  0.16353123353E+03  0.00000000000E+00 0.  1.
         14    1    5    5    0    0 -0.39116059196E+02 -0.96783339109E+01  0.27234080615E+03  0.27530574082E+03  0.00000000000E+00 0. -1.
         11    1    3    3    0    0  0.13922050266E+02 -0.30802284380E+02 -0.63105086910E+03  0.63195553925E+03  0.00000000000E+00 0. -1.
        -12    1    3    3    0    0 -0.21446393968E+01 -0.13182495105E+02 -0.13139314558E+02  0.18735507529E+02  0.00000000000E+00 0.  1.
          5    1    4    4  501    0  0.12527627897E+03  0.51555338967E+02 -0.18617917848E+03  0.23028733779E+03  0.41800000000E+01 0.  1.
         -5    1    4    4    0  501 -0.17804854715E+02 -0.86300203229E+01  0.23742366836E+01  0.20361716579E+02  0.41800000000E+01 0.  1.
</event>
<event>
11    1  0.7882745E-009  0.1787431E+03  0.7561462E-02  0.1070664E+00
         22   -1    0    0    0    0  0.00000000000E+00  0.00000000000E+00  0.15939364926E+04  0.15939364926E+04  0.00000000000E+00 0.  1.
         22   -1    0    0    0    0 -0.00000000000E+00 -0.00000000000E+00 -0.20687897355E+04  0.20687897355E+04  0.00000000000E+00 0. -1.
        -24    2    1    2    0    0 -0.21262666246E+02  0.22976675304E+02 -0.20286888466E+04  0.20304637283E+04  0.78895418464E+02 0.  0.
         25    2    1    2    0    0  0.14331815983E+03 -0.49493462274E+02  0.24092492216E+03  0.31094106447E+03  0.12509927941E+03 0.  0.
         24    2    1    2    0    0 -0.12205549358E+03  0.26516786969E+02  0.13129106816E+04  0.13213214353E+04  0.80964152786E+02 0.  0.
        -11    1    5    5    0    0 -0.65488006992E+02  0.19415385335E+02  0.10538672617E+04  0.10560785205E+04  0.00000000000E+00 0.  1.
         12    1    5    5    0    0 -0.56567486588E+02  0.71014016345E+01  0.25904341989E+03  0.26524291477E+03  0.00000000000E+00 0. -1.
         13    1    3    3    0    0 -0.12380346910E+02 -0.28617945717E+02 -0.59102364162E+03  0.59184559200E+03  0.00000000000E+00 0. -1.
        -14    1    3    3    0    0 -0.88823193358E+01  0.51594621021E+02 -0.14376652050E+04  0.14386181363E+04  0.00000000000E+00 0.  1.
          5    1    4    4  501    0  0.46133411586E+02 -0.95621915563E+01 -0.83198652659E+00  0.47306360815E+02  0.41800000000E+01 0. -1.
         -5    1    4    4    0  501  0.97184748239E+02 -0.39931270717E+02  0.24175690869E+03  0.26363470365E+03  0.41800000000E+01 0. -1.
</event>
<event>
11    1  0.7882745E-009  0.1572724E+03  0.7561462E-02  0.1089671E+00
         22   -1    0    0    0    0  0.00000000000E+00  0.00000000000E+00  0.77404320027E+02  0.77404320027E+02  0.00000000000E+00 0.  1.
         22   -1    0    0    0    0 -0.00000000000E+00 -0.00000000000E+00 -0.27528025444E+04  0.27528025444E+04  0.00000000000E+00 0. -1.
         24    2    1    2    0    0 -0.87320800147E+01  0.34482923154E+02 -0.24652175668E+04  0.24667920412E+04  0.80622588767E+02 0.  0.
         25    2    1    2    0    0 -0.88879834009E+02 -0.31856405335E+02 -0.17143308817E+03  0.23227339073E+03  0.12508864404E+03 0.  0.
        -24    2    1    2    0    0  0.97611914024E+02 -0.26265178187E+01 -0.38747569412E+02  0.13114143247E+03  0.78496603880E+02 0.  0.
        -13    1    3    3    0    0  0.27032957265E+02 -0.27871651169E+01 -0.39677671555E+03  0.39770631258E+03  0.00000000000E+00 0.  1.
         14    1    3    3    0    0 -0.35765037279E+02  0.37270088270E+02 -0.20684408512E+04  0.20690857286E+04  0.00000000000E+00 0. -1.
         11    1    5    5    0    0  0.13071939031E+02  0.30793237933E+02 -0.17632846975E+02  0.37815557445E+02  0.00000000000E+00 0. -1.
        -12    1    5    5    0    0  0.84539974993E+02 -0.33419755752E+02 -0.21114722437E+02  0.93325875029E+02  0.00000000000E+00 0.  1.
          5    1    4    4  501    0 -0.10310052311E+03 -0.60994751820E+02 -0.11002475874E+03  0.16270524746E+03  0.41800000000E+01 0. -1.
         -5    1    4    4    0  501  0.14220689103E+02  0.29138346485E+02 -0.61408329426E+02  0.69568143265E+02  0.41800000000E+01 0. -1.
</event>
<event>
11    1  0.7882745E-009  0.1536758E+03  0.7561462E-02  0.1093181E+00
         22   -1    0    0    0    0  0.00000000000E+00  0.00000000000E+00  0.75414393220E+03  0.75414393220E+03  0.00000000000E+00 0.  1.
         22   -1    0    0    0    0 -0.00000000000E+00 -0.00000000000E+00 -0.97242736749E+03  0.97242736749E+03  0.00000000000E+00 0.  1.
         24    2    1    2    0    0  0.23977799858E+02  0.35637168463E+02 -0.90860460114E+03  0.91356275976E+03  0.84791816471E+02 0.  0.
         25    2    1    2    0    0 -0.97548169946E+01  0.56118158237E+02  0.29170396598E+02  0.14050816530E+03  0.12508888176E+03 0.  0.
        -24    2    1    2    0    0 -0.14222982864E+02 -0.91755326700E+02  0.66115076925E+03  0.67250037464E+03  0.80716051596E+02 0.  0.
        -13    1    3    3    0    0  0.11702130409E+02  0.17449334318E+02 -0.85974922683E+03  0.86000590240E+03  0.00000000000E+00 0.  1.
         14    1    3    3    0    0  0.12275669450E+02  0.18187834144E+02 -0.48855374315E+02  0.53556857364E+02  0.00000000000E+00 0. -1.
         11    1    5    5    0    0 -0.80803999793E+01  0.10126189433E+02  0.18900198048E+03  0.18944545706E+03  0.00000000000E+00 0. -1.
        -12    1    5    5    0    0 -0.61425828844E+01 -0.10188151613E+03  0.47214878877E+03  0.48305491757E+03  0.00000000000E+00 0.  1.
          5    1    4    4  501    0  0.27502010814E+02  0.55919081939E+02  0.63935794907E+02  0.89378759189E+02  0.41800000000E+01 0. -1.
         -5    1    4    4    0  501 -0.37256827809E+02  0.19907629803E+00 -0.34765398309E+02  0.51129406112E+02  0.41800000000E+01 0. -1.
</event>
<event>
11    1  0.7882745E-009  0.1380003E+03  0.7561462E-02  0.1109812E+00
         22   -1    0    0    0    0  0.00000000000E+00  0.00000000000E+00  0.11730116688E+03  0.11730116688E+03  0.00000000000E+00 0. -1.
         22   -1    0    0    0    0 -0.00000000000E+00 -0.00000000000E+00 -0.21152976463E+04  0.21152976463E+04  0.00000000000E+00 0. -1.
        -24    2    1    2    0    0 -0.24044444065E+02 -0.48878095813E+02 -0.18415324498E+04  0.18441207844E+04  0.81070958516E+02 0.  0.
         25    2    1    2    0    0  0.76055240288E+02  0.23073723703E+02 -0.22418985754E+03  0.26874895775E+03  0.12509242089E+03 0.  0.
         24    2    1    2    0    0 -0.52010796223E+02  0.25804372110E+02  0.67725827908E+02  0.11972907103E+03  0.79857837056E+02 0.  0.
        -11    1    5    5    0    0  0.13285771492E+01  0.26087576746E+02 -0.78049450786E+01  0.27262500718E+02  0.00000000000E+00 0.  1.
         12    1    5    5    0    0 -0.53339373373E+02 -0.28320463607E+00  0.75530772986E+02  0.92466570308E+02  0.00000000000E+00 0. -1.
         13    1    3    3    0    0  0.28453388789E+02 -0.30851469959E+02 -0.85117582104E+03  0.85220988427E+03  0.00000000000E+00 0. -1.
        -14    1    3    3    0    0 -0.52497832854E+02 -0.18026625854E+02 -0.99035662873E+03  0.99191090012E+03  0.00000000000E+00 0.  1.
          5    1    4    4  501    0  0.37830907786E+02  0.44713344524E+02 -0.21604236656E+03  0.22387996184E+03  0.41800000000E+01 0.  1.
         -5    1    4    4    0  501  0.38224332502E+02 -0.21639620822E+02 -0.81474909756E+01  0.44868995907E+02  0.41800000000E+01 0.  1.
</event>
<event>
11    1  0.7882745E-009  0.1809908E+03  0.7561462E-02  0.1068844E+00
         22   -1    0    0    0    0  0.00000000000E+00  0.00000000000E+00  0.10409406865E+04  0.10409406865E+04  0.00000000000E+00 0. -1.
         22   -1    0    0    0    0 -0.00000000000E+00 -0.00000000000E+00 -0.10089953751E+04  0.10089953751E+04  0.00000000000E+00 0. -1.
        -24    2    1    2    0    0  0.62907500445E+02 -0.46932763875E+02 -0.81780693441E+03  0.82557603930E+03  0.81287002397E+02 0.  0.
         25    2    1    2    0    0  0.21337803358E+02  0.14715264826E+03 -0.12934157035E+03  0.23342313094E+03  0.12509161640E+03 0.  0.
         24    2    1    2    0    0 -0.84245303803E+02 -0.10021988439E+03  0.97909381624E+03  0.99093689134E+03  0.78676077548E+02 0.  0.
        -11    1    5    5    0    0 -0.30248607596E+02 -0.22717621051E+02  0.10231191573E+03  0.10908160554E+03  0.00000000000E+00 0.  1.
         12    1    5    5    0    0 -0.53996696208E+02 -0.77502263339E+02  0.87678190051E+03  0.88185528580E+03  0.00000000000E+00 0. -1.
         13    1    3    3    0    0  0.26275436174E+02  0.13036842838E+02 -0.45996637887E+03  0.46090066990E+03  0.00000000000E+00 0. -1.
        -14    1    3    3    0    0  0.36632064271E+02 -0.59969606713E+02 -0.35784055554E+03  0.36467536940E+03  0.00000000000E+00 0.  1.
          5    1    4    4  501    0  0.33720006900E+01 -0.19665012931E+02  0.17495108088E+01  0.20460115109E+02  0.41800000000E+01 0. -1.
         -5    1    4    4    0  501  0.17965802668E+02  0.16681766119E+03 -0.13109108116E+03  0.21296301583E+03  0.41800000000E+01 0. -1.
</event>
<event>
11    1  0.7882745E-009  0.1652068E+03  0.7561462E-02  0.1082280E+00
         22   -1    0    0    0    0  0.00000000000E+00  0.00000000000E+00  0.14986446697E+04  0.14986446697E+04  0.00000000000E+00 0. -1.
         22   -1    0    0    0    0 -0.00000000000E+00 -0.00000000000E+00 -0.25886720819E+03  0.25886720819E+03  0.00000000000E+00 0.  1.
         24    2    1    2    0    0 -0.89989855621E+02  0.53064099204E+02 -0.20667567502E+03  0.24521743767E+03  0.80639843460E+02 0.  0.
         25    2    1    2    0    0  0.15208081606E+03 -0.96168406274E+02  0.36891834358E+03  0.42909119565E+03  0.12506627433E+03 0.  0.
        -24    2    1    2    0    0 -0.62090960438E+02  0.43104307070E+02  0.10775347930E+04  0.10832032446E+04  0.80837926599E+02 0.  0.
        -13    1    3    3    0    0 -0.57861161028E+02 -0.55773383598E+01 -0.13611049516E+03  0.14800367412E+03  0.00000000000E+00 0.  1.
         14    1    3    3    0    0 -0.32128694593E+02  0.58641437563E+02 -0.70565179855E+02  0.97213763551E+02  0.00000000000E+00 0. -1.
         13    1    5    5    0    0 -0.52614166275E+01  0.50238658145E+02  0.62926648145E+03  0.63129066994E+03  0.00000000000E+00 0. -1.
        -14    1    5    5    0    0 -0.56829543811E+02 -0.71343510752E+01  0.44826831151E+03  0.45191257464E+03  0.00000000000E+00 0.  1.
          5    1    4    4  501    0 -0.13413050045E+02 -0.36681808883E+02  0.10318459519E+03  0.11040832441E+03  0.41800000000E+01 0.  1.
         -5    1    4    4    0  501  0.16549386610E+03 -0.59486597390E+02  0.26573374839E+03  0.31868287124E+03  0.41800000000E+01 0.  1.
</event>
<event>
11    1  0.7882745E-009  0.1540650E+03  0.7561462E-02  0.1092796E+00
         22   -1    0    0    0    0  0.00000000000E+00  0.00000000000E+00  0.18809771564E+04  0.18809771564E+04  0.00000000000E+00 0. -1.
         22   -1    0    0    0    0 -0.00000000000E+00 -0.00000000000E+00 -0.14949994215E+03  0.14949994215E+03  0.00000000000E+00 0.  1.
        -24    2    1    2    0    0 -0.19873022413E+02  0.87826366485E+02 -0.94700334170E+02  0.15426046994E+03  0.81973969198E+02 0.  0.
         25    2    1    2    0    0  0.89389725130E+02 -0.68171438321E+02  0.28255900005E+03  0.32882386482E+03  0.12509067753E+03 0.  0.
         24    2    1    2    0    0 -0.69516702717E+02 -0.19654928163E+02  0.15436185484E+04  0.15473927638E+04  0.80294796588E+02 0.  0.
        -11    1    5    5    0    0  0.11624734953E+02 -0.14574451450E+02  0.11853849880E+03  0.11999551990E+03  0.00000000000E+00 0.  1.
         12    1    5    5    0    0 -0.81141437670E+02 -0.50804767134E+01  0.14250800496E+04  0.14273972439E+04  0.00000000000E+00 0. -1.
         11    1    3    3    0    0 -0.51314136509E+02  0.49087060340E+02 -0.46458811441E+02  0.84859302726E+02  0.00000000000E+00 0. -1.
        -12    1    3    3    0    0  0.31441114097E+02  0.38739306145E+02 -0.48241522729E+02  0.69401167219E+02  0.00000000000E+00 0.  1.
          5    1    4    4  501    0  0.11528551586E+03 -0.34109063784E+02  0.23929397861E+03  0.26783065359E+03  0.41800000000E+01 0.  1.
         -5    1    4    4    0  501 -0.25895790731E+02 -0.34062374538E+02  0.43265021439E+02  0.60993211235E+02  0.41800000000E+01 0.  1.
</event>
<event>
11    1  0.7882745E-009  0.1812437E+03  0.7561462E-02  0.1068641E+00
         22   -1    0    0    0    0  0.00000000000E+00  0.00000000000E+00  0.50120633005E+03  0.50120633005E+03  0.00000000000E+00 0.  1.
         22   -1    0    0    0    0 -0.00000000000E+00 -0.00000000000E+00 -0.12001731701E+04  0.12001731701E+04  0.00000000000E+00 0.  1.
         24    2    1    2    0    0  0.97314422968E+02 -0.11392747656E+03 -0.10371008659E+04  0.10506705389E+04  0.76686429690E+02 0.  0.
         25    2    1    2    0    0  0.32671365001E+02  0.64292448717E+02 -0.10563621502E+03  0.17890625267E+03  0.12508996869E+03 0.  0.
        -24    2    1    2    0    0 -0.12998578797E+03  0.49635027844E+02  0.44377024085E+03  0.47180270856E+03  0.79409244278E+02 0.  0.
        -11    1    3    3    0    0  0.60595157745E+02 -0.89131923544E+02 -0.90369458778E+03  0.91009899512E+03  0.00000000000E+00 0.  1.
         12    1    3    3    0    0  0.36719265223E+02 -0.24795553017E+02 -0.13340627811E+03  0.14057154380E+03  0.00000000000E+00 0. -1.
         13    1    5    5    0    0 -0.10147963142E+03  0.12835869455E+01  0.24318426544E+03  0.26351157498E+03  0.00000000000E+00 0. -1.
        -14    1    5    5    0    0 -0.28506156548E+02  0.48351440899E+02  0.20058597542E+03  0.20829113359E+03  0.00000000000E+00 0.  1.
          5    1    4    4  501    0  0.13974718446E+02  0.22197130017E+02 -0.12571186613E+03  0.12848716287E+03  0.41800000000E+01 0. -1.
         -5    1    4    4    0  501  0.18696646555E+02  0.42095318700E+02  0.20075651106E+02  0.50419089799E+02  0.41800000000E+01 0. -1.
</event>
<event>
11    1  0.7882745E-009  0.1573071E+03  0.7561462E-02  0.1089638E+00
         22   -1    0    0    0    0  0.00000000000E+00  0.00000000000E+00  0.12124336838E+03  0.12124336838E+03  0.00000000000E+00 0.  1.
         22   -1    0    0    0    0 -0.00000000000E+00 -0.00000000000E+00 -0.13408138295E+04  0.13408138295E+04  0.00000000000E+00 0.  1.
         24    2    1    2    0    0 -0.16099492051E+02 -0.89984612095E+02 -0.92034841241E+03  0.92833132199E+03  0.80008868912E+02 0.  0.
         25    2    1    2    0    0 -0.41809603198E+02  0.12225661606E+03 -0.36383704684E+03  0.40585667173E+03  0.12509004053E+03 0.  0.
        -24    2    1    2    0    0  0.57909095249E+02 -0.32272003970E+02  0.64614998091E+02  0.12786920420E+03  0.88207085042E+02 0.  0.
        -13    1    3    3    0    0 -0.28190228610E+02 -0.93429181224E+02 -0.89197223391E+03  0.89729491638E+03  0.00000000000E+00 0.  1.
         14    1    3    3    0    0  0.12090736559E+02  0.34445691293E+01 -0.28376178505E+02  0.31036405616E+02  0.00000000000E+00 0. -1.
         11    1    5    5    0    0  0.17303517061E+02 -0.10064062022E+02 -0.21951051552E+02  0.29707670917E+02  0.00000000000E+00 0. -1.
        -12    1    5    5    0    0  0.40605578188E+02 -0.22207941948E+02  0.86566049644E+02  0.98161533283E+02  0.00000000000E+00 0.  1.
          5    1    4    4  501    0 -0.32819426230E+02  0.14727583521E+03 -0.32775563702E+03  0.36084417187E+03  0.41800000000E+01 0. -1.
         -5    1    4    4    0  501 -0.89901769680E+01 -0.25019219147E+02 -0.36081409823E+02  0.45012499858E+02  0.41800000000E+01 0. -1.
</event>
<event>
11    1  0.7882745E-009  0.2403538E+03  0.7561462E-02  0.1029167E+00
         22   -1    0    0    0    0  0.00000000000E+00  0.00000000000E+00  0.59161037433E+03  0.59161037433E+03  0.00000000000E+00 0. -1.
         22   -1    0    0    0    0 -0.00000000000E+00 -0.00000000000E+00 -0.14875926913E+04  0.14875926913E+04  0.00000000000E+00 0. -1.
         24    2    1    2    0    0  0.25738665663E+02 -0.34056508477E+02 -0.13776727341E+04  0.13803627892E+04  0.74812719722E+02 0.  0.
         25    2    1    2    0    0 -0.78587233491E+02 -0.17190159027E+03  0.88339434227E+02  0.24326688926E+03  0.12509521879E+03 0.  0.
        -24    2    1    2    0    0  0.52848567828E+02  0.20595809875E+03  0.39335098286E+03  0.45557338715E+03  0.87237639820E+02 0.  0.
        -13    1    3    3    0    0  0.29374344740E+02 -0.18532115097E+02 -0.23257354747E+03  0.23515260237E+03  0.00000000000E+00 0.  1.
         14    1    3    3    0    0 -0.36356790769E+01 -0.15524393380E+02 -0.11450991866E+04  0.11452101868E+04  0.00000000000E+00 0. -1.
         11    1    5    5    0    0  0.23878018078E+01  0.76457774756E+02  0.22278663511E+03  0.23555334365E+03  0.00000000000E+00 0. -1.
        -12    1    5    5    0    0  0.50460766020E+02  0.12950032399E+03  0.17056434775E+03  0.22002004351E+03  0.00000000000E+00 0.  1.
          5    1    4    4  501    0 -0.56549200050E+02 -0.11414450766E+03  0.11879086814E+03  0.17422836568E+03  0.41800000000E+01 0.  1.
         -5    1    4    4    0  501 -0.22038033441E+02 -0.57757082612E+02 -0.30451433913E+02  0.69038523573E+02  0.41800000000E+01 0.  1.
</event>
<event>
11    1  0.7882745E-009  0.2881715E+03  0.7561462E-02  0.1005325E+00
         22   -1    0    0    0    0  0.00000000000E+00  0.00000000000E+00  0.46215147919E+03  0.46215147919E+03  0.00000000000E+00 0. -1.
         22   -1    0    0    0    0 -0.00000000000E+00 -0.00000000000E+00 -0.12168818866E+04  0.12168818866E+04  0.00000000000E+00 0. -1.
         24    2    1    2    0    0 -0.18303048461E+03  0.17454298918E+03 -0.87333991816E+03  0.91285910128E+03  0.81386195232E+02 0.  0.
         25    2    1    2    0    0  0.18613399503E+03 -0.21824804500E+03 -0.24146673714E+03  0.39525966324E+03  0.12508374389E+03 0.  0.
        -24    2    1    2    0    0 -0.31035104154E+01  0.43705055825E+02  0.36007624788E+03  0.37091460128E+03  0.77478858241E+02 0.  0.
        -13    1    3    3    0    0 -0.29748759643E+02  0.23829111361E+02 -0.56124754389E+02  0.67843962913E+02  0.00000000000E+00 0.  1.
         14    1    3    3    0    0 -0.15328172497E+03  0.15071387782E+03 -0.81721516377E+03  0.84501513837E+03  0.00000000000E+00 0. -1.
         13    1    5    5    0    0 -0.17289573053E+02  0.56373432976E+02  0.33072207994E+03  0.33593747549E+03  0.00000000000E+00 0. -1.
        -14    1    5    5    0    0  0.14186062638E+02 -0.12668377151E+02  0.29354167940E+02  0.34977125786E+02  0.00000000000E+00 0.  1.
          5    1    4    4  501    0 -0.27975010533E+01  0.10910209571E+02  0.68290362094E+00  0.12033180892E+02  0.41800000000E+01 0. -1.
         -5    1    4    4    0  501  0.18893149608E+03 -0.22915825457E+03 -0.24214964076E+03  0.38322648234E+03  0.41800000000E+01 0. -1.
</event>
<event>
11    1  0.7882745E-009  0.1607952E+03  0.7561462E-02  0.1086332E+00
         22   -1    0    0    0    0  0.00000000000E+00  0.00000000000E+00  0.20800335082E+03  0.20800335082E+03  0.00000000000E+00 0. -1.
         22   -1    0    0    0    0 -0.00000000000E+00 -0.00000000000E+00 -0.52592748305E+04  0.52592748305E+04  0.00000000000E+00 0. -1.
         24    2    1    2    0    0  0.36991649182E+02 -0.50993918154E+02 -0.26572906836E+04  0.26592204474E+04  0.79314872632E+02 0.  0.
         25    2    1    2    0    0  0.34197457310E+02 -0.21383809221E+02 -0.25784255088E+04  0.25817736136E+04  0.12510057655E+03 0.  0.
        -24    2    1    2    0    0 -0.71189106493E+02  0.72377727375E+02  0.18444471266E+03  0.22628412031E+03  0.82935075653E+02 0.  0.
        -11    1    3    3    0    0  0.49444482089E+02 -0.42936384340E+02 -0.11539512387E+04  0.11558078349E+04  0.00000000000E+00 0.  1.
         12    1    3    3    0    0 -0.12452832907E+02 -0.80575338139E+01 -0.15033394449E+04  0.15034126125E+04  0.00000000000E+00 0. -1.
         11    1    5    5    0    0 -0.55941411896E+02  0.77494714432E+02  0.18699023675E+03  0.21000052612E+03  0.00000000000E+00 0. -1.
        -12    1    5    5    0    0 -0.15247694597E+02 -0.51169870574E+01 -0.25455240871E+01  0.16283594196E+02  0.00000000000E+00 0.  1.
          5    1    4    4  501    0  0.96316520421E+00  0.31299093524E+02 -0.19595145992E+03  0.19848175731E+03  0.41800000000E+01 0. -1.
         -5    1    4    4    0  501  0.33234292106E+02 -0.52682902745E+02 -0.23824740488E+04  0.23832918563E+04  0.41800000000E+01 0. -1.
</event>
<event>
11    1  0.7882745E-009  0.1475692E+03  0.7561462E-02  0.1099389E+00
         22   -1    0    0    0    0  0.00000000000E+00  0.00000000000E+00  0.59096235645E+03  0.59096235645E+03  0.00000000000E+00 0.  1.
         22   -1    0    0    0    0 -0.00000000000E+00 -0.00000000000E+00 -0.18977865448E+03  0.18977865448E+03  0.00000000000E+00 0. -1.
         24    2    1    2    0    0 -0.73282995799E+02  0.30577374343E+02 -0.57845643045E+02  0.12530248016E+03  0.77776730579E+02 0.  0.
         25    2    1    2    0    0  0.32991395339E+02 -0.98351365368E+02 -0.19664871012E+02  0.16369851999E+03  0.12509626317E+03 0.  0.
        -24    2    1    2    0    0  0.40291600460E+02  0.67773991025E+02  0.47869421603E+03  0.49174001079E+03  0.80270535226E+02 0.  0.
        -11    1    3    3    0    0 -0.69348053845E+01 -0.21905768620E+02 -0.26527389380E+02  0.35094965620E+02  0.00000000000E+00 0.  1.
         12    1    3    3    0    0 -0.66348190414E+02  0.52483142963E+02 -0.31318253665E+02  0.90207514538E+02  0.00000000000E+00 0. -1.
         11    1    5    5    0    0  0.27763767633E+02  0.13715694169E+01  0.45591779763E+02  0.53397737572E+02  0.00000000000E+00 0. -1.
        -12    1    5    5    0    0  0.12527832827E+02  0.66402421608E+02  0.43310243626E+03  0.43834227322E+03  0.00000000000E+00 0.  1.
          5    1    4    4  501    0  0.59896805419E+02  0.42611784393E+00 -0.80277421976E+01  0.60578262773E+02  0.41800000000E+01 0. -1.
         -5    1    4    4    0  501 -0.26905410080E+02 -0.98777483212E+02 -0.11637128815E+02  0.10312025722E+03  0.41800000000E+01 0. -1.
</event>
<event>
11    1  0.7882745E-009  0.2057839E+03  0.7561462E-02  0.1050507E+00
         22   -1    0    0    0    0  0.00000000000E+00  0.00000000000E+00  0.23549192756E+03  0.23549192756E+03  0.00000000000E+00 0. -1.
         22   -1    0    0    0    0 -0.00000000000E+00 -0.00000000000E+00 -0.17036223686E+04  0.17036223686E+04  0.00000000000E+00 0.  1.
        -24    2    1    2    0    0  0.74338716886E+00 -0.84867175002E+02 -0.13581884475E+04  0.13631966143E+04  0.80163334491E+02 0.  0.
         25    2    1    2    0    0 -0.16367993312E+03  0.63103784742E+02 -0.26061169026E+03  0.33814038537E+03  0.12508900415E+03 0.  0.
         24    2    1    2    0    0  0.16293654595E+03  0.21763390260E+02  0.15066969672E+03  0.23777729653E+03  0.82551329922E+02 0.  0.
        -13    1    5    5    0    0 -0.52612245388E+01  0.93766744725E+00  0.28136637838E+02  0.28639659438E+02  0.00000000000E+00 0.  1.
         14    1    5    5    0    0  0.16819777049E+03  0.20825722813E+02  0.12253305889E+03  0.20913763709E+03  0.00000000000E+00 0. -1.
         11    1    3    3    0    0 -0.41997506972E+01  0.86116532126E+01 -0.25762413938E+02  0.27486368419E+02  0.00000000000E+00 0. -1.
        -12    1    3    3    0    0  0.49431378660E+01 -0.93478828214E+02 -0.13324260336E+04  0.13357102458E+04  0.00000000000E+00 0.  1.
          5    1    4    4  501    0 -0.34174836336E+01  0.34326515114E+02 -0.11336074323E+03  0.11856694033E+03  0.41800000000E+01 0.  1.
         -5    1    4    4    0  501 -0.16026244948E+03  0.28777269627E+02 -0.14725094703E+03  0.21957344503E+03  0.41800000000E+01 0.  1.
</event>
<event>
11    1  0.7882745E-009  0.2467111E+03  0.7561462E-02  0.1025666E+00
         22   -1    0    0    0    0  0.00000000000E+00  0.00000000000E+00  0.77363279013E+03  0.77363279013E+03  0.00000000000E+00 0. -1.
         22   -1    0    0    0    0 -0.00000000000E+00 -0.00000000000E+00 -0.11932135750E+04  0.11932135750E+04  0.00000000000E+00 0. -1.
        -24    2    1    2    0    0  0.39685645821E+02  0.41631003309E+02 -0.77893765488E+03  0.78701344043E+03  0.96634332973E+02 0.  0.
         25    2    1    2    0    0  0.16443465616E+03  0.25435050336E+02 -0.36473763705E+03  0.41995993861E+03  0.12508840162E+03 0.  0.
         24    2    1    2    0    0 -0.20412030199E+03 -0.67066053645E+02  0.72409450704E+03  0.75987298611E+03  0.83253508405E+02 0.  0.
        -11    1    5    5    0    0 -0.36834293802E+02 -0.50229018132E+02  0.19402317234E+03  0.20377612929E+03  0.00000000000E+00 0.  1.
         12    1    5    5    0    0 -0.16728600818E+03 -0.16837035513E+02  0.53007133470E+03  0.55609685682E+03  0.00000000000E+00 0. -1.
         13    1    3    3    0    0  0.65690686665E+02  0.12467030216E+02 -0.60806193918E+03  0.61172707561E+03  0.00000000000E+00 0. -1.
        -14    1    3    3    0    0 -0.26005040844E+02  0.29163973093E+02 -0.17087571570E+03  0.17528636482E+03  0.00000000000E+00 0.  1.
          5    1    4    4  501    0  0.76021641454E+02  0.68284808409E+02 -0.24173646700E+03  0.26248066006E+03  0.41800000000E+01 0. -1.
         -5    1    4    4    0  501  0.88413014710E+02 -0.42849758073E+02 -0.12300117006E+03  0.15747927855E+03  0.41800000000E+01 0. -1.
</event>
<event>
11    1  0.7882745E-009  0.1426558E+03  0.7561462E-02  0.1104628E+00
         22   -1    0    0    0    0  0.00000000000E+00  0.00000000000E+00  0.27399170159E+04  0.27399170159E+04  0.00000000000E+00 0. -1.
         22   -1    0    0    0    0 -0.00000000000E+00 -0.00000000000E+00 -0.11536429185E+04  0.11536429185E+04  0.00000000000E+00 0.  1.
        -24    2    1    2    0    0  0.65131576709E+02 -0.16000140701E+02 -0.10592660549E+04  0.10644646710E+04  0.80884695519E+02 0.  0.
         25    2    1    2    0    0 -0.11439222064E+03  0.15535972935E+02 -0.11266932424E+02  0.17059231003E+03  0.12509135013E+03 0.  0.
         24    2    1    2    0    0  0.49260643934E+02  0.46416776543E+00  0.26568070848E+04  0.26585029534E+04  0.81161820997E+02 0.  0.
        -13    1    5    5    0    0 -0.10566995243E+02 -0.14841634159E+01  0.56027109315E+02  0.57034209977E+02  0.00000000000E+00 0.  1.
         14    1    5    5    0    0  0.59827639177E+02  0.19483311814E+01  0.26007799754E+04  0.26014687434E+04  0.00000000000E+00 0. -1.
         13    1    3    3    0    0 -0.12652555908E+02 -0.91956842737E+01 -0.55373536582E+02  0.57540214927E+02  0.00000000000E+00 0. -1.
        -14    1    3    3    0    0  0.77784132617E+02 -0.68044564270E+01 -0.10038925183E+04  0.10069244561E+04  0.00000000000E+00 0.  1.
          5    1    4    4  501    0 -0.17399966111E+02  0.14664974646E+02  0.50483134434E+02  0.55532329001E+02  0.41800000000E+01 0.  1.
         -5    1    4    4    0  501 -0.96992254532E+02  0.87099828878E+00 -0.61750066857E+02  0.11505998103E+03  0.41800000000E+01 0.  1.
</event>
<event>
11    1  0.7882745E-009  0.1914575E+03  0.7561462E-02  0.1060734E+00
         22   -1    0    0    0    0  0.00000000000E+00  0.00000000000E+00  0.76509005294E+03  0.76509005294E+03  0.00000000000E+00 0. -1.
         22   -1    0    0    0    0 -0.00000000000E+00 -0.00000000000E+00 -0.41042648245E+03  0.41042648245E+03  0.00000000000E+00 0.  1.
         24    2    1    2    0    0  0.68979338740E+02 -0.12692171196E+03 -0.36100589508E+03  0.39805054084E+03  0.85156953001E+02 0.  0.
         25    2    1    2    0    0 -0.81255239197E+02  0.13202313727E+03  0.34690002534E+03  0.40002405006E+03  0.12508833028E+03 0.  0.
        -24    2    1    2    0    0  0.12275900456E+02 -0.51014253157E+01  0.36876944022E+03  0.37744194450E+03  0.79339770297E+02 0.  0.
        -11    1    3    3    0    0  0.73285282283E+02 -0.13129473989E+03 -0.28893118849E+03  0.32571501808E+03  0.00000000000E+00 0.  1.
         12    1    3    3    0    0 -0.43059435426E+01  0.43730279342E+01 -0.72074706589E+02  0.72335522761E+02  0.00000000000E+00 0. -1.
         13    1    5    5    0    0  0.11054081688E+01  0.77487374263E+01  0.35618118666E+03  0.35626717866E+03  0.00000000000E+00 0. -1.
        -14    1    5    5    0    0  0.11170492287E+02 -0.12850162742E+02  0.12588253558E+02  0.21174765833E+02  0.00000000000E+00 0.  1.
          5    1    4    4  501    0 -0.25200528148E+02  0.50312191918E+02  0.22405091320E+02  0.60711150472E+02  0.41800000000E+01 0. -1.
         -5    1    4    4    0  501 -0.56054711048E+02  0.81710945354E+02  0.32449493402E+03  0.33931289959E+03  0.41800000000E+01 0. -1.
</event>
<event>
11    1  0.7882745E-009  0.1659234E+03  0.7561462E-02  0.1081635E+00
         22   -1    0    0    0    0  0.00000000000E+00  0.00000000000E+00  0.39667064818E+03  0.39667064818E+03  0.00000000000E+00 0. -1.
         22   -1    0    0    0    0 -0.00000000000E+00 -0.00000000000E+00 -0.92686154536E+03  0.92686154536E+03  0.00000000000E+00 0.  1.
        -24    2    1    2    0    0  0.24374789663E+02  0.29820317780E+01 -0.53447990392E+03  0.54133002344E+03  0.82258152796E+02 0.  0.
         25    2    1    2    0    0 -0.93452470771E+02  0.80789786743E+02 -0.35621752802E+03  0.39724257512E+03  0.12510148793E+03 0.  0.
         24    2    1    2    0    0  0.69077681108E+02 -0.83771818521E+02  0.36050653476E+03  0.38495959498E+03  0.80246399058E+02 0.  0.
        -13    1    5    5    0    0  0.18331152036E-01 -0.35233131763E+02  0.39006832072E+02  0.52563360416E+02  0.00000000000E+00 0.  1.
         14    1    5    5    0    0  0.69059349956E+02 -0.48538686758E+02  0.32149970269E+03  0.33239623457E+03  0.00000000000E+00 0. -1.
         11    1    3    3    0    0 -0.15566943176E+02 -0.24996668472E+02 -0.10374541010E+03  0.10784374470E+03  0.00000000000E+00 0. -1.
        -12    1    3    3    0    0  0.39941732839E+02  0.27978700250E+02 -0.43073449382E+03  0.43348627874E+03  0.00000000000E+00 0.  1.
          5    1    4    4  501    0 -0.42851136582E+02 -0.30604534193E+02 -0.12251999766E+03  0.13342218574E+03  0.41800000000E+01 0.  1.
         -5    1    4    4    0  501 -0.50601334189E+02  0.11139432094E+03 -0.23369753036E+03  0.26382038938E+03  0.41800000000E+01 0.  1.
</event>
<event>
11    1  0.7882745E-009  0.1618157E+03  0.7561462E-02  0.1085382E+00
         22   -1    0    0    0    0  0.00000000000E+00  0.00000000000E+00  0.17174074733E+03  0.17174074733E+03  0.00000000000E+00 0.  1.
         22   -1    0    0    0    0 -0.00000000000E+00 -0.00000000000E+00 -0.87623307917E+03  0.87623307917E+03  0.00000000000E+00 0.  1.
        -24    2    1    2    0    0  0.11778297227E+03 -0.62581056534E+01 -0.61973540638E+03  0.63594791839E+03  0.80285668392E+02 0.  0.
         25    2    1    2    0    0 -0.46510071967E+02 -0.78783925084E+02 -0.18494936784E+03  0.24129501996E+03  0.12508766665E+03 0.  0.
         24    2    1    2    0    0 -0.71272900302E+02  0.85042030737E+02  0.10019244237E+03  0.17073088814E+03  0.82453243408E+02 0.  0.
        -13    1    5    5    0    0  0.46702868043E+01  0.28070785723E+02  0.62336173471E+02  0.68524295786E+02  0.00000000000E+00 0.  1.
         14    1    5    5    0    0 -0.75943187106E+02  0.56971245014E+02  0.37856268901E+02  0.10220659236E+03  0.00000000000E+00 0. -1.
         11    1    3    3    0    0  0.66469690368E+02 -0.39857683965E+02 -0.41685529681E+03  0.42399904857E+03  0.00000000000E+00 0. -1.
        -12    1    3    3    0    0  0.51313281900E+02  0.33599578311E+02 -0.20288010956E+03  0.21194886982E+03  0.00000000000E+00 0.  1.
          5    1    4    4  501    0 -0.86705923704E+02 -0.38927732337E+02 -0.13810266544E+03  0.16769944589E+03  0.41800000000E+01 0. -1.
         -5    1    4    4    0  501  0.40195851738E+02 -0.39856192746E+02 -0.46846702400E+02  0.73595574072E+02  0.41800000000E+01 0. -1.
</event>
<event>
11    1  0.7882745E-009  0.1647671E+03  0.7561462E-02  0.1082677E+00
         22   -1    0    0    0    0  0.00000000000E+00  0.00000000000E+00  0.12726849989E+03  0.12726849989E+03  0.00000000000E+00 0.  1.
         22   -1    0    0    0    0 -0.00000000000E+00 -0.00000000000E+00 -0.44223383421E+03  0.44223383421E+03  0.00000000000E+00 0. -1.
        -24    2    1    2    0    0  0.13171734750E+03 -0.41071356414E+02 -0.19188743162E+03  0.24944817187E+03  0.79795288636E+02 0.  0.
         25    2    1    2    0    0 -0.22344838436E+02  0.83825219917E+02 -0.72267142768E+02  0.16851530957E+03  0.12509560478E+03 0.  0.
         24    2    1    2    0    0 -0.10937250907E+03 -0.42753863503E+02 -0.50810759932E+02  0.15153885266E+03  0.81191452494E+02 0.  0.
        -11    1    5    5    0    0 -0.69622871007E+02  0.67653072107E+01  0.41645041655E+00  0.69952033421E+02  0.00000000000E+00 0.  1.
         12    1    5    5    0    0 -0.39749638059E+02 -0.49519170714E+02 -0.51227210348E+02  0.81586819242E+02  0.00000000000E+00 0. -1.
         13    1    3    3    0    0  0.11046956942E+03 -0.47510684078E+02 -0.19279908181E+03  0.22722736811E+03  0.00000000000E+00 0. -1.
        -14    1    3    3    0    0  0.21247778077E+02  0.64393276640E+01  0.91165019270E+00  0.22220803767E+02  0.00000000000E+00 0.  1.
          5    1    4    4  501    0  0.28052786572E+02  0.75200743318E+02 -0.59312198233E+00  0.80373719733E+02  0.41800000000E+01 0.  1.
         -5    1    4    4    0  501 -0.50397625008E+02  0.86244765998E+01 -0.71674020785E+02  0.88141589834E+02  0.41800000000E+01 0.  1.
</event>
<event>
11    1  0.7882745E-009  0.1477540E+03  0.7561462E-02  0.1099196E+00
         22   -1    0    0    0    0  0.00000000000E+00  0.00000000000E+00  0.81466208956E+03  0.81466208956E+03  0.00000000000E+00 0. -1.
         22   -1    0    0    0    0 -0.00000000000E+00 -0.00000000000E+00 -0.55432444887E+03  0.55432444887E+03  0.00000000000E+00 0. -1.
         24    2    1    2    0    0  0.52226567765E+00 -0.50741887881E+02 -0.44706559735E+03  0.45718539134E+03  0.81091440803E+02 0.  0.
         25    2    1    2    0    0  0.76993800902E+02  0.35285343415E+02 -0.39660016009E+02  0.15618615382E+03  0.12509235363E+03 0.  0.
        -24    2    1    2    0    0 -0.77516066580E+02  0.15456544466E+02  0.74706325406E+03  0.75561499327E+03  0.81258028201E+02 0.  0.
        -11    1    3    3    0    0 -0.15696080023E+01 -0.31659881149E+02 -0.47183007021E+02  0.56842307265E+02  0.00000000000E+00 0.  1.
         12    1    3    3    0    0  0.20918736800E+01 -0.19082006732E+02 -0.39988259033E+03  0.40034308407E+03  0.00000000000E+00 0. -1.
         13    1    5    5    0    0 -0.60393685177E+02 -0.27860100964E+02  0.41329771079E+03  0.41861507400E+03  0.00000000000E+00 0. -1.
        -14    1    5    5    0    0 -0.17122381403E+02  0.43316645430E+02  0.33376554327E+03  0.33699991927E+03  0.00000000000E+00 0.  1.
          5    1    4    4  501    0 -0.72868999821E+01 -0.26077879932E+01  0.35765448120E+02  0.36831225187E+02  0.41800000000E+01 0.  1.
         -5    1    4    4    0  501  0.84280700884E+02  0.37893131408E+02 -0.75425464129E+02  0.11935492863E+03  0.41800000000E+01 0.  1.
</event>
<event>
11    1  0.7882745E-009  0.1723357E+03  0.7561462E-02  0.1076017E+00
         22   -1    0    0    0    0  0.00000000000E+00  0.00000000000E+00  0.16764464222E+04  0.16764464222E+04  0.00000000000E+00 0.  1.
         22   -1    0    0    0    0 -0.00000000000E+00 -0.00000000000E+00 -0.68169470969E+03  0.68169470969E+03  0.00000000000E+00 0.  1.
        -24    2    1    2    0    0  0.17072308533E+01  0.11406282386E+03 -0.51092635873E+03  0.53015041994E+03  0.83668878913E+02 0.  0.
         25    2    1    2    0    0  0.10447569567E+03 -0.16456727254E+03 -0.73042610524E+02  0.24285735943E+03  0.12508763287E+03 0.  0.
         24    2    1    2    0    0 -0.10618292652E+03  0.50504448686E+02  0.15787206818E+04  0.15851333525E+04  0.80394284784E+02 0.  0.
        -11    1    5    5    0    0 -0.86112502903E+02  0.12412207618E+02  0.13191487605E+04  0.13220147043E+04  0.00000000000E+00 0.  1.
         12    1    5    5    0    0 -0.20070423618E+02  0.38092241068E+02  0.25957192126E+03  0.26311864821E+03  0.00000000000E+00 0. -1.
         11    1    3    3    0    0  0.23724973378E+02 -0.14812115848E+01 -0.92559317067E+02  0.95563044769E+02  0.00000000000E+00 0. -1.
        -12    1    3    3    0    0 -0.22017742525E+02  0.11554403544E+03 -0.41836704166E+03  0.43458737517E+03  0.00000000000E+00 0.  1.
          5    1    4    4  501    0  0.11279468351E+03 -0.15239402887E+03 -0.98078871607E+02  0.21350296982E+03  0.41800000000E+01 0. -1.
         -5    1    4    4    0  501 -0.83189878466E+01 -0.12173243674E+02  0.25036261083E+02  0.29354389610E+02  0.41800000000E+01 0. -1.
</event>
<event>
11    1  0.7882745E-009  0.1511323E+03  0.7561462E-02  0.1095727E+00
         22   -1    0    0    0    0  0.00000000000E+00  0.00000000000E+00  0.16942704981E+03  0.16942704981E+03  0.00000000000E+00 0.  1.
         22   -1    0    0    0    0 -0.00000000000E+00 -0.00000000000E+00 -0.50931142275E+03  0.50931142275E+03  0.00000000000E+00 0. -1.
        -24    2    1    2    0    0  0.53577815779E+02 -0.31123514524E+02 -0.22645131737E+03  0.24824604251E+03  0.80663764979E+02 0.  0.
         25    2    1    2    0    0  0.36240959233E+02  0.31358656263E+02 -0.22803671735E+03  0.26447146465E+03  0.12509052205E+03 0.  0.
         24    2    1    2    0    0 -0.89818775012E+02 -0.23514173877E+00  0.11460366179E+03  0.16602096540E+03  0.79758974544E+02 0.  0.
        -13    1    5    5    0    0 -0.95938888078E+02  0.13481604282E+02  0.11576559067E+03  0.15095594021E+03  0.00000000000E+00 0.  1.
         14    1    5    5    0    0  0.61201130665E+01 -0.13716746021E+02 -0.11619288832E+01  0.15065025193E+02  0.00000000000E+00 0. -1.
         11    1    3    3    0    0  0.45067246567E+02 -0.41832645775E+02 -0.22636372233E+03  0.23456675330E+03  0.00000000000E+00 0. -1.
        -12    1    3    3    0    0  0.85105692122E+01  0.10709131250E+02 -0.87595045776E-01  0.13679289212E+02  0.00000000000E+00 0.  1.
          5    1    4    4  501    0  0.17808123789E+02  0.34961694131E+02 -0.23906126233E+03  0.24229570545E+03  0.41800000000E+01 0.  1.
         -5    1    4    4    0  501  0.18432835444E+02 -0.36030378682E+01  0.11024544982E+02  0.22175759208E+02  0.41800000000E+01 0.  1.
</event>
<event>
11    1  0.7882745E-009  0.1478470E+03  0.7561462E-02  0.1099099E+00
         22   -1    0    0    0    0  0.00000000000E+00  0.00000000000E+00  0.24662549327E+03  0.24662549327E+03  0.00000000000E+00 0.  1.
         22   -1    0    0    0    0 -0.00000000000E+00 -0.00000000000E+00 -0.73500568016E+03  0.73500568016E+03  0.00000000000E+00 0.  1.
         24    2    1    2    0    0 -0.49356059528E+02 -0.55665180217E+02 -0.57393805672E+03  0.58411013118E+03  0.79026068440E+02 0.  0.
         25    2    1    2    0    0  0.80880419334E+02  0.97940992012E+02 -0.87924196510E+02  0.19877644454E+03  0.12508928980E+03 0.  0.
        -24    2    1    2    0    0 -0.31524359807E+02 -0.42275811796E+02  0.17348206634E+03  0.19874459770E+03  0.81377873225E+02 0.  0.
        -13    1    3    3    0    0 -0.31308675475E+02 -0.16740325742E+02 -0.47430079700E+03  0.47562770914E+03  0.00000000000E+00 0.  1.
         14    1    3    3    0    0 -0.18047384053E+02 -0.38924854475E+02 -0.99637259721E+02  0.10848242204E+03  0.00000000000E+00 0. -1.
         13    1    5    5    0    0 -0.33536617836E+02 -0.30143389128E+02  0.28721630230E+02  0.53462703701E+02  0.00000000000E+00 0. -1.
        -14    1    5    5    0    0  0.20122580294E+01 -0.12132422668E+02  0.14476043611E+03  0.14528189400E+03  0.00000000000E+00 0.  1.
          5    1    4    4  501    0  0.64540936211E+02  0.55519365773E+02 -0.11692245050E+03  0.14469369113E+03  0.41800000000E+01 0.  1.
         -5    1    4    4    0  501  0.16339483123E+02  0.42421626240E+02  0.28998253990E+02  0.54082753406E+02  0.41800000000E+01 0.  1.
</event>
<event>
11    1  0.7882745E-009  0.1599140E+03  0.7561462E-02  0.1087158E+00
         22   -1    0    0    0    0  0.00000000000E+00  0.00000000000E+00  0.66350997391E+03  0.66350997391E+03  0.00000000000E+00 0.  1.
         22   -1    0    0    0    0 -0.00000000000E+00 -0.00000000000E+00 -0.67923574880E+03  0.67923574880E+03  0.00000000000E+00 0.  1.
         24    2    1    2    0    0 -0.26501358910E+02  0.27724340714E+02 -0.55921658057E+03  0.56597574549E+03  0.78322406835E+02 0.  0.
         25    2    1    2    0    0 -0.25552363647E+02 -0.11200061985E+03 -0.44865679591E+02  0.17567435201E+03  0.12510590159E+03 0.  0.
        -24    2    1    2    0    0  0.52053722557E+02  0.84276279140E+02  0.58835648527E+03  0.60109562521E+03  0.73078831586E+02 0.  0.
        -11    1    3    3    0    0  0.20751727011E+02  0.15154248022E+02 -0.35731121746E+03  0.35823398991E+03  0.00000000000E+00 0.  1.
         12    1    3    3    0    0 -0.47253085921E+02  0.12570092692E+02 -0.20190536311E+03  0.20774175558E+03  0.00000000000E+00 0. -1.
         11    1    5    5    0    0  0.27024667019E+02  0.19990542185E+02  0.64667687829E+02  0.72882537370E+02  0.00000000000E+00 0. -1.
        -12    1    5    5    0    0  0.25029055538E+02  0.64285736955E+02  0.52368879744E+03  0.52821308784E+03  0.00000000000E+00 0.  1.
          5    1    4    4  501    0 -0.30202325437E+02  0.15013149659E+02 -0.33951844856E+02  0.48039309879E+02  0.41800000000E+01 0.  1.
         -5    1    4    4    0  501  0.46499617902E+01 -0.12701376951E+03 -0.10913834734E+02  0.12763504213E+03  0.41800000000E+01 0.  1.
</event>
<event>
11    1  0.7882745E-009  0.1778716E+03  0.7561462E-02  0.1071378E+00
         22   -1    0    0    0    0  0.00000000000E+00  0.00000000000E+00  0.40017377513E+03  0.40017377513E+03  0.00000000000E+00 0.  1.
         22   -1    0    0    0    0 -0.00000000000E+00 -0.00000000000E+00 -0.31513643965E+03  0.31513643965E+03  0.00000000000E+00 0.  1.
         24    2    1    2    0    0  0.12297434782E+03  0.37079641272E+02 -0.22532061900E+03  0.27130373496E+03  0.79616237269E+02 0.  0.
         25    2    1    2    0    0 -0.11185168369E+03 -0.31018423024E+02  0.60320613012E+02  0.18099144843E+03  0.12508551610E+03 0.  0.
        -24    2    1    2    0    0 -0.11122664130E+02 -0.60612182485E+01  0.25003734147E+03  0.26301503139E+03  0.80608824474E+02 0.  0.
        -11    1    3    3    0    0  0.54138114884E+02  0.51749800964E+02 -0.78557679218E+02  0.10853702754E+03  0.00000000000E+00 0.  1.
         12    1    3    3    0    0  0.68836232938E+02 -0.14670159692E+02 -0.14676293979E+03  0.16276670742E+03  0.00000000000E+00 0. -1.
         13    1    5    5    0    0 -0.84877827038E+01  0.23173214328E+02  0.21892640323E+02  0.32989816880E+02  0.00000000000E+00 0. -1.
        -14    1    5    5    0    0 -0.26348814259E+01 -0.29234432576E+02  0.22814470114E+03  0.23002521451E+03  0.00000000000E+00 0.  1.
          5    1    4    4  501    0 -0.69027019289E+02 -0.40977457549E+01 -0.31481503886E+02  0.76092564677E+02  0.41800000000E+01 0. -1.
         -5    1    4    4    0  501 -0.42824664404E+02 -0.26920677269E+02  0.91802116898E+02  0.10489888375E+03  0.41800000000E+01 0. -1.
</event>
<event>
11    1  0.7882745E-009  0.1769129E+03  0.7561462E-02  0.1072168E+00
         22   -1    0    0    0    0  0.00000000000E+00  0.00000000000E+00  0.56051004474E+03  0.56051004474E+03  0.00000000000E+00 0.  1.
         22   -1    0    0    0    0 -0.00000000000E+00 -0.00000000000E+00 -0.73416596691E+03  0.73416596691E+03  0.00000000000E+00 0.  1.
         24    2    1    2    0    0 -0.51043401721E+01  0.13524864997E+03 -0.65924201870E+03  0.67783027279E+03  0.80842982877E+02 0.  0.
         25    2    1    2    0    0  0.53229702880E+02 -0.23626737315E+02  0.36022714846E+02  0.14260925307E+03  0.12509252213E+03 0.  0.
        -24    2    1    2    0    0 -0.48125362708E+02 -0.11162191265E+03  0.44956338168E+03  0.47423648579E+03  0.89540540469E+02 0.  0.
        -13    1    3    3    0    0  0.46222216565E+01  0.10617784472E+03 -0.61432053738E+03  0.62344592571E+03  0.00000000000E+00 0.  1.
         14    1    3    3    0    0 -0.97265618286E+01  0.29070805245E+02 -0.44921481323E+02  0.54384347076E+02  0.00000000000E+00 0. -1.
         13    1    5    5    0    0 -0.11564640968E+02 -0.22084462734E+01  0.18725795757E+01  0.11921606852E+02  0.00000000000E+00 0. -1.
        -14    1    5    5    0    0 -0.36560721740E+02 -0.10941346638E+03  0.44769080211E+03  0.46231487894E+03  0.00000000000E+00 0.  1.
          5    1    4    4  501    0  0.42071396340E+02  0.34084772953E+02 -0.23207570517E+02  0.59057919592E+02  0.41800000000E+01 0. -1.
         -5    1    4    4    0  501  0.11158306540E+02 -0.57711510267E+02  0.59230285363E+02  0.83551333480E+02  0.41800000000E+01 0. -1.
</event>
<event>
11    1  0.7882745E-009  0.3803362E+03  0.7561462E-02  0.9709627E-01
         22   -1    0    0    0    0  0.00000000000E+00  0.00000000000E+00  0.86855299161E+03  0.86855299161E+03  0.00000000000E+00 0. -1.
         22   -1    0    0    0    0 -0.00000000000E+00 -0.00000000000E+00 -0.63209344184E+03  0.63209344184E+03  0.00000000000E+00 0. -1.
         24    2    1    2    0    0  0.22499633557E+03  0.30175218560E+03 -0.48263166872E+03  0.61702280340E+03  0.78141408594E+02 0.  0.
         25    2    1    2    0    0 -0.19043795513E+03 -0.20388061265E+03  0.24518330576E+03  0.39191553556E+03  0.12509602158E+03 0.  0.
        -24    2    1    2    0    0 -0.34558380437E+02 -0.97871572946E+02  0.47390791273E+03  0.49170809450E+03  0.80093782506E+02 0.  0.
        -13    1    3    3    0    0  0.23389591462E+02  0.84488153501E+02 -0.99092492584E+02  0.13230511387E+03  0.00000000000E+00 0.  1.
         14    1    3    3    0    0  0.20160674411E+03  0.21726403209E+03 -0.38353917613E+03  0.48471768953E+03  0.00000000000E+00 0. -1.
         11    1    5    5    0    0 -0.94316101534E+01 -0.70078899190E+02  0.42088414182E+03  0.42678269438E+03  0.00000000000E+00 0. -1.
        -12    1    5    5    0    0 -0.25126770283E+02 -0.27792673757E+02  0.53023770904E+02  0.64925400117E+02  0.00000000000E+00 0.  1.
          5    1    4    4  501    0 -0.81262184730E+02 -0.23877843184E+02  0.12003113338E+03  0.14696475579E+03  0.41800000000E+01 0.  1.
         -5    1    4    4    0  501 -0.10917577040E+03 -0.18000276946E+03  0.12515217238E+03  0.24495077977E+03  0.41800000000E+01 0.  1.
</event>
<event>
11    1  0.7882745E-009  0.1940798E+03  0.7561462E-02  0.1058791E+00
         22   -1    0    0    0    0  0.00000000000E+00  0.00000000000E+00  0.10235233577E+04  0.10235233577E+04  0.00000000000E+00 0. -1.
         22   -1    0    0    0    0 -0.00000000000E+00 -0.00000000000E+00 -0.24434472019E+03  0.24434472019E+03  0.00000000000E+00 0.  1.
         24    2    1    2    0    0 -0.69344368938E+02 -0.21426225062E+02 -0.14212448753E+03  0.18330222959E+03  0.90181000184E+02 0.  0.
         25    2    1    2    0    0  0.20577888320E+03 -0.18596507478E+02  0.12556187778E+03  0.27221788658E+03  0.12508402681E+03 0.  0.
        -24    2    1    2    0    0 -0.13643451426E+03  0.40022732540E+02  0.79574124730E+03  0.81234796175E+03  0.80553600190E+02 0.  0.
        -11    1    3    3    0    0 -0.60488039940E+02 -0.37003713124E+02 -0.43772763235E+02  0.83331462018E+02  0.00000000000E+00 0.  1.
         12    1    3    3    0    0 -0.88563289977E+01  0.15577488062E+02 -0.98351724297E+02  0.99970767576E+02  0.00000000000E+00 0. -1.
         13    1    5    5    0    0 -0.26123278936E+02 -0.97927265850E+01  0.32855051359E+03  0.32973286639E+03  0.00000000000E+00 0. -1.
        -14    1    5    5    0    0 -0.11031123532E+03  0.49815459125E+02  0.46719073371E+03  0.48261509536E+03  0.00000000000E+00 0.  1.
          5    1    4    4  501    0  0.66964731042E+02  0.50732703474E+01 -0.19449540007E+02  0.70041204174E+02  0.41800000000E+01 0. -1.
         -5    1    4    4    0  501  0.13881415216E+03 -0.23669777826E+02  0.14501141778E+03  0.20217668241E+03  0.41800000000E+01 0. -1.
</event>
<event>
11    1  0.7882745E-009  0.1350822E+03  0.7561462E-02  0.1113178E+00
         22   -1    0    0    0    0  0.00000000000E+00  0.00000000000E+00  0.11030662501E+03  0.11030662501E+03  0.00000000000E+00 0.  1.
         22   -1    0    0    0    0 -0.00000000000E+00 -0.00000000000E+00 -0.54347712165E+03  0.54347712165E+03  0.00000000000E+00 0.  1.
         24    2    1    2    0    0 -0.38911130997E+02 -0.32736516475E+02 -0.41281086402E+03  0.42361185524E+03  0.80302171970E+02 0.  0.
         25    2    1    2    0    0  0.60648964930E+02  0.10602819023E+02 -0.25942583531E+01  0.13941307082E+03  0.12505421793E+03 0.  0.
        -24    2    1    2    0    0 -0.21737833933E+02  0.22133697451E+02 -0.17765374259E+02  0.90758820596E+02  0.83421346228E+02 0.  0.
        -13    1    3    3    0    0  0.16759132069E+02  0.11969240120E+02 -0.14464744848E+03  0.14610617909E+03  0.00000000000E+00 0.  1.
         14    1    3    3    0    0 -0.55670263066E+02 -0.44705756594E+02 -0.26816341554E+03  0.27750567615E+03  0.00000000000E+00 0. -1.
         11    1    5    5    0    0  0.92458306889E+01  0.39744726511E+02 -0.32527020376E+02  0.52183672975E+02  0.00000000000E+00 0. -1.
        -12    1    5    5    0    0 -0.30983664622E+02 -0.17611029060E+02  0.14761646117E+02  0.38575147622E+02  0.00000000000E+00 0.  1.
          5    1    4    4  501    0  0.87713192507E+02  0.35880872022E+02 -0.22024601654E+02  0.97383759400E+02  0.41800000000E+01 0.  1.
         -5    1    4    4    0  501 -0.27064227577E+02 -0.25278052999E+02  0.19430343301E+02  0.42029311421E+02  0.41800000000E+01 0.  1.
</event>
<event>
11    1  0.7882745E-009  0.1314014E+03  0.7561462E-02  0.1117559E+00
         22   -1    0    0    0    0  0.00000000000E+00  0.00000000000E+00  0.18191496520E+03  0.18191496520E+03  0.00000000000E+00 0.  1.
         22   -1    0    0    0    0 -0.00000000000E+00 -0.00000000000E+00 -0.56004161945E+03  0.56004161945E+03  0.00000000000E+00 0. -1.
         24    2    1    2    0    0 -0.19890424208E+02 -0.15709352922E+02 -0.48571869442E+03  0.49286862241E+03  0.79714591512E+02 0.  0.
         25    2    1    2    0    0  0.52183854794E+02  0.18045189884E+02  0.57712211180E+02  0.14841565091E+03  0.12509085712E+03 0.  0.
        -24    2    1    2    0    0 -0.32293430586E+02 -0.23358369615E+01  0.49879828996E+02  0.10067231134E+03  0.81231737249E+02 0.  0.
        -11    1    3    3    0    0 -0.17405018000E+01  0.22405284451E+02 -0.35035155726E+03  0.35107155937E+03  0.00000000000E+00 0.  1.
         12    1    3    3    0    0 -0.18149922408E+02 -0.38114637373E+02 -0.13536713716E+03  0.14179706304E+03  0.00000000000E+00 0. -1.
         11    1    5    5    0    0 -0.32298480165E+02 -0.14594240057E+02 -0.12131167379E+02  0.37461298506E+02  0.00000000000E+00 0. -1.
        -12    1    5    5    0    0  0.50495783233E-02  0.12258403095E+02  0.62010996376E+02  0.63211012834E+02  0.00000000000E+00 0.  1.
          5    1    4    4  501    0  0.97949112133E+01 -0.47809075902E+02 -0.32382126506E+01  0.49087742314E+02  0.41800000000E+01 0. -1.
         -5    1    4    4    0  501  0.42388943581E+02  0.65854265785E+02  0.60950423831E+02  0.99327908592E+02  0.41800000000E+01 0. -1.
</event>
<event>
11    1  0.7882745E-009  0.1523773E+03  0.7561462E-02  0.1094474E+00
         22   -1    0    0    0    0  0.00000000000E+00  0.00000000000E+00  0.12987353340E+04  0.12987353340E+04  0.00000000000E+00 0. -1.
         22   -1    0    0    0    0 -0.00000000000E+00 -0.00000000000E+00 -0.46631440763E+03  0.46631440763E+03  0.00000000000E+00 0. -1.
         24    2    1    2    0    0  0.35040770512E+02  0.24147709211E+02 -0.43623517633E+03  0.44605909762E+03  0.82804722336E+02 0.  0.
         25    2    1    2    0    0 -0.38135255643E+02 -0.10752602362E+03  0.30765600127E+03  0.35116509838E+03  0.12509423536E+03 0.  0.
        -24    2    1    2    0    0  0.30944851311E+01  0.83378314411E+02  0.96100010143E+03  0.96782554562E+03  0.78762761930E+02 0.  0.
        -13    1    3    3    0    0 -0.92835659856E+01 -0.10611249528E+02 -0.13276585071E+02  0.19366231567E+02  0.00000000000E+00 0.  1.
         14    1    3    3    0    0  0.44324336497E+02  0.34758958739E+02 -0.42295859126E+03  0.42669286605E+03  0.00000000000E+00 0. -1.
         13    1    5    5    0    0  0.30613615637E+02  0.67531015194E+02  0.81740458111E+03  0.82076055016E+03  0.00000000000E+00 0. -1.
        -14    1    5    5    0    0 -0.27519130506E+02  0.15847299217E+02  0.14359552031E+03  0.14706499546E+03  0.00000000000E+00 0.  1.
          5    1    4    4  501    0  0.19139902467E+02 -0.52269300612E+00  0.15434468271E+03  0.15558394055E+03  0.41800000000E+01 0. -1.
         -5    1    4    4    0  501 -0.57275158109E+02 -0.10700333062E+03  0.15331131856E+03  0.19558115783E+03  0.41800000000E+01 0. -1.
</event>
<event>
11    1  0.7882745E-009  0.1865938E+03  0.7561462E-02  0.1064431E+00
         22   -1    0    0    0    0  0.00000000000E+00  0.00000000000E+00  0.18881654555E+04  0.18881654555E+04  0.00000000000E+00 0.  1.
         22   -1    0    0    0    0 -0.00000000000E+00 -0.00000000000E+00 -0.85329437176E+03  0.85329437176E+03  0.00000000000E+00 0.  1.
         24    2    1    2    0    0 -0.13599496959E+03  0.29153574160E+02 -0.81461441320E+03  0.83016450881E+03  0.78942427480E+02 0.  0.
         25    2    1    2    0    0  0.11580115740E+03 -0.24980306000E+02  0.21931017406E+03  0.27888492527E+03  0.12508367342E+03 0.  0.
        -24    2    1    2    0    0  0.20193812187E+02 -0.41732681599E+01  0.16301753229E+04  0.16324103932E+04  0.82866773912E+02 0.  0.
        -11    1    3    3    0    0 -0.52886927099E+02  0.23918771655E+02 -0.54242753877E+03  0.54552430698E+03  0.00000000000E+00 0.  1.
         12    1    3    3    0    0 -0.83108042487E+02  0.52348025050E+01 -0.27218687443E+03  0.28464020182E+03  0.00000000000E+00 0. -1.
         11    1    5    5    0    0 -0.18829273194E+02  0.28417556995E+02  0.57292807438E+03  0.57394135370E+03  0.00000000000E+00 0. -1.
        -12    1    5    5    0    0  0.39023085381E+02 -0.32590825155E+02  0.10572472485E+04  0.10584690395E+04  0.00000000000E+00 0.  1.
          5    1    4    4  501    0  0.94883321273E+02  0.33097626460E+02  0.87644349918E+02  0.13340652910E+03  0.41800000000E+01 0. -1.
         -5    1    4    4    0  501  0.20917836126E+02 -0.58077932460E+02  0.13166582414E+03  0.14547839617E+03  0.41800000000E+01 0. -1.
</event>
<event>
11    1  0.2070704E-008  0.1774029E+03  0.7561462E-02  0.1071763E+00
         22   -1    0    0    0    0  0.00000000000E+00  0.00000000000E+00  0.23405332424E+03  0.23405332424E+03  0.00000000000E+00 0.  1.
         22   -1    0    0    0    0 -0.00000000000E+00 -0.00000000000E+00 -0.17726104950E+04  0.17726104950E+04  0.00000000000E+00 0. -1.
        -24    2    1    2    0    0 -0.98229925488E+01  0.94968745217E+01 -0.95969738454E+03  0.96306758113E+03  0.79331041385E+02 0.  0.
         25    2    1    2    0    0  0.12095319354E+03  0.49155998575E+02 -0.77565074326E+03  0.79644737527E+03  0.12509340040E+03 0.  0.
         24    2    1    2    0    0 -0.11113020099E+03 -0.58652873096E+02  0.19679095705E+03  0.24714886283E+03  0.81029615103E+02 0.  0.
        -13    1    5    5    0    0 -0.62250033371E+02 -0.75354770836E+02  0.12394300091E+03  0.15784573361E+03  0.00000000000E+00 0.  1.
         14    1    5    5    0    0 -0.48880167622E+02  0.16701897740E+02  0.72847956143E+02  0.89303129223E+02  0.00000000000E+00 0. -1.
         11    1    3    3    0    0 -0.18065716557E+02 -0.16155284273E+02 -0.84105652245E+03  0.84140563183E+03  0.00000000000E+00 0. -1.
        -12    1    3    3    0    0  0.82427240083E+01  0.25652158794E+02 -0.11864086209E+03  0.12166194930E+03  0.00000000000E+00 0.  1.
          5    1    4    4  501    0  0.67147800739E+02 -0.33512415161E+02 -0.44747488926E+03  0.45374349365E+03  0.41800000000E+01 0.  1.
         -5    1    4    4    0  501  0.53805392804E+02  0.82668413736E+02 -0.32817585401E+03  0.34270388162E+03  0.41800000000E+01 0.  1.
</event>
<event>
11    1  0.7882745E-009  0.1749491E+03  0.7561462E-02  0.1073803E+00
         22   -1    0    0    0    0  0.00000000000E+00  0.00000000000E+00  0.35381551308E+03  0.35381551308E+03  0.00000000000E+00 0. -1.
         22   -1    0    0    0    0 -0.00000000000E+00 -0.00000000000E+00 -0.23783126683E+03  0.23783126683E+03  0.00000000000E+00 0. -1.
         24    2    1    2    0    0  0.11546442998E+03 -0.25422391665E+02 -0.13089665382E+03  0.19429150857E+03  0.81467316944E+02 0.  0.
         25    2    1    2    0    0 -0.13348888285E+03  0.41425087126E+02  0.67242546344E+02  0.19926889866E+03  0.12510481303E+03 0.  0.
        -24    2    1    2    0    0  0.18024452872E+02 -0.16002695462E+02  0.17963835372E+03  0.19808637269E+03  0.79920621591E+02 0.  0.
        -13    1    3    3    0    0  0.19554136448E+02 -0.10231682332E+02 -0.83251091706E+02  0.86126626810E+02  0.00000000000E+00 0.  1.
         14    1    3    3    0    0  0.95910293534E+02 -0.15190709333E+02 -0.47645562116E+02  0.10816488175E+03  0.00000000000E+00 0. -1.
         11    1    5    5    0    0 -0.13472320041E+01  0.42684628220E+01  0.16745511580E+03  0.16751492655E+03  0.00000000000E+00 0. -1.
        -12    1    5    5    0    0  0.19371684876E+02 -0.20271158284E+02  0.12183237921E+02  0.30571446144E+02  0.00000000000E+00 0.  1.
          5    1    4    4  501    0 -0.61471264015E+02  0.83513650553E+02  0.31842844051E+02  0.10855729015E+03  0.41800000000E+01 0.  1.
         -5    1    4    4    0  501 -0.72017618839E+02 -0.42088563427E+02  0.35399702293E+02  0.90711608501E+02  0.41800000000E+01 0.  1.
</event>
<event>
11    1  0.7882745E-009  0.2695375E+03  0.7561462E-02  0.1013977E+00
         22   -1    0    0    0    0  0.00000000000E+00  0.00000000000E+00  0.76826883220E+03  0.76826883220E+03  0.00000000000E+00 0.  1.
         22   -1    0    0    0    0 -0.00000000000E+00 -0.00000000000E+00 -0.18669813588E+04  0.18669813588E+04  0.00000000000E+00 0.  1.
         24    2    1    2    0    0  0.22876851492E+03  0.80898819197E+02 -0.17046048342E+04  0.17237492157E+04  0.82183121064E+02 0.  0.
         25    2    1    2    0    0 -0.20332203153E+03 -0.21881157972E+02 -0.52142519728E+02  0.24532720769E+03  0.12509181783E+03 0.  0.
        -24    2    1    2    0    0 -0.25446483390E+02 -0.59017661225E+02  0.65803482734E+03  0.66617376764E+03  0.81529423171E+02 0.  0.
        -13    1    3    3    0    0  0.22406976748E+03  0.91775215149E+02 -0.16612914170E+04  0.16788445797E+04  0.00000000000E+00 0.  1.
         14    1    3    3    0    0  0.46987474361E+01 -0.10876395952E+02 -0.43313417250E+02  0.44904635955E+02  0.00000000000E+00 0. -1.
         11    1    5    5    0    0 -0.18879420507E+01  0.15347463553E+02  0.34861807509E+02  0.38137312248E+02  0.00000000000E+00 0. -1.
        -12    1    5    5    0    0 -0.23558541339E+02 -0.74365124778E+02  0.62317301983E+03  0.62803645539E+03  0.00000000000E+00 0.  1.
          5    1    4    4  501    0 -0.83627186744E+02  0.51125571862E+02 -0.87117380837E+01  0.98492117661E+02  0.41800000000E+01 0. -1.
         -5    1    4    4    0  501 -0.11969484479E+03 -0.73006729833E+02 -0.43430781645E+02  0.14683509003E+03  0.41800000000E+01 0. -1.
</event>
<event>
11    1  0.7882745E-009  0.2320039E+03  0.7561462E-02  0.1033948E+00
         22   -1    0    0    0    0  0.00000000000E+00  0.00000000000E+00  0.38934575012E+04  0.38934575012E+04  0.00000000000E+00 0.  1.
         22   -1    0    0    0    0 -0.00000000000E+00 -0.00000000000E+00 -0.26160553684E+04  0.26160553684E+04  0.00000000000E+00 0. -1.
         24    2    1    2    0    0  0.20253728102E+03  0.32451764335E+02 -0.22980537964E+04  0.23086441557E+04  0.81927524502E+02 0.  0.
         25    2    1    2    0    0 -0.14240577054E+03 -0.10550019016E+02 -0.28312180040E+03  0.34087581637E+03  0.12509061490E+03 0.  0.
        -24    2    1    2    0    0 -0.60131510485E+02 -0.21901745319E+02  0.38585777297E+04  0.38599928975E+04  0.82629221129E+02 0.  0.
        -11    1    3    3    0    0  0.16477945449E+03  0.63374614220E+01 -0.14495803263E+04  0.14589295920E+04  0.00000000000E+00 0.  1.
         12    1    3    3    0    0  0.37757826531E+02  0.26114302913E+02 -0.84847347017E+03  0.84971456375E+03  0.00000000000E+00 0. -1.
         13    1    5    5    0    0  0.12160637668E+02 -0.48566544342E+01  0.12645779457E+03  0.12713395302E+03  0.00000000000E+00 0. -1.
        -14    1    5    5    0    0 -0.72292148153E+02 -0.17045090885E+02  0.37321199351E+04  0.37328589445E+04  0.00000000000E+00 0.  1.
          5    1    4    4  501    0 -0.65606193439E+02 -0.38247975133E+02 -0.23273314812E+03  0.24484540194E+03  0.41800000000E+01 0. -1.
         -5    1    4    4    0  501 -0.76799577097E+02  0.27697956117E+02 -0.50388652285E+02  0.96030414424E+02  0.41800000000E+01 0. -1.
</event>
<event>
11    1  0.7882745E-009  0.1357448E+03  0.7561462E-02  0.1112405E+00
         22   -1    0    0    0    0  0.00000000000E+00  0.00000000000E+00  0.82802623167E+03  0.82802623167E+03  0.00000000000E+00 0.  1.
         22   -1    0    0    0    0 -0.00000000000E+00 -0.00000000000E+00 -0.91454973673E+03  0.91454973673E+03  0.00000000000E+00 0. -1.
        -24    2    1    2    0    0  0.33947555060E+01  0.13536847246E+02 -0.85662157717E+03  0.86024735973E+03  0.77654509474E+02 0.  0.
         25    2    1    2    0    0  0.39045044312E+02 -0.44235988360E+02  0.37233676959E+02  0.14324830834E+03  0.12510952399E+03 0.  0.
         24    2    1    2    0    0 -0.42439799818E+02  0.30699141114E+02  0.73286439515E+03  0.73908030032E+03  0.80036833866E+02 0.  0.
        -11    1    5    5    0    0 -0.49175405402E+02 -0.11790571615E+02  0.31862221075E+03  0.32261021567E+03  0.00000000000E+00 0.  1.
         12    1    5    5    0    0  0.67356055841E+01  0.42489712728E+02  0.41424218440E+03  0.41647008465E+03  0.00000000000E+00 0. -1.
         13    1    3    3    0    0 -0.15102087024E+02 -0.23649647244E+01 -0.77273748589E+03  0.77288866480E+03  0.00000000000E+00 0. -1.
        -14    1    3    3    0    0  0.18496842530E+02  0.15901811971E+02 -0.83884091285E+02  0.87358694921E+02  0.00000000000E+00 0.  1.
          5    1    4    4  501    0  0.18090478680E+02  0.43653212755E+02  0.18257217633E+02  0.50829782593E+02  0.41800000000E+01 0.  1.
         -5    1    4    4    0  501  0.20954565632E+02 -0.87889201115E+02  0.18976459326E+02  0.92418525751E+02  0.41800000000E+01 0.  1.
</event>
<event>
11    1  0.7882745E-009  0.1549358E+03  0.7561462E-02  0.1091939E+00
         22   -1    0    0    0    0  0.00000000000E+00  0.00000000000E+00  0.81582977764E+02  0.81582977764E+02  0.00000000000E+00 0.  1.
         22   -1    0    0    0    0 -0.00000000000E+00 -0.00000000000E+00 -0.12721203370E+04  0.12721203370E+04  0.00000000000E+00 0. -1.
         24    2    1    2    0    0 -0.20441755615E+02  0.26614476300E+02 -0.98960753660E+03  0.99347762436E+03  0.80922913218E+02 0.  0.
         25    2    1    2    0    0  0.87263313341E+02  0.36454786633E+02 -0.17574766780E+03  0.23554186061E+03  0.12509551565E+03 0.  0.
        -24    2    1    2    0    0 -0.66821557726E+02 -0.63069262934E+02 -0.25182154859E+02  0.12468382983E+03  0.80430491686E+02 0.  0.
        -11    1    3    3    0    0  0.28920959411E+02  0.88703390787E+01 -0.53485311396E+03  0.53570790392E+03  0.00000000000E+00 0.  1.
         12    1    3    3    0    0 -0.49362715025E+02  0.17744137222E+02 -0.45475442264E+03  0.45776972044E+03  0.00000000000E+00 0. -1.
         11    1    5    5    0    0 -0.41747320971E+02 -0.25580110419E+02 -0.52633323483E+02  0.71884960862E+02  0.00000000000E+00 0. -1.
        -12    1    5    5    0    0 -0.25074236755E+02 -0.37489152515E+02  0.27451168624E+02  0.52798868965E+02  0.00000000000E+00 0.  1.
          5    1    4    4  501    0 -0.25270456574E+02 -0.79931380328E+01 -0.67738238584E+01  0.27673874335E+02  0.41800000000E+01 0.  1.
         -5    1    4    4    0  501  0.11253376991E+03  0.44447924666E+02 -0.16897384395E+03  0.20786798627E+03  0.41800000000E+01 0.  1.
</event>
<event>
11    1  0.7882745E-009  0.1573386E+03  0.7561462E-02  0.1089607E+00
         22   -1    0    0    0    0  0.00000000000E+00  0.00000000000E+00  0.32709825807E+03  0.32709825807E+03  0.00000000000E+00 0. -1.
         22   -1    0    0    0    0 -0.00000000000E+00 -0.00000000000E+00 -0.50240637029E+03  0.50240637029E+03  0.00000000000E+00 0. -1.
         24    2    1    2    0    0 -0.51978594243E+02 -0.25142640274E+02 -0.41945424605E+03  0.43115083577E+03  0.81334199674E+02 0.  0.
         25    2    1    2    0    0 -0.49665366471E+02  0.54014294261E+02  0.32736950840E+02  0.14867123751E+03  0.12508891358E+03 0.  0.
        -24    2    1    2    0    0  0.10164396071E+03 -0.28871653988E+02  0.21140918299E+03  0.24968255507E+03  0.80513778344E+02 0.  0.
        -13    1    3    3    0    0  0.93284293627E+01  0.14820964131E+02 -0.28842081373E+02  0.33742350690E+02  0.00000000000E+00 0.  1.
         14    1    3    3    0    0 -0.61307023606E+02 -0.39963604404E+02 -0.39061216467E+03  0.39740848508E+03  0.00000000000E+00 0. -1.
         11    1    5    5    0    0  0.75994734173E+02 -0.56603701385E+02  0.15864680601E+03  0.18479174140E+03  0.00000000000E+00 0. -1.
        -12    1    5    5    0    0  0.25649226542E+02  0.27732047397E+02  0.52762376979E+02  0.64890813676E+02  0.00000000000E+00 0.  1.
          5    1    4    4  501    0  0.61144058033E+01 -0.28387248364E+02  0.39090850478E+02  0.48875237279E+02  0.41800000000E+01 0. -1.
         -5    1    4    4    0  501 -0.55779772275E+02  0.82401542625E+02 -0.63538996379E+01  0.99796000233E+02  0.41800000000E+01 0. -1.
</event>
<event>
11    1  0.7882745E-009  0.1296084E+03  0.7561462E-02  0.1119751E+00
         22   -1    0    0    0    0  0.00000000000E+00  0.00000000000E+00  0.34027475616E+04  0.34027475616E+04  0.00000000000E+00 0.  1.
         22   -1    0    0    0    0 -0.00000000000E+00 -0.00000000000E+00 -0.16843639382E+03  0.16843639382E+03  0.00000000000E+00 0.  1.
         24    2    1    2    0    0  0.27975340393E+02  0.19494743148E+02 -0.15244337882E+03  0.17607226832E+03  0.81239123856E+02 0.  0.
         25    2    1    2    0    0 -0.21611393010E+02  0.21822149146E+01  0.11811262544E+04  0.11879303588E+04  0.12508994420E+03 0.  0.
        -24    2    1    2    0    0 -0.63639473828E+01 -0.21676958062E+02  0.22056282921E+04  0.22071813282E+04  0.79642089082E+02 0.  0.
        -13    1    3    3    0    0  0.45590829127E+01 -0.18674606584E+02 -0.11806031923E+03  0.11961507073E+03  0.00000000000E+00 0.  1.
         14    1    3    3    0    0  0.23416257480E+02  0.38169349731E+02 -0.34383059586E+02  0.56457197591E+02  0.00000000000E+00 0. -1.
         11    1    5    5    0    0 -0.36325027825E+02 -0.39048347171E+00  0.57935354412E+03  0.58049133431E+03  0.00000000000E+00 0. -1.
        -12    1    5    5    0    0  0.29961080442E+02 -0.21286474591E+02  0.16262747480E+04  0.16266899939E+04  0.00000000000E+00 0.  1.
          5    1    4    4  501    0  0.84842601755E+01  0.90815793679E+00  0.11161395058E+04  0.11161799479E+04  0.41800000000E+01 0. -1.
         -5    1    4    4    0  501 -0.30095653186E+02  0.12740569778E+01  0.64986748662E+02  0.71750410894E+02  0.41800000000E+01 0. -1.
</event>
<event>
11    1  0.7882745E-009  0.1472390E+03  0.7561462E-02  0.1099734E+00
         22   -1    0    0    0    0  0.00000000000E+00  0.00000000000E+00  0.30502024310E+04  0.30502024310E+04  0.00000000000E+00 0.  1.
         22   -1    0    0    0    0 -0.00000000000E+00 -0.00000000000E+00 -0.20699435820E+03  0.20699435820E+03  0.00000000000E+00 0.  1.
         24    2    1    2    0    0 -0.32940286772E+02  0.27087891069E+02 -0.18849758639E+03  0.21183544002E+03  0.86741554280E+02 0.  0.
         25    2    1    2    0    0  0.76343209171E+02 -0.78887625056E+02  0.13293423058E+04  0.13397201286E+04  0.12509002355E+03 0.  0.
        -24    2    1    2    0    0 -0.43402922399E+02  0.51799733988E+02  0.17023633534E+04  0.17056412206E+04  0.81264754257E+02 0.  0.
        -11    1    3    3    0    0 -0.14197285669E+02 -0.91473723602E+01 -0.16268502471E+03  0.16355933054E+03  0.00000000000E+00 0.  1.
         12    1    3    3    0    0 -0.18743001103E+02  0.36235263429E+02 -0.25812561676E+02  0.48276109478E+02  0.00000000000E+00 0. -1.
         13    1    5    5    0    0 -0.29553713475E+02  0.36754464763E+02  0.35458548412E+03  0.35770823056E+03  0.00000000000E+00 0. -1.
        -14    1    5    5    0    0 -0.13849208924E+02  0.15045269225E+02  0.13477778693E+04  0.13479329900E+04  0.00000000000E+00 0.  1.
          5    1    4    4  501    0  0.29602923707E+02  0.11421526170E+02  0.80248871519E+03  0.80312663681E+03  0.41800000000E+01 0. -1.
         -5    1    4    4    0  501  0.46740285463E+02 -0.90309151226E+02  0.52685359064E+03  0.53659349181E+03  0.41800000000E+01 0. -1.
</event>
<event>
11    1  0.7882745E-009  0.2641432E+03  0.7561462E-02  0.1016624E+00
         22   -1    0    0    0    0  0.00000000000E+00  0.00000000000E+00  0.12071623770E+04  0.12071623770E+04  0.00000000000E+00 0.  1.
         22   -1    0    0    0    0 -0.00000000000E+00 -0.00000000000E+00 -0.59144556986E+03  0.59144556986E+03  0.00000000000E+00 0.  1.
         24    2    1    2    0    0  0.20167481215E+03 -0.12842334519E+03 -0.52436891073E+03  0.58125246488E+03  0.75672900994E+02 0.  0.
         25    2    1    2    0    0 -0.12225949813E+03  0.11112807757E+03  0.27237624596E+03  0.34224891499E+03  0.12509462795E+03 0.  0.
        -24    2    1    2    0    0 -0.79415314018E+02  0.17295267621E+02  0.86770947196E+03  0.87510656703E+03  0.79283400172E+02 0.  0.
        -13    1    3    3    0    0  0.14589413754E+03 -0.72058689792E+02 -0.41816828717E+03  0.44871179006E+03  0.00000000000E+00 0.  1.
         14    1    3    3    0    0  0.55780674604E+02 -0.56364655396E+02 -0.10620062356E+03  0.13254067482E+03  0.00000000000E+00 0. -1.
         13    1    5    5    0    0 -0.11885091176E+01  0.40855063359E+01  0.50948962085E+00  0.42852649413E+01  0.00000000000E+00 0. -1.
        -14    1    5    5    0    0 -0.78226804901E+02  0.13209761285E+02  0.86719998234E+03  0.87082130208E+03  0.00000000000E+00 0.  1.
          5    1    4    4  501    0  0.19361407106E+02  0.31610124377E+02  0.93149890459E+02  0.10034160922E+03  0.41800000000E+01 0.  1.
         -5    1    4    4    0  501 -0.14162090524E+03  0.79517953190E+02  0.17922635550E+03  0.24190730577E+03  0.41800000000E+01 0.  1.
</event>
<event>
11    1  0.7882745E-009  0.1448033E+03  0.7561462E-02  0.1102310E+00
         22   -1    0    0    0    0  0.00000000000E+00  0.00000000000E+00  0.27350950190E+03  0.27350950190E+03  0.00000000000E+00 0. -1.
         22   -1    0    0    0    0 -0.00000000000E+00 -0.00000000000E+00 -0.27339455497E+03  0.27339455497E+03  0.00000000000E+00 0. -1.
        -24    2    1    2    0    0 -0.46107458215E+01 -0.20056805504E+02 -0.14621354487E+03  0.16823347930E+03  0.80626102652E+02 0.  0.
         25    2    1    2    0    0  0.45227092134E+02  0.77893627191E+02 -0.44405502713E+02  0.16041462391E+03  0.12509234938E+03 0.  0.
         24    2    1    2    0    0 -0.40616346313E+02 -0.57836821687E+02  0.19073399450E+03  0.21825595366E+03  0.79129129394E+02 0.  0.
        -11    1    5    5    0    0  0.13676920606E+02  0.70830476888E+01  0.91413690738E+01  0.17910676994E+02  0.00000000000E+00 0.  1.
         12    1    5    5    0    0 -0.54293266919E+02 -0.64919869376E+02  0.18159262543E+03  0.20034527667E+03  0.00000000000E+00 0. -1.
         13    1    3    3    0    0  0.10725629216E+00  0.13443299480E+02 -0.13004427439E+03  0.13073732102E+03  0.00000000000E+00 0. -1.
        -14    1    3    3    0    0 -0.47180021137E+01 -0.33500104984E+02 -0.16169270477E+02  0.37496158279E+02  0.00000000000E+00 0.  1.
          5    1    4    4  501    0 -0.43178267618E+02  0.28652336109E+02 -0.70462371056E+01  0.52463711424E+02  0.41800000000E+01 0. -1.
         -5    1    4    4    0  501  0.88405359752E+02  0.49241291082E+02 -0.37359265607E+02  0.10795091249E+03  0.41800000000E+01 0. -1.
</event>
<event>
11    1  0.7882745E-009  0.1474831E+03  0.7561462E-02  0.1099479E+00
         22   -1    0    0    0    0  0.00000000000E+00  0.00000000000E+00  0.63292464509E+03  0.63292464509E+03  0.00000000000E+00 0. -1.
         22   -1    0    0    0    0 -0.00000000000E+00 -0.00000000000E+00 -0.61733723567E+03  0.61733723567E+03  0.00000000000E+00 0.  1.
        -24    2    1    2    0    0 -0.59556853595E+02  0.50514699683E+02 -0.55977142793E+03  0.57087876148E+03  0.80372601561E+02 0.  0.
         25    2    1    2    0    0  0.66068326134E+02 -0.43639852722E+02  0.62997991312E+02  0.16089341506E+03  0.12509389927E+03 0.  0.
         24    2    1    2    0    0 -0.65114725392E+01 -0.68748469615E+01  0.51236084604E+03  0.51848970423E+03  0.78919414820E+02 0.  0.
        -13    1    5    5    0    0 -0.36557430865E+01  0.35190528497E+02  0.17808827559E+03  0.18156864172E+03  0.00000000000E+00 0.  1.
         14    1    5    5    0    0 -0.28557294527E+01 -0.42065375459E+02  0.33427257045E+03  0.33692106250E+03  0.00000000000E+00 0. -1.
         13    1    3    3    0    0 -0.12434865267E+02 -0.52863449094E+01 -0.11439193462E+02  0.17703854490E+02  0.00000000000E+00 0. -1.
        -14    1    3    3    0    0 -0.47121988328E+02  0.55801044593E+02 -0.54833223447E+03  0.55317490699E+03  0.00000000000E+00 0.  1.
          5    1    4    4  501    0  0.84895491088E+02 -0.80042208435E+01  0.79955442673E+02  0.11696861618E+03  0.41800000000E+01 0. -1.
         -5    1    4    4    0  501 -0.18827164953E+02 -0.35635631878E+02 -0.16957451361E+02  0.43924798875E+02  0.41800000000E+01 0. -1.
</event>
<event>
11    1  0.7882745E-009  0.1347508E+03  0.7561462E-02  0.1113566E+00
         22   -1    0    0    0    0  0.00000000000E+00  0.00000000000E+00  0.60387210744E+03  0.60387210744E+03  0.00000000000E+00 0. -1.
         22   -1    0    0    0    0 -0.00000000000E+00 -0.00000000000E+00 -0.86351631006E+03  0.86351631006E+03  0.00000000000E+00 0.  1.
        -24    2    1    2    0    0 -0.26634712310E+02 -0.33383700989E+02 -0.81282583506E+03  0.81817560827E+03  0.83075919709E+02 0.  0.
         25    2    1    2    0    0  0.68003948863E+02  0.53139453065E+02  0.92209481660E+02  0.17776699093E+03  0.12510066356E+03 0.  0.
         24    2    1    2    0    0 -0.41369236552E+02 -0.19755752076E+02  0.46097215078E+03  0.47144581830E+03  0.87545030288E+02 0.  0.
        -11    1    5    5    0    0  0.75540623183E+01 -0.43672693272E+02  0.19981694694E+03  0.20467335019E+03  0.00000000000E+00 0.  1.
         12    1    5    5    0    0 -0.48923298871E+02  0.23916941196E+02  0.26115520384E+03  0.26677246811E+03  0.00000000000E+00 0. -1.
         11    1    3    3    0    0  0.56116475582E+01  0.10814402094E+02 -0.19687584911E+02  0.23152599867E+02  0.00000000000E+00 0. -1.
        -12    1    3    3    0    0 -0.32246359869E+02 -0.44198103083E+02 -0.79313825015E+03  0.79502300840E+03  0.00000000000E+00 0.  1.
          5    1    4    4  501    0  0.51778160128E+01 -0.25000764198E+02 -0.15815526258E+02  0.30322454715E+02  0.41800000000E+01 0. -1.
         -5    1    4    4    0  501  0.62826132850E+02  0.78140217263E+02  0.10802500792E+03  0.14744453621E+03  0.41800000000E+01 0. -1.
</event>
<event>
11    1  0.7882745E-009  0.1418700E+03  0.7561462E-02  0.1105488E+00
         22   -1    0    0    0    0  0.00000000000E+00  0.00000000000E+00  0.18932253109E+04  0.18932253109E+04  0.00000000000E+00 0. -1.
         22   -1    0    0    0    0 -0.00000000000E+00 -0.00000000000E+00 -0.14764756850E+03  0.14764756850E+03  0.00000000000E+00 0. -1.
        -24    2    1    2    0    0 -0.34522362353E+02  0.58696841626E+02 -0.11670174837E+03  0.15655043602E+03  0.79067238627E+02 0.  0.
         25    2    1    2    0    0 -0.31450402527E+02 -0.57511975773E+02  0.54634633033E+03  0.56430346910E+03  0.12508931766E+03 0.  0.
         24    2    1    2    0    0  0.65972764880E+02 -0.11848658532E+01  0.13159331604E+04  0.13200189743E+04  0.80101186789E+02 0.  0.
        -13    1    5    5    0    0  0.64812271598E+02  0.18777755112E+02  0.59591595229E+03  0.59972415061E+03  0.00000000000E+00 0.  1.
         14    1    5    5    0    0  0.11604932818E+01 -0.19962620965E+02  0.72001720812E+03  0.72029482365E+03  0.00000000000E+00 0. -1.
         13    1    3    3    0    0 -0.16309197420E+02  0.73634747610E+02 -0.10737588342E+03  0.13121602919E+03  0.00000000000E+00 0. -1.
        -14    1    3    3    0    0 -0.18213164933E+02 -0.14937905984E+02 -0.93258649507E+01  0.25334406824E+02  0.00000000000E+00 0.  1.
          5    1    4    4  501    0  0.43124668428E+01  0.26351269261E+02  0.31835392749E+02  0.41760644073E+02  0.41800000000E+01 0.  1.
         -5    1    4    4    0  501 -0.35762869370E+02 -0.83863245034E+02  0.51451093758E+03  0.52254282503E+03  0.41800000000E+01 0.  1.
</event>
<event>
11    1  0.7882745E-009  0.1446913E+03  0.7561462E-02  0.1102430E+00
         22   -1    0    0    0    0  0.00000000000E+00  0.00000000000E+00  0.17787846463E+04  0.17787846463E+04  0.00000000000E+00 0.  1.
         22   -1    0    0    0    0 -0.00000000000E+00 -0.00000000000E+00 -0.12638054900E+04  0.12638054900E+04  0.00000000000E+00 0.  1.
        -24    2    1    2    0    0 -0.32939783297E+02  0.33792736399E+02 -0.11027176085E+04  0.11066870509E+04  0.80889592466E+02 0.  0.
         25    2    1    2    0    0  0.55398484347E+02 -0.10254560250E+03 -0.11125236617E+03  0.20398155167E+03  0.12508713677E+03 0.  0.
         24    2    1    2    0    0 -0.22458701050E+02  0.68752866098E+02  0.17289491310E+04  0.17319215336E+04  0.71103805596E+02 0.  0.
        -11    1    5    5    0    0 -0.38879402958E+02  0.36866850313E+02  0.13996168473E+04  0.14006420284E+04  0.00000000000E+00 0.  1.
         12    1    5    5    0    0  0.16420701908E+02  0.31886015785E+02  0.32933228373E+03  0.33127950520E+03  0.00000000000E+00 0. -1.
         13    1    3    3    0    0 -0.24087844499E+02  0.43354381884E+02 -0.31657876968E+03  0.32044023483E+03  0.00000000000E+00 0. -1.
        -14    1    3    3    0    0 -0.88519387980E+01 -0.95616454855E+01 -0.78613883885E+03  0.78624681610E+03  0.00000000000E+00 0.  1.
          5    1    4    4  501    0  0.74852832690E+02 -0.43003975239E+02 -0.13021139444E+02  0.87403151662E+02  0.41800000000E+01 0.  1.
         -5    1    4    4    0  501 -0.19454348343E+02 -0.59541627258E+02 -0.98231226721E+02  0.11657840001E+03  0.41800000000E+01 0.  1.
</event>
<event>
11    1  0.7882745E-009  0.1905961E+03  0.7561462E-02  0.1061380E+00
         22   -1    0    0    0    0  0.00000000000E+00  0.00000000000E+00  0.70299252339E+03  0.70299252339E+03  0.00000000000E+00 0.  1.
         22   -1    0    0    0    0 -0.00000000000E+00 -0.00000000000E+00 -0.69066357925E+03  0.69066357925E+03  0.00000000000E+00 0.  1.
         24    2    1    2    0    0 -0.14525725870E+02 -0.61292523810E+02 -0.62129865738E+03  0.62962282626E+03  0.80281451759E+02 0.  0.
         25    2    1    2    0    0  0.14702248369E+03  0.96806146260E+02  0.17359208703E+03  0.27707161936E+03  0.12508968346E+03 0.  0.
        -24    2    1    2    0    0 -0.13249675782E+03 -0.35513622450E+02  0.46003551448E+03  0.48696165703E+03  0.81745780435E+02 0.  0.
        -11    1    3    3    0    0 -0.15300994931E+02 -0.62735389348E+02 -0.62352444894E+03  0.62685930474E+03  0.00000000000E+00 0.  1.
         12    1    3    3    0    0  0.77526906106E+00  0.14428655382E+01  0.22257915595E+01  0.27635215116E+01  0.00000000000E+00 0. -1.
         13    1    5    5    0    0 -0.10880950716E+03 -0.23967220492E+01  0.24472280763E+03  0.26783298097E+03  0.00000000000E+00 0. -1.
        -14    1    5    5    0    0 -0.23687250662E+02 -0.33116900401E+02  0.21531270685E+03  0.21912867605E+03  0.00000000000E+00 0.  1.
          5    1    4    4  501    0  0.78940181746E+01 -0.24536882759E+02  0.41219838471E+01  0.26435530812E+02  0.41800000000E+01 0.  1.
         -5    1    4    4    0  501  0.13912846552E+03  0.12134302902E+03  0.16947010319E+03  0.25063608855E+03  0.41800000000E+01 0.  1.
</event>
<event>
11    1  0.7882745E-009  0.1400079E+03  0.7561462E-02  0.1107550E+00
         22   -1    0    0    0    0  0.00000000000E+00  0.00000000000E+00  0.27094369641E+04  0.27094369641E+04  0.00000000000E+00 0. -1.
         22   -1    0    0    0    0 -0.00000000000E+00 -0.00000000000E+00 -0.29938050163E+02  0.29938050163E+02  0.00000000000E+00 0.  1.
        -24    2    1    2    0    0 -0.41527605408E+02  0.48504626799E+02  0.99674761430E+02  0.14218529667E+03  0.78767757936E+02 0.  0.
         25    2    1    2    0    0  0.33778189313E+02 -0.47502718436E+02  0.59353448232E+03  0.60936683804E+03  0.12508911728E+03 0.  0.
         24    2    1    2    0    0  0.77494160954E+01 -0.10019083637E+01  0.19862896702E+04  0.19878228796E+04  0.77666526522E+02 0.  0.
        -11    1    5    5    0    0 -0.12536018189E+02 -0.31441043356E+02  0.53343850494E+03  0.53451129970E+03  0.00000000000E+00 0.  1.
         12    1    5    5    0    0  0.20285434284E+02  0.30439134992E+02  0.14528511652E+04  0.14533115799E+04  0.00000000000E+00 0. -1.
         11    1    3    3    0    0  0.49808919606E+01 -0.12872387764E+02  0.46748497826E+02  0.48743509317E+02  0.00000000000E+00 0. -1.
        -12    1    3    3    0    0 -0.46508497369E+02  0.61377014563E+02  0.52926263604E+02  0.93441787351E+02  0.00000000000E+00 0.  1.
          5    1    4    4  501    0  0.67243078830E+02 -0.19239931959E+02  0.17469355440E+03  0.18822092599E+03  0.41800000000E+01 0. -1.
         -5    1    4    4    0  501 -0.33464889517E+02 -0.28262786477E+02  0.41884092793E+03  0.42114591205E+03  0.41800000000E+01 0. -1.
</event>
<event>
11    1  0.7882745E-009  0.1755621E+03  0.7561462E-02  0.1073290E+00
         22   -1    0    0    0    0  0.00000000000E+00  0.00000000000E+00  0.27266489839E+03  0.27266489839E+03  0.00000000000E+00 0.  1.
         22   -1    0    0    0    0 -0.00000000000E+00 -0.00000000000E+00 -0.20792995138E+04  0.20792995138E+04  0.00000000000E+00 0. -1.
        -24    2    1    2    0    0 -0.82332039003E+02  0.12984970620E+02 -0.19180300273E+04  0.19214405797E+04  0.78406260483E+02 0.  0.
         25    2    1    2    0    0  0.98111819138E+02  0.10877660381E+03 -0.63108495580E+02  0.20270273418E+03  0.12508971836E+03 0.  0.
         24    2    1    2    0    0 -0.15779780135E+02 -0.12176157443E+03  0.17450390739E+03  0.22782109836E+03  0.79849587959E+02 0.  0.
        -11    1    5    5    0    0 -0.85998869449E+01 -0.11330924627E+03  0.18190960468E+03  0.21448554175E+03  0.00000000000E+00 0.  1.
         12    1    5    5    0    0 -0.71798931903E+01 -0.84523281620E+01 -0.74056972980E+01  0.13335556608E+02  0.00000000000E+00 0. -1.
         11    1    3    3    0    0 -0.69389708973E+02  0.24157168317E+02 -0.18439449327E+04  0.18454081975E+04  0.00000000000E+00 0. -1.
        -12    1    3    3    0    0 -0.12942330031E+02 -0.11172197697E+02 -0.74085094544E+02  0.76032382191E+02  0.00000000000E+00 0.  1.
          5    1    4    4  501    0  0.85130541545E+01  0.68593508794E+02  0.22033690209E+02  0.72667031341E+02  0.41800000000E+01 0. -1.
         -5    1    4    4    0  501  0.89598764984E+02  0.40183095014E+02 -0.85142185789E+02  0.13003570284E+03  0.41800000000E+01 0. -1.
</event>
<event>
11    1  0.7882745E-009  0.1606164E+03  0.7561462E-02  0.1086499E+00
         22   -1    0    0    0    0  0.00000000000E+00  0.00000000000E+00  0.18119062896E+03  0.18119062896E+03  0.00000000000E+00 0. -1.
         22   -1    0    0    0    0 -0.00000000000E+00 -0.00000000000E+00 -0.34784792752E+03  0.34784792752E+03  0.00000000000E+00 0.  1.
        -24    2    1    2    0    0 -0.44592235698E+02 -0.65711709764E+02 -0.19110792344E+03  0.22191155791E+03  0.80099967829E+02 0.  0.
         25    2    1    2    0    0 -0.61962257145E+02  0.85889090994E+02 -0.20207890134E+02  0.16514401227E+03  0.12509168119E+03 0.  0.
         24    2    1    2    0    0  0.10655449284E+03 -0.20177381230E+02  0.44658515016E+02  0.14198298629E+03  0.80023738821E+02 0.  0.
        -11    1    5    5    0    0  0.11903717788E+03 -0.22338764514E+02  0.35055756887E+02  0.12608638392E+03  0.00000000000E+00 0.  1.
         12    1    5    5    0    0 -0.12482685038E+02  0.21613832841E+01  0.96027581293E+01  0.15896602378E+02  0.00000000000E+00 0. -1.
         13    1    3    3    0    0  0.35255139808E+01 -0.59720163495E+02 -0.73969296152E+02  0.95133505927E+02  0.00000000000E+00 0. -1.
        -14    1    3    3    0    0 -0.48117749679E+02 -0.59915462692E+01 -0.11713862729E+03  0.12677805198E+03  0.00000000000E+00 0.  1.
          5    1    4    4  501    0 -0.33973921902E+02  0.78778249290E+02  0.42608823889E+02  0.95881302681E+02  0.41800000000E+01 0. -1.
         -5    1    4    4    0  501 -0.27988335243E+02  0.71108417042E+01 -0.62816714023E+02  0.69262709592E+02  0.41800000000E+01 0. -1.
</event>
<event>
11    1  0.7882745E-009  0.1840423E+03  0.7561462E-02  0.1066419E+00
         22   -1    0    0    0    0  0.00000000000E+00  0.00000000000E+00  0.30093019149E+03  0.30093019149E+03  0.00000000000E+00 0.  1.
         22   -1    0    0    0    0 -0.00000000000E+00 -0.00000000000E+00 -0.50075564855E+03  0.50075564855E+03  0.00000000000E+00 0. -1.
         24    2    1    2    0    0 -0.16017416305E+02 -0.13480093108E+03 -0.40648060780E+03  0.43599454258E+03  0.80230343345E+02 0.  0.
         25    2    1    2    0    0  0.22794666803E+02  0.12735110866E+03  0.44233068835E+02  0.18531316255E+03  0.12508597892E+03 0.  0.
        -24    2    1    2    0    0 -0.67772504981E+01  0.74498224169E+01  0.16242208191E+03  0.18037813492E+03  0.77806862723E+02 0.  0.
        -13    1    3    3    0    0  0.87196414016E+01  0.63305670865E+01 -0.61580941909E+02  0.62516562863E+02  0.00000000000E+00 0.  1.
         14    1    3    3    0    0 -0.24737057706E+02 -0.14113149817E+03 -0.34489966589E+03  0.37347797971E+03  0.00000000000E+00 0. -1.
         11    1    5    5    0    0 -0.21961306751E+02  0.31659531581E+02  0.13636713454E+03  0.14170610543E+03  0.00000000000E+00 0. -1.
        -12    1    5    5    0    0  0.15184056253E+02 -0.24209709164E+02  0.26054947365E+02  0.38672029483E+02  0.00000000000E+00 0.  1.
          5    1    4    4  501    0 -0.22718323366E+02 -0.58355985826E+01  0.37390859460E+02  0.44336499620E+02  0.41800000000E+01 0. -1.
         -5    1    4    4    0  501  0.45512990169E+02  0.13318670724E+03  0.68422093756E+01  0.14097666293E+03  0.41800000000E+01 0. -1.
</event>
<event>
11    1  0.7882745E-009  0.2980743E+03  0.7561462E-02  0.1001010E+00
         22   -1    0    0    0    0  0.00000000000E+00  0.00000000000E+00  0.14699155079E+03  0.14699155079E+03  0.00000000000E+00 0. -1.
         22   -1    0    0    0    0 -0.00000000000E+00 -0.00000000000E+00 -0.23895595648E+04  0.23895595648E+04  0.00000000000E+00 0. -1.
        -24    2    1    2    0    0  0.20184986354E+03 -0.17509381395E+03 -0.18565981011E+04  0.18774838017E+04  0.81164682982E+02 0.  0.
         25    2    1    2    0    0 -0.25211333024E+03  0.14561489140E+03 -0.44332283052E+03  0.54492997421E+03  0.12509483140E+03 0.  0.
         24    2    1    2    0    0  0.50263466700E+02  0.29478922549E+02  0.57352917565E+02  0.11413733966E+03  0.79640141843E+02 0.  0.
        -11    1    5    5    0    0  0.60400868065E+02  0.80836615428E+01  0.10770783672E+02  0.61883925440E+02  0.00000000000E+00 0.  1.
         12    1    5    5    0    0 -0.10137401365E+02  0.21395261006E+02  0.46582133892E+02  0.52253414223E+02  0.00000000000E+00 0. -1.
         11    1    3    3    0    0  0.20900856308E+03 -0.17388882598E+03 -0.17987794598E+04  0.18192112159E+04  0.00000000000E+00 0. -1.
        -12    1    3    3    0    0 -0.71586995368E+01 -0.12049879720E+01 -0.57818641289E+02  0.58272585798E+02  0.00000000000E+00 0.  1.
          5    1    4    4  501    0 -0.14417024407E+02 -0.18685786806E+02 -0.15130148962E+02  0.28344365029E+02  0.41800000000E+01 0. -1.
         -5    1    4    4    0  501 -0.23769630584E+03  0.16430067821E+03 -0.42819268156E+03  0.51658560918E+03  0.41800000000E+01 0. -1.
</event>
<event>
11    1  0.7882745E-009  0.2654559E+03  0.7561462E-02  0.1015973E+00
         22   -1    0    0    0    0  0.00000000000E+00  0.00000000000E+00  0.13610356145E+04  0.13610356145E+04  0.00000000000E+00 0. -1.
         22   -1    0    0    0    0 -0.00000000000E+00 -0.00000000000E+00 -0.46527693031E+03  0.46527693031E+03  0.00000000000E+00 0. -1.
        -24    2    1    2    0    0 -0.39285580844E+02 -0.35398981578E+02 -0.21188565646E+03  0.23370693332E+03  0.83228327577E+02 0.  0.
         25    2    1    2    0    0  0.14251805162E+02 -0.19935555071E+03 -0.17009561971E+03  0.29073469593E+03  0.12509354110E+03 0.  0.
         24    2    1    2    0    0  0.25033775683E+02  0.23475453229E+03  0.12777399604E+04  0.13018709156E+04  0.80697546980E+02 0.  0.
        -13    1    5    5    0    0  0.47260471378E+02  0.93634886615E+02  0.46622318387E+03  0.47787561282E+03  0.00000000000E+00 0.  1.
         14    1    5    5    0    0 -0.22226695695E+02  0.14111964568E+03  0.81151677649E+03  0.82399530273E+03  0.00000000000E+00 0. -1.
         11    1    3    3    0    0 -0.51532242262E+02 -0.46089497998E+02 -0.10582092101E+03  0.12640364370E+03  0.00000000000E+00 0. -1.
        -12    1    3    3    0    0  0.12246661418E+02  0.10690516420E+02 -0.10606473545E+03  0.10730328962E+03  0.00000000000E+00 0.  1.
          5    1    4    4  501    0 -0.52972316467E+02 -0.65845424825E+02 -0.45364244633E+02  0.96005590323E+02  0.41800000000E+01 0. -1.
         -5    1    4    4    0  501  0.67224121628E+02 -0.13351012589E+03 -0.12473137508E+03  0.19472910561E+03  0.41800000000E+01 0. -1.
</event>
<event>
11    1  0.7882745E-009  0.1595587E+03  0.7561462E-02  0.1087493E+00
         22   -1    0    0    0    0  0.00000000000E+00  0.00000000000E+00  0.59056646488E+03  0.59056646488E+03  0.00000000000E+00 0. -1.
         22   -1    0    0    0    0 -0.00000000000E+00 -0.00000000000E+00 -0.14622557717E+04  0.14622557717E+04  0.00000000000E+00 0. -1.
         24    2    1    2    0    0 -0.94070305040E+02 -0.23413070532E+02 -0.10807822499E+04  0.10883815205E+04  0.84182351028E+02 0.  0.
         25    2    1    2    0    0  0.15326801757E+03  0.10092915072E+03 -0.33686481133E+03  0.40349070437E+03  0.12509623785E+03 0.  0.
        -24    2    1    2    0    0 -0.59197712528E+02 -0.77516080185E+02  0.54595775440E+03  0.56095001176E+03  0.84154228918E+02 0.  0.
        -11    1    3    3    0    0 -0.20918023905E+02  0.14149797424E+02 -0.72905330064E+02  0.77155477077E+02  0.00000000000E+00 0.  1.
         12    1    3    3    0    0 -0.73152281135E+02 -0.37562867955E+02 -0.10078769198E+04  0.10112260434E+04  0.00000000000E+00 0. -1.
         11    1    5    5    0    0 -0.59557662712E+02 -0.87003191067E+02  0.36981086407E+03  0.38454745563E+03  0.00000000000E+00 0. -1.
        -12    1    5    5    0    0  0.35995018340E+00  0.94871108813E+01  0.17614689033E+03  0.17640255613E+03  0.00000000000E+00 0.  1.
          5    1    4    4  501    0  0.12104852673E+03  0.12849192374E+03 -0.29466832080E+03  0.34352556233E+03  0.41800000000E+01 0.  1.
         -5    1    4    4    0  501  0.32219490836E+02 -0.27562773026E+02 -0.42196490531E+02  0.59965142039E+02  0.41800000000E+01 0.  1.
</event>
<event>
11    1  0.7882745E-009  0.3783406E+03  0.7561462E-02  0.9715919E-01
         22   -1    0    0    0    0  0.00000000000E+00  0.00000000000E+00  0.22105028033E+03  0.22105028033E+03  0.00000000000E+00 0.  1.
         22   -1    0    0    0    0 -0.00000000000E+00 -0.00000000000E+00 -0.32494657443E+04  0.32494657443E+04  0.00000000000E+00 0. -1.
        -24    2    1    2    0    0  0.93791412103E+02 -0.24922795319E+02 -0.24832131005E+04  0.24864357830E+04  0.81225770327E+02 0.  0.
         25    2    1    2    0    0 -0.42235010275E+03 -0.11070528658E+02 -0.45214650734E+03  0.63134025312E+03  0.12510749467E+03 0.  0.
         24    2    1    2    0    0  0.32855869064E+03  0.35993323977E+02 -0.93055856148E+02  0.35273998853E+03  0.80745121076E+02 0.  0.
        -11    1    5    5    0    0  0.24954421990E+03  0.13596937044E+02 -0.35432086401E+02  0.25241360329E+03  0.00000000000E+00 0.  1.
         12    1    5    5    0    0  0.79014470747E+02  0.22396386933E+02 -0.57623769748E+02  0.10032638524E+03  0.00000000000E+00 0. -1.
         13    1    3    3    0    0  0.47220084656E+02 -0.46708090243E+02 -0.92837479438E+03  0.93074762473E+03  0.00000000000E+00 0. -1.
        -14    1    3    3    0    0  0.46571327447E+02  0.21785294924E+02 -0.15548383061E+04  0.15556881582E+04  0.00000000000E+00 0.  1.
          5    1    4    4  501    0 -0.10511235241E+03  0.23303711398E+02 -0.52328795691E+02  0.11978082005E+03  0.41800000000E+01 0.  1.
         -5    1    4    4    0  501 -0.31723775034E+03 -0.34374240056E+02 -0.39981771165E+03  0.51155943307E+03  0.41800000000E+01 0.  1.
</event>
<event>
11    1  0.7882745E-009  0.1436551E+03  0.7561462E-02  0.1103544E+00
         22   -1    0    0    0    0  0.00000000000E+00  0.00000000000E+00  0.31580281704E+03  0.31580281704E+03  0.00000000000E+00 0. -1.
         22   -1    0    0    0    0 -0.00000000000E+00 -0.00000000000E+00 -0.26997987145E+03  0.26997987145E+03  0.00000000000E+00 0. -1.
         24    2    1    2    0    0 -0.68502894651E+02  0.36487114813E+02 -0.16053171661E+03  0.19561838193E+03  0.80449755685E+02 0.  0.
         25    2    1    2    0    0  0.63323282185E+02  0.37789779369E+02 -0.12328500504E+02  0.14573537204E+03  0.12509556846E+03 0.  0.
        -24    2    1    2    0    0  0.51796124660E+01 -0.74276894182E+02  0.21868316271E+03  0.24442893451E+03  0.79870476285E+02 0.  0.
        -13    1    3    3    0    0 -0.13379466904E+02 -0.31541338885E+00  0.72491570243E+01  0.15220377716E+02  0.00000000000E+00 0.  1.
         14    1    3    3    0    0 -0.55123427747E+02  0.36802528202E+02 -0.16778087363E+03  0.18039800422E+03  0.00000000000E+00 0. -1.
         11    1    5    5    0    0 -0.16882266435E+02 -0.67318098100E+02  0.20737347061E+03  0.21867897376E+03  0.00000000000E+00 0. -1.
        -12    1    5    5    0    0  0.22061878901E+02 -0.69587960821E+01  0.11309692096E+02  0.25749960755E+02  0.00000000000E+00 0.  1.
          5    1    4    4  501    0  0.71863400014E+02 -0.28100266099E+02  0.33272530936E+01  0.77346727336E+02  0.41800000000E+01 0.  1.
         -5    1    4    4    0  501 -0.85401178293E+01  0.65890045469E+02 -0.15655753598E+02  0.68388644709E+02  0.41800000000E+01 0.  1.
</event>
<event>
11    1  0.7882745E-009  0.5025657E+03  0.7561462E-02  0.9387806E-01
         22   -1    0    0    0    0  0.00000000000E+00  0.00000000000E+00  0.86764411178E+03  0.86764411178E+03  0.00000000000E+00 0. -1.
         22   -1    0    0    0    0 -0.00000000000E+00 -0.00000000000E+00 -0.26572100836E+04  0.26572100836E+04  0.00000000000E+00 0. -1.
        -24    2    1    2    0    0 -0.49029464079E+03  0.42568730774E+01 -0.22741705131E+04  0.23278232250E+04  0.80638007179E+02 0.  0.
         25    2    1    2    0    0  0.46502269123E+03  0.20781241199E+02 -0.18904211149E+03  0.51774757991E+03  0.12509066006E+03 0.  0.
         24    2    1    2    0    0  0.25271949555E+02 -0.25038114277E+02  0.67364665278E+03  0.67928339052E+03  0.79752951231E+02 0.  0.
        -13    1    5    5    0    0  0.15437404233E+02 -0.26802244570E+02  0.83376888974E+02  0.88929069367E+02  0.00000000000E+00 0.  1.
         14    1    5    5    0    0  0.98345453220E+01  0.17641302936E+01  0.59026976381E+03  0.59035432115E+03  0.00000000000E+00 0. -1.
         13    1    3    3    0    0 -0.34459502234E+03  0.12131351875E+02 -0.14188876372E+04  0.14601832166E+04  0.00000000000E+00 0. -1.
        -14    1    3    3    0    0 -0.14569961845E+03 -0.78744787971E+01 -0.85528287593E+03  0.86764000835E+03  0.00000000000E+00 0.  1.
          5    1    4    4  501    0  0.23639509670E+03 -0.10994615218E+02 -0.32719319239E+02  0.23893838025E+03  0.41800000000E+01 0.  1.
         -5    1    4    4    0  501  0.22862759453E+03  0.31775856417E+02 -0.15632279225E+03  0.27880919965E+03  0.41800000000E+01 0.  1.
</event>
<event>
11    1  0.7882745E-009  0.1600889E+03  0.7561462E-02  0.1086994E+00
         22   -1    0    0    0    0  0.00000000000E+00  0.00000000000E+00  0.15087678784E+03  0.15087678784E+03  0.00000000000E+00 0.  1.
         22   -1    0    0    0    0 -0.00000000000E+00 -0.00000000000E+00 -0.22755040227E+04  0.22755040227E+04  0.00000000000E+00 0. -1.
         24    2    1    2    0    0  0.38726635073E+02 -0.24403825415E+02 -0.19806727670E+04  0.19830421415E+04  0.85417950028E+02 0.  0.
         25    2    1    2    0    0 -0.11625087083E+03  0.79435253389E+02 -0.22881635466E+03  0.29635875265E+03  0.12508941467E+03 0.  0.
        -24    2    1    2    0    0  0.77524235756E+02 -0.55031427974E+02  0.84861886762E+02  0.14697991639E+03  0.73233126410E+02 0.  0.
        -11    1    3    3    0    0  0.19017614566E+02  0.27390799069E+02 -0.39627674378E+03  0.39767723495E+03  0.00000000000E+00 0.  1.
         12    1    3    3    0    0  0.19709020506E+02 -0.51794624484E+02 -0.15843960232E+04  0.15853649065E+04  0.00000000000E+00 0. -1.
         13    1    5    5    0    0  0.20132331737E+02 -0.12195024200E+02 -0.12077807142E+02  0.26455676551E+02  0.00000000000E+00 0. -1.
        -14    1    5    5    0    0  0.57391904019E+02 -0.42836403774E+02  0.96939693904E+02  0.12052423984E+03  0.00000000000E+00 0.  1.
          5    1    4    4  501    0  0.17432650617E+02 -0.72026701212E+01 -0.23761923807E+01  0.19465211395E+02  0.41800000000E+01 0. -1.
         -5    1    4    4    0  501 -0.13368352145E+03  0.86637923510E+02 -0.22644016228E+03  0.27689354126E+03  0.41800000000E+01 0. -1.
</event>
<event>
11    1  0.7882745E-009  0.2034628E+03  0.7561462E-02  0.1052102E+00
         22   -1    0    0    0    0  0.00000000000E+00  0.00000000000E+00  0.30357605544E+03  0.30357605544E+03  0.00000000000E+00 0. -1.
         22   -1    0    0    0    0 -0.00000000000E+00 -0.00000000000E+00 -0.78990855535E+03  0.78990855535E+03  0.00000000000E+00 0. -1.
        -24    2    1    2    0    0 -0.69049085166E+01 -0.85188448304E+02 -0.58419858091E+03  0.59590932895E+03  0.80716769699E+02 0.  0.
         25    2    1    2    0    0  0.52714385199E+02 -0.83443213089E+02 -0.12548994535E+03  0.20282293547E+03  0.12509132884E+03 0.  0.
         24    2    1    2    0    0 -0.45809476683E+02  0.16863166139E+03  0.22335602634E+03  0.29475234637E+03  0.80348527107E+02 0.  0.
        -11    1    5    5    0    0  0.12209383637E+02  0.10652884544E+03  0.11949146618E+03  0.16054804405E+03  0.00000000000E+00 0.  1.
         12    1    5    5    0    0 -0.58018860320E+02  0.62102815951E+02  0.10386456017E+03  0.13420430232E+03  0.00000000000E+00 0. -1.
         13    1    3    3    0    0 -0.18490938153E+02 -0.91555995355E+02 -0.56456516069E+03  0.57223966635E+03  0.00000000000E+00 0. -1.
        -14    1    3    3    0    0  0.11586029636E+02  0.63675470515E+01 -0.19633420213E+02  0.23669662597E+02  0.00000000000E+00 0.  1.
          5    1    4    4  501    0 -0.99761733333E+01 -0.41489091223E+02  0.13224545094E+02  0.44869028492E+02  0.41800000000E+01 0.  1.
         -5    1    4    4    0  501  0.62690558533E+02 -0.41954121866E+02 -0.13871449044E+03  0.15795390697E+03  0.41800000000E+01 0.  1.
</event>
<event>
11    1  0.7882745E-009  0.1663074E+03  0.7561462E-02  0.1081291E+00
         22   -1    0    0    0    0  0.00000000000E+00  0.00000000000E+00  0.85371372036E+03  0.85371372036E+03  0.00000000000E+00 0. -1.
         22   -1    0    0    0    0 -0.00000000000E+00 -0.00000000000E+00 -0.55518127815E+03  0.55518127815E+03  0.00000000000E+00 0.  1.
        -24    2    1    2    0    0  0.68850078255E+02  0.80289465567E+02 -0.46790890754E+03  0.48712205630E+03  0.84631084199E+02 0.  0.
         25    2    1    2    0    0 -0.12831734625E+03 -0.11508156154E+03  0.80391459620E+02  0.22763602206E+03  0.12508502949E+03 0.  0.
         24    2    1    2    0    0  0.59467267992E+02  0.34792095977E+02  0.68604989014E+03  0.69413692015E+03  0.80092235937E+02 0.  0.
        -13    1    5    5    0    0  0.52439548562E+02  0.56062505624E+02  0.40607303156E+03  0.41326531157E+03  0.00000000000E+00 0.  1.
         14    1    5    5    0    0  0.70277194302E+01 -0.21270409647E+02  0.27997685858E+03  0.28087160858E+03  0.00000000000E+00 0. -1.
         11    1    3    3    0    0 -0.11187881810E+02  0.45226624868E+02 -0.19860670447E+03  0.20399813567E+03  0.00000000000E+00 0. -1.
        -12    1    3    3    0    0  0.80037960066E+02  0.35062840700E+02 -0.26930220308E+03  0.28312392063E+03  0.00000000000E+00 0.  1.
          5    1    4    4  501    0 -0.13303607432E+03 -0.11076484097E+03  0.28870653887E+02  0.17555179897E+03  0.41800000000E+01 0. -1.
         -5    1    4    4    0  501  0.47187280711E+01 -0.43167205721E+01  0.51520805733E+02  0.52084223086E+02  0.41800000000E+01 0. -1.
</event>
<event>
11    1  0.7882745E-009  0.3642878E+03  0.7561462E-02  0.9761434E-01
         22   -1    0    0    0    0  0.00000000000E+00  0.00000000000E+00  0.51021493023E+03  0.51021493023E+03  0.00000000000E+00 0.  1.
         22   -1    0    0    0    0 -0.00000000000E+00 -0.00000000000E+00 -0.18037788008E+04  0.18037788008E+04  0.00000000000E+00 0.  1.
        -24    2    1    2    0    0 -0.78769139314E+02  0.12164342686E+03 -0.15333452050E+04  0.15421949765E+04  0.78842420507E+02 0.  0.
         25    2    1    2    0    0  0.37522328919E+03 -0.14473381787E+03  0.16659243027E+03  0.45292429873E+03  0.12508792018E+03 0.  0.
         24    2    1    2    0    0 -0.29645414988E+03  0.23090391006E+02  0.73188904171E+02  0.31887445577E+03  0.88916104926E+02 0.  0.
        -13    1    5    5    0    0 -0.28445049666E+03  0.15091090863E+02  0.88064998003E+02  0.29815309817E+03  0.00000000000E+00 0.  1.
         14    1    5    5    0    0 -0.12003653214E+02  0.79993001433E+01 -0.14876093832E+02  0.20721357604E+02  0.00000000000E+00 0. -1.
         11    1    3    3    0    0 -0.58723809531E+02  0.11038483343E+03 -0.92460097301E+03  0.93301675041E+03  0.00000000000E+00 0. -1.
        -12    1    3    3    0    0 -0.20045329783E+02  0.11258593430E+02 -0.60874423201E+03  0.60917822612E+03  0.00000000000E+00 0.  1.
          5    1    4    4  501    0  0.86725560925E+02  0.86261326598E+01  0.70955089731E+02  0.11246257262E+03  0.41800000000E+01 0. -1.
         -5    1    4    4    0  501  0.28849772826E+03 -0.15335995052E+03  0.95637340542E+02  0.34046172611E+03  0.41800000000E+01 0. -1.
</event>
<event>
11    1  0.7882745E-009  0.1879543E+03  0.7561462E-02  0.1063384E+00
         22   -1    0    0    0    0  0.00000000000E+00  0.00000000000E+00  0.39244898988E+03  0.39244898988E+03  0.00000000000E+00 0. -1.
         22   -1    0    0    0    0 -0.00000000000E+00 -0.00000000000E+00 -0.56760706093E+03  0.56760706093E+03  0.00000000000E+00 0. -1.
        -24    2    1    2    0    0  0.89336662069E+01  0.15382551373E+03 -0.28897895610E+03  0.33736606732E+03  0.81024238630E+02 0.  0.
         25    2    1    2    0    0  0.39865383468E+02 -0.12101299121E+03 -0.21457537414E+03  0.27914843594E+03  0.12509142759E+03 0.  0.
         24    2    1    2    0    0 -0.48799049675E+02 -0.32812522519E+02  0.32839625920E+03  0.34354154755E+03  0.81967572593E+02 0.  0.
        -11    1    5    5    0    0 -0.66616705155E+01 -0.13026309244E+02  0.31312285326E+01  0.14962191641E+02  0.00000000000E+00 0.  1.
         12    1    5    5    0    0 -0.42137379160E+02 -0.19786213276E+02  0.32526503066E+03  0.32857935591E+03  0.00000000000E+00 0. -1.
         13    1    3    3    0    0  0.12191706033E+02  0.93314535834E+02 -0.24511019775E+03  0.26255523102E+03  0.00000000000E+00 0. -1.
        -14    1    3    3    0    0 -0.32580398256E+01  0.60510977892E+02 -0.43868758348E+02  0.74810836301E+02  0.00000000000E+00 0.  1.
          5    1    4    4  501    0  0.51498748851E+02 -0.96065473271E+02 -0.64943150825E+02  0.12694794810E+03  0.41800000000E+01 0.  1.
         -5    1    4    4    0  501 -0.11633365383E+02 -0.24947517935E+02 -0.14963222332E+03  0.15220048783E+03  0.41800000000E+01 0.  1.
</event>
<event>
11    1  0.7882745E-009  0.1653888E+03  0.7561462E-02  0.1082116E+00
         22   -1    0    0    0    0  0.00000000000E+00  0.00000000000E+00  0.41411239834E+03  0.41411239834E+03  0.00000000000E+00 0.  1.
         22   -1    0    0    0    0 -0.00000000000E+00 -0.00000000000E+00 -0.11656494354E+04  0.11656494354E+04  0.00000000000E+00 0. -1.
         24    2    1    2    0    0  0.78640046268E+02  0.79258163187E+02 -0.10402231786E+04  0.10493077523E+04  0.80724125640E+02 0.  0.
         25    2    1    2    0    0  0.77027218853E+00 -0.92892639906E+02 -0.57408248949E+02  0.16604540885E+03  0.12508291204E+03 0.  0.
        -24    2    1    2    0    0 -0.79410318457E+02  0.13634476719E+02  0.34609439052E+03  0.36440867255E+03  0.80749339605E+02 0.  0.
        -11    1    3    3    0    0  0.92037566941E+00 -0.15179463388E+02 -0.13698348255E+03  0.13782502563E+03  0.00000000000E+00 0.  1.
         12    1    3    3    0    0  0.77719670599E+02  0.94437626574E+02 -0.90323969604E+03  0.91148272667E+03  0.00000000000E+00 0. -1.
         11    1    5    5    0    0 -0.29140781013E+02 -0.32091687226E+02  0.97665992906E+02  0.10685367414E+03  0.00000000000E+00 0. -1.
        -12    1    5    5    0    0 -0.50269537443E+02  0.45726163945E+02  0.24842839761E+03  0.25755499841E+03  0.00000000000E+00 0.  1.
          5    1    4    4  501    0  0.47226279243E+02 -0.18824167294E+02  0.14204347273E+02  0.52951927320E+02  0.41800000000E+01 0. -1.
         -5    1    4    4    0  501 -0.46456007054E+02 -0.74068472612E+02 -0.71612596222E+02  0.11309348153E+03  0.41800000000E+01 0. -1.
</event>
<event>
11    1  0.7882745E-009  0.1569970E+03  0.7561462E-02  0.1089936E+00
         22   -1    0    0    0    0  0.00000000000E+00  0.00000000000E+00  0.60387929523E+03  0.60387929523E+03  0.00000000000E+00 0. -1.
         22   -1    0    0    0    0 -0.00000000000E+00 -0.00000000000E+00 -0.10672408661E+03  0.10672408661E+03  0.00000000000E+00 0.  1.
        -24    2    1    2    0    0  0.30681180475E+01 -0.11174267071E+01 -0.51009770613E+02  0.85353991078E+02  0.68356748783E+02 0.  0.
         25    2    1    2    0    0  0.87188633044E+02 -0.30867496917E+02  0.18777602121E+03  0.24385012788E+03  0.12509352752E+03 0.  0.
         24    2    1    2    0    0 -0.90256751091E+02  0.31984923624E+02  0.36038895803E+03  0.38139926288E+03  0.80099189772E+02 0.  0.
        -11    1    5    5    0    0 -0.57623828331E+02 -0.13831301564E+02  0.11189840262E+03  0.12662173195E+03  0.00000000000E+00 0.  1.
         12    1    5    5    0    0 -0.32632922761E+02  0.45816225188E+02  0.24849055541E+03  0.25477753093E+03  0.00000000000E+00 0. -1.
         13    1    3    3    0    0  0.24244436655E+02 -0.32078866518E+01  0.54167541618E+01  0.25048442489E+02  0.00000000000E+00 0. -1.
        -14    1    3    3    0    0 -0.21176318607E+02  0.20904599447E+01 -0.56426524774E+02  0.60305548589E+02  0.00000000000E+00 0.  1.
          5    1    4    4  501    0  0.57557949407E+02 -0.26229527169E+01  0.66985800063E+01  0.58156175898E+02  0.41800000000E+01 0.  1.
         -5    1    4    4    0  501  0.29630683636E+02 -0.28244544200E+02  0.18107744120E+03  0.18569395198E+03  0.41800000000E+01 0.  1.
</event>
<event>
11    1  0.7882745E-009  0.2053787E+03  0.7561462E-02  0.1050784E+00
         22   -1    0    0    0    0  0.00000000000E+00  0.00000000000E+00  0.52617099300E+03  0.52617099300E+03  0.00000000000E+00 0. -1.
         22   -1    0    0    0    0 -0.00000000000E+00 -0.00000000000E+00 -0.68110877730E+03  0.68110877730E+03  0.00000000000E+00 0. -1.
        -24    2    1    2    0    0 -0.26074997399E+01 -0.15852284400E+03 -0.47015820027E+03  0.50256425943E+03  0.79911266101E+02 0.  0.
         25    2    1    2    0    0  0.63335816586E+01  0.17965125995E+03 -0.12803431838E+03  0.25368251240E+03  0.12508933190E+03 0.  0.
         24    2    1    2    0    0 -0.37260819187E+01 -0.21128415945E+02  0.44325473436E+03  0.45103299847E+03  0.80595983366E+02 0.  0.
        -11    1    5    5    0    0 -0.22213891327E+02  0.17878510861E+02  0.74673559813E+02  0.79932713289E+02  0.00000000000E+00 0.  1.
         12    1    5    5    0    0  0.18487809409E+02 -0.39006926806E+02  0.36858117454E+03  0.37110028518E+03  0.00000000000E+00 0. -1.
         13    1    3    3    0    0  0.61711543072E+01 -0.71314464897E+02 -0.32669569554E+03  0.33444568099E+03  0.00000000000E+00 0. -1.
        -14    1    3    3    0    0 -0.87786540471E+01 -0.87208379108E+02 -0.14346250474E+03  0.16811857844E+03  0.00000000000E+00 0.  1.
          5    1    4    4  501    0  0.51106946410E+02  0.11832863132E+03 -0.35199829272E+02  0.13367903853E+03  0.41800000000E+01 0.  1.
         -5    1    4    4    0  501 -0.44773364752E+02  0.61322628634E+02 -0.92834489108E+02  0.12000347387E+03  0.41800000000E+01 0.  1.
</event>
<event>
11    1  0.7882745E-009  0.1585859E+03  0.7561462E-02  0.1088415E+00
         22   -1    0    0    0    0  0.00000000000E+00  0.00000000000E+00  0.21968753521E+03  0.21968753521E+03  0.00000000000E+00 0. -1.
         22   -1    0    0    0    0 -0.00000000000E+00 -0.00000000000E+00 -0.28249421892E+03  0.28249421892E+03  0.00000000000E+00 0. -1.
         24    2    1    2    0    0 -0.53760155020E+02 -0.11333541115E+03 -0.63273884249E+02  0.16126657334E+03  0.79172302985E+02 0.  0.
         25    2    1    2    0    0  0.66734844498E+02  0.47452431942E+02 -0.11244066952E+03  0.18706988163E+03  0.12508782388E+03 0.  0.
        -24    2    1    2    0    0 -0.12974689477E+02  0.65882979208E+02  0.11290787006E+03  0.15384529916E+03  0.80070465447E+02 0.  0.
        -13    1    3    3    0    0 -0.57728597179E+02 -0.78324116714E+02 -0.10574385594E+02  0.97872753215E+02  0.00000000000E+00 0.  1.
         14    1    3    3    0    0  0.39684421585E+01 -0.35011294436E+02 -0.52699498655E+02  0.63393820123E+02  0.00000000000E+00 0. -1.
         13    1    5    5    0    0 -0.25779576590E+02  0.65894510811E+02  0.11992537950E+03  0.13924356277E+03  0.00000000000E+00 0. -1.
        -14    1    5    5    0    0  0.12804887113E+02 -0.11531603184E-01 -0.70175094420E+01  0.14601736394E+02  0.00000000000E+00 0.  1.
          5    1    4    4  501    0  0.42615896868E+02  0.13349107869E+02  0.19280391269E+02  0.48821298982E+02  0.41800000000E+01 0. -1.
         -5    1    4    4    0  501  0.24118947629E+02  0.34103324073E+02 -0.13172106079E+03  0.13824858265E+03  0.41800000000E+01 0. -1.
</event>
<event>
11    1  0.7882745E-009  0.1524954E+03  0.7561462E-02  0.1094356E+00
         22   -1    0    0    0    0  0.00000000000E+00  0.00000000000E+00  0.69881828898E+03  0.69881828898E+03  0.00000000000E+00 0.  1.
         22   -1    0    0    0    0 -0.00000000000E+00 -0.00000000000E+00 -0.77307870641E+03  0.77307870641E+03  0.00000000000E+00 0. -1.
         24    2    1    2    0    0  0.35904299936E+02 -0.39220404483E+02 -0.64262960406E+03  0.64976869383E+03  0.79994928456E+02 0.  0.
         25    2    1    2    0    0 -0.39330421969E+01  0.11927046582E+03 -0.59863198123E+02  0.18295397396E+03  0.12509053226E+03 0.  0.
        -24    2    1    2    0    0 -0.31971257739E+02 -0.80050061336E+02  0.62823238476E+03  0.63917432761E+03  0.80235392286E+02 0.  0.
        -13    1    3    3    0    0  0.53352945280E+02 -0.17725046890E+02 -0.25368353887E+03  0.25983851129E+03  0.00000000000E+00 0.  1.
         14    1    3    3    0    0 -0.17448645344E+02 -0.21495357593E+02 -0.38894606519E+03  0.38993018254E+03  0.00000000000E+00 0. -1.
         13    1    5    5    0    0 -0.12035165915E+02 -0.10643710851E+01  0.10245444073E+02  0.15841313982E+02  0.00000000000E+00 0. -1.
        -14    1    5    5    0    0 -0.19936091824E+02 -0.78985690251E+02  0.61798694068E+03  0.62333301363E+03  0.00000000000E+00 0.  1.
          5    1    4    4  501    0  0.57921642847E+02  0.76748958812E+02 -0.45334461979E+02  0.10638611390E+03  0.41800000000E+01 0. -1.
         -5    1    4    4    0  501 -0.61854685044E+02  0.42521507007E+02 -0.14528736144E+02  0.76567860059E+02  0.41800000000E+01 0. -1.
</event>
<event>
11    1  0.7882745E-009  0.1882681E+03  0.7561462E-02  0.1063144E+00
         22   -1    0    0    0    0  0.00000000000E+00  0.00000000000E+00  0.59768955223E+03  0.59768955223E+03  0.00000000000E+00 0. -1.
         22   -1    0    0    0    0 -0.00000000000E+00 -0.00000000000E+00 -0.43225487682E+03  0.43225487682E+03  0.00000000000E+00 0. -1.
        -24    2    1    2    0    0 -0.45962279628E+01 -0.32572810468E+02 -0.29941184501E+03  0.31185780177E+03  0.80781942892E+02 0.  0.
         25    2    1    2    0    0  0.13301291280E+03 -0.27137406942E+02 -0.39331299842E+02  0.18874089501E+03  0.12508917010E+03 0.  0.
         24    2    1    2    0    0 -0.12841668483E+03  0.59710217410E+02  0.50417782026E+03  0.52934573227E+03  0.77171723010E+02 0.  0.
        -13    1    5    5    0    0 -0.43644457733E+02  0.24338498954E+02  0.72827536730E+02  0.88323560437E+02  0.00000000000E+00 0.  1.
         14    1    5    5    0    0 -0.84772227102E+02  0.35371718456E+02  0.43135028353E+03  0.44102217184E+03  0.00000000000E+00 0. -1.
         11    1    3    3    0    0 -0.33790525029E+02  0.55070824620E+01 -0.17886651877E+03  0.18211358839E+03  0.00000000000E+00 0. -1.
        -12    1    3    3    0    0  0.29194297066E+02 -0.38079892930E+02 -0.12054532624E+03  0.12974421337E+03  0.00000000000E+00 0.  1.
          5    1    4    4  501    0  0.53035166144E+02 -0.73247081750E+02 -0.32082240785E+02  0.96044814574E+02  0.41800000000E+01 0. -1.
         -5    1    4    4    0  501  0.79977746654E+02  0.46109674809E+02 -0.72490590572E+01  0.92696080435E+02  0.41800000000E+01 0. -1.
</event>
<event>
11    1  0.7882745E-009  0.1573410E+03  0.7561462E-02  0.1089605E+00
         22   -1    0    0    0    0  0.00000000000E+00  0.00000000000E+00  0.13599147020E+04  0.13599147020E+04  0.00000000000E+00 0.  1.
         22   -1    0    0    0    0 -0.00000000000E+00 -0.00000000000E+00 -0.22952528404E+03  0.22952528404E+03  0.00000000000E+00 0.  1.
        -24    2    1    2    0    0 -0.65142232817E+02 -0.49761025221E+02 -0.16923736445E+03  0.20444701389E+03  0.80234816829E+02 0.  0.
         25    2    1    2    0    0  0.15529936526E+03  0.41989583775E+02  0.22508151358E+03  0.30362966037E+03  0.12509302502E+03 0.  0.
         24    2    1    2    0    0 -0.90157132442E+02  0.77714414456E+01  0.10745452688E+04  0.10813633117E+04  0.80686885257E+02 0.  0.
        -13    1    5    5    0    0 -0.56898511844E+02 -0.28507646206E+02  0.40062622699E+03  0.40564947959E+03  0.00000000000E+00 0.  1.
         14    1    5    5    0    0 -0.33258620597E+02  0.36279087651E+02  0.67391904181E+03  0.67571383215E+03  0.00000000000E+00 0. -1.
         13    1    3    3    0    0 -0.37880171806E+01 -0.75868051829E+01  0.83399774766E+01  0.11893860238E+02  0.00000000000E+00 0. -1.
        -14    1    3    3    0    0 -0.61354215636E+02 -0.42174220038E+02 -0.17757734193E+03  0.19255315365E+03  0.00000000000E+00 0.  1.
          5    1    4    4  501    0  0.14730495458E+03  0.27377659517E+02  0.10664226267E+03  0.18395197871E+03  0.41800000000E+01 0.  1.
         -5    1    4    4    0  501  0.79944106795E+01  0.14611924258E+02  0.11843925091E+03  0.11967768166E+03  0.41800000000E+01 0.  1.
</event>
<event>
11    1  0.7882745E-009  0.1427520E+03  0.7561462E-02  0.1104524E+00
         22   -1    0    0    0    0  0.00000000000E+00  0.00000000000E+00  0.61871729105E+03  0.61871729105E+03  0.00000000000E+00 0. -1.
         22   -1    0    0    0    0 -0.00000000000E+00 -0.00000000000E+00 -0.10915117834E+03  0.10915117834E+03  0.00000000000E+00 0.  1.
        -24    2    1    2    0    0 -0.49304780241E+02 -0.32824171515E+02 -0.20380650550E+02  0.10496340484E+03  0.84223261915E+02 0.  0.
         25    2    1    2    0    0  0.10950642719E+03  0.28478439481E+02  0.13739275345E+03  0.21754709514E+03  0.12508913139E+03 0.  0.
         24    2    1    2    0    0 -0.60201646947E+02  0.43457320341E+01  0.39255400981E+03  0.40535796941E+03  0.81075946312E+02 0.  0.
        -13    1    5    5    0    0 -0.31068802236E+02 -0.23060091974E+02  0.67105824137E+02  0.77461151213E+02  0.00000000000E+00 0.  1.
         14    1    5    5    0    0 -0.29132844711E+02  0.27405824008E+02  0.32544818567E+03  0.32789681820E+03  0.00000000000E+00 0. -1.
         13    1    3    3    0    0  0.35413851494E+01  0.22511519161E+02 -0.16894171152E+02  0.28367638650E+02  0.00000000000E+00 0. -1.
        -14    1    3    3    0    0 -0.52846165390E+02 -0.55335690676E+02 -0.34864793986E+01  0.76595766186E+02  0.00000000000E+00 0.  1.
          5    1    4    4  501    0  0.11211092770E+03  0.63366017623E+02  0.12675179547E+03  0.18074181130E+03  0.41800000000E+01 0.  1.
         -5    1    4    4    0  501 -0.26045005101E+01 -0.34887578142E+02  0.10640957985E+02  0.36805283838E+02  0.41800000000E+01 0.  1.
</event>
<event>
11    1  0.7882745E-009  0.1375564E+03  0.7561462E-02  0.1110318E+00
         22   -1    0    0    0    0  0.00000000000E+00  0.00000000000E+00  0.22434583860E+04  0.22434583860E+04  0.00000000000E+00 0. -1.
         22   -1    0    0    0    0 -0.00000000000E+00 -0.00000000000E+00 -0.10591568586E+03  0.10591568586E+03  0.00000000000E+00 0. -1.
         24    2    1    2    0    0  0.40886013878E+02 -0.41925057885E+02 -0.76233257523E+02  0.11753191347E+03  0.67622958548E+02 0.  0.
         25    2    1    2    0    0 -0.84217380516E+01  0.25417839026E+02  0.51156951289E+03  0.52731890484E+03  0.12507944943E+03 0.  0.
        -24    2    1    2    0    0 -0.32464275827E+02  0.16507218859E+02  0.17022064448E+04  0.17045232535E+04  0.81032856373E+02 0.  0.
        -13    1    3    3    0    0  0.91931564857E-01 -0.39853276930E+02 -0.63088974399E+02  0.74622455228E+02  0.00000000000E+00 0.  1.
         14    1    3    3    0    0  0.40794082313E+02 -0.20717809542E+01 -0.13144283123E+02  0.42909458246E+02  0.00000000000E+00 0. -1.
         13    1    5    5    0    0 -0.45607371734E+02  0.36509966385E+02  0.14519613215E+04  0.14531361564E+04  0.00000000000E+00 0. -1.
        -14    1    5    5    0    0  0.13143095908E+02 -0.20002747526E+02  0.25024512330E+03  0.25138709715E+03  0.00000000000E+00 0.  1.
          5    1    4    4  501    0 -0.24112594581E+02 -0.46953459378E+02  0.18467422999E+03  0.19211477868E+03  0.41800000000E+01 0. -1.
         -5    1    4    4    0  501  0.15690856529E+02  0.72371298403E+02  0.32689528290E+03  0.33520412616E+03  0.41800000000E+01 0. -1.
</event>
<event>
11    1  0.7882745E-009  0.1329938E+03  0.7561462E-02  0.1115644E+00
         22   -1    0    0    0    0  0.00000000000E+00  0.00000000000E+00  0.38715838485E+02  0.38715838485E+02  0.00000000000E+00 0. -1.
         22   -1    0    0    0    0 -0.00000000000E+00 -0.00000000000E+00 -0.19417785036E+04  0.19417785036E+04  0.00000000000E+00 0.  1.
        -24    2    1    2    0    0  0.34770954776E+02 -0.29453622926E+02 -0.16283040055E+04  0.16309005111E+04  0.79912501191E+02 0.  0.
         25    2    1    2    0    0 -0.15765733839E+02  0.39091531741E+02 -0.16220266881E+03  0.20913033473E+03  0.12509630256E+03 0.  0.
         24    2    1    2    0    0 -0.19005220938E+02 -0.96379088154E+01 -0.11255599088E+03  0.14046349626E+03  0.81283792904E+02 0.  0.
        -13    1    5    5    0    0  0.29397277246E+02 -0.51540605198E+01 -0.69065247211E+02  0.75238106180E+02  0.00000000000E+00 0.  1.
         14    1    5    5    0    0 -0.48402498183E+02 -0.44838482956E+01 -0.43490743670E+02  0.65225390079E+02  0.00000000000E+00 0. -1.
         11    1    3    3    0    0  0.58430033793E+01  0.81140861122E+01 -0.25426865082E+02  0.27322235447E+02  0.00000000000E+00 0. -1.
        -12    1    3    3    0    0  0.28927951397E+02 -0.37567709038E+02 -0.16028771404E+04  0.16035782757E+04  0.00000000000E+00 0.  1.
          5    1    4    4  501    0  0.21642180544E+02  0.72841097473E+02 -0.12506624767E+03  0.14640098417E+03  0.41800000000E+01 0.  1.
         -5    1    4    4    0  501 -0.37407914383E+02 -0.33749565731E+02 -0.37136421141E+02  0.62729350552E+02  0.41800000000E+01 0.  1.
</event>
<event>
11    1  0.7882745E-009  0.2136277E+03  0.7561462E-02  0.1045284E+00
         22   -1    0    0    0    0  0.00000000000E+00  0.00000000000E+00  0.15142101905E+04  0.15142101905E+04  0.00000000000E+00 0. -1.
         22   -1    0    0    0    0 -0.00000000000E+00 -0.00000000000E+00 -0.23125999692E+03  0.23125999692E+03  0.00000000000E+00 0. -1.
        -24    2    1    2    0    0 -0.15146678347E+03  0.10863519275E+03 -0.14106380649E+03  0.24827747669E+03  0.83659526256E+02 0.  0.
         25    2    1    2    0    0  0.50936626404E+02 -0.11885299514E+03  0.21085550438E+03  0.27717823650E+03  0.12508859540E+03 0.  0.
         24    2    1    2    0    0  0.10053015707E+03  0.10217802394E+02  0.12131584957E+04  0.12200144742E+04  0.80442934452E+02 0.  0.
        -11    1    5    5    0    0  0.31463862077E+02 -0.78305672949E+01  0.11347384211E+03  0.11801527547E+03  0.00000000000E+00 0.  1.
         12    1    5    5    0    0  0.69066294990E+02  0.18048369689E+02  0.10996846536E+04  0.11019991987E+04  0.00000000000E+00 0. -1.
         13    1    3    3    0    0 -0.11735943377E+03  0.51560482053E+02 -0.54913496171E+02  0.13945326122E+03  0.00000000000E+00 0. -1.
        -14    1    3    3    0    0 -0.34107349702E+02  0.57074710697E+02 -0.86150310318E+02  0.10882421547E+03  0.00000000000E+00 0.  1.
          5    1    4    4  501    0  0.51027863176E+02 -0.41547293828E+02  0.16496796051E+02  0.67967912464E+02  0.41800000000E+01 0.  1.
         -5    1    4    4    0  501 -0.91236771899E-01 -0.77305701316E+02  0.19435870833E+03  0.20921032404E+03  0.41800000000E+01 0.  1.
</event>
<event>
11    1  0.7882745E-009  0.1843906E+03  0.7561462E-02  0.1066146E+00
         22   -1    0    0    0    0  0.00000000000E+00  0.00000000000E+00  0.10389617412E+04  0.10389617412E+04  0.00000000000E+00 0.  1.
         22   -1    0    0    0    0 -0.00000000000E+00 -0.00000000000E+00 -0.21029012401E+04  0.21029012401E+04  0.00000000000E+00 0. -1.
        -24    2    1    2    0    0 -0.12587431280E+03 -0.23893991799E+02 -0.14660446594E+04  0.14738000723E+04  0.79902717302E+02 0.  0.
         25    2    1    2    0    0  0.13665848576E+03 -0.11127319737E+03 -0.60820839464E+03  0.64546336192E+03  0.12509290180E+03 0.  0.
         24    2    1    2    0    0 -0.10784172963E+02  0.13516718917E+03  0.10103135552E+04  0.10225995471E+04  0.81178116176E+02 0.  0.
        -13    1    5    5    0    0 -0.45444283409E+02  0.79128854892E+02  0.53202565743E+03  0.53979427445E+03  0.00000000000E+00 0.  1.
         14    1    5    5    0    0  0.34660110446E+02  0.56038334277E+02  0.47828789774E+03  0.48280527264E+03  0.00000000000E+00 0. -1.
         13    1    3    3    0    0 -0.43139896584E+02  0.25494457397E+02 -0.68581933736E+03  0.68764757073E+03  0.00000000000E+00 0. -1.
        -14    1    3    3    0    0 -0.82734416218E+02 -0.49388449196E+02 -0.78022532207E+03  0.78615250158E+03  0.00000000000E+00 0.  1.
          5    1    4    4  501    0 -0.23541248436E+02 -0.70475010930E+01 -0.73154704081E+02  0.77284803026E+02  0.41800000000E+01 0. -1.
         -5    1    4    4    0  501  0.16019973420E+03 -0.10422569628E+03 -0.53505369056E+03  0.56817855889E+03  0.41800000000E+01 0. -1.
</event>
<event>
11    1  0.7882745E-009  0.1489692E+03  0.7561462E-02  0.1097937E+00
         22   -1    0    0    0    0  0.00000000000E+00  0.00000000000E+00  0.11544871334E+03  0.11544871334E+03  0.00000000000E+00 0.  1.
         22   -1    0    0    0    0 -0.00000000000E+00 -0.00000000000E+00 -0.23626937711E+04  0.23626937711E+04  0.00000000000E+00 0. -1.
         24    2    1    2    0    0 -0.77321912191E+02 -0.35669346835E+02 -0.20929160492E+04  0.20963167322E+04  0.83637744669E+02 0.  0.
         25    2    1    2    0    0  0.13973144609E+02  0.48504000441E+02 -0.22282400452E+03  0.26047325762E+03  0.12509154294E+03 0.  0.
        -24    2    1    2    0    0  0.63348767582E+02 -0.12834653606E+02  0.68494995923E+02  0.12135249465E+03  0.76531488963E+02 0.  0.
        -13    1    3    3    0    0  0.11528829215E+01 -0.15832870188E+02 -0.69815006589E+02  0.71597095350E+02  0.00000000000E+00 0.  1.
         14    1    3    3    0    0 -0.78474795113E+02 -0.19836476647E+02 -0.20231010426E+04  0.20247196368E+04  0.00000000000E+00 0. -1.
         11    1    5    5    0    0  0.70494983592E+02  0.24423479381E+01  0.25225517346E+02  0.74912178586E+02  0.00000000000E+00 0. -1.
        -12    1    5    5    0    0 -0.71462160095E+01 -0.15277001544E+02  0.43269478577E+02  0.46440316060E+02  0.00000000000E+00 0.  1.
          5    1    4    4  501    0 -0.36924731145E+02  0.63985223896E+02 -0.16991036359E+03  0.18532282294E+03  0.41800000000E+01 0.  1.
         -5    1    4    4    0  501  0.50897875754E+02 -0.15481223455E+02 -0.52913640935E+02  0.75150434682E+02  0.41800000000E+01 0.  1.
</event>
<event>
11    1  0.7882745E-009  0.1400114E+03  0.7561462E-02  0.1107546E+00
         22   -1    0    0    0    0  0.00000000000E+00  0.00000000000E+00  0.99946308172E+03  0.99946308172E+03  0.00000000000E+00 0. -1.
         22   -1    0    0    0    0 -0.00000000000E+00 -0.00000000000E+00 -0.22748372777E+04  0.22748372777E+04  0.00000000000E+00 0.  1.
         24    2    1    2    0    0 -0.25978468643E+01  0.62223127523E+02 -0.21520513126E+04  0.21544264599E+04  0.79687217165E+02 0.  0.
         25    2    1    2    0    0  0.39351147037E+02 -0.85277263966E+02 -0.68622285770E+02  0.17083328432E+03  0.12511701885E+03 0.  0.
        -24    2    1    2    0    0 -0.36753300173E+02  0.23054136443E+02  0.94529940239E+03  0.94904061521E+03  0.72144513944E+02 0.  0.
        -11    1    3    3    0    0 -0.31667249340E+02  0.44137563889E+02 -0.17730486939E+04  0.17738806640E+04  0.00000000000E+00 0.  1.
         12    1    3    3    0    0  0.29069402475E+02  0.18085563634E+02 -0.37900261872E+03  0.38054579589E+03  0.00000000000E+00 0. -1.
         11    1    5    5    0    0 -0.47465530329E+02 -0.10586662755E+02  0.51130618619E+03  0.51361373622E+03  0.00000000000E+00 0. -1.
        -12    1    5    5    0    0  0.10712230156E+02  0.33640799198E+02  0.43399321620E+03  0.43542687899E+03  0.00000000000E+00 0.  1.
          5    1    4    4  501    0  0.30453467484E+02 -0.10201482209E+03 -0.91773642577E+02  0.14062116299E+03  0.41800000000E+01 0.  1.
         -5    1    4    4    0  501  0.88976795531E+01  0.16737558127E+02  0.23151356807E+02  0.30212121334E+02  0.41800000000E+01 0.  1.
</event>
<event>
11    1  0.7882745E-009  0.1347545E+03  0.7561462E-02  0.1113561E+00
         22   -1    0    0    0    0  0.00000000000E+00  0.00000000000E+00  0.57344083134E+03  0.57344083134E+03  0.00000000000E+00 0. -1.
         22   -1    0    0    0    0 -0.00000000000E+00 -0.00000000000E+00 -0.11696169655E+03  0.11696169655E+03  0.00000000000E+00 0.  1.
        -24    2    1    2    0    0  0.54306507122E+02  0.10363271705E+02 -0.40144134903E+02  0.11181209812E+03  0.88508754379E+02 0.  0.
         25    2    1    2    0    0 -0.29225527808E+02 -0.21413701833E+02  0.79819750654E+02  0.15274861389E+03  0.12509303877E+03 0.  0.
         24    2    1    2    0    0 -0.25080979314E+02  0.11050430127E+02  0.41680351904E+03  0.42584181589E+03  0.82854759332E+02 0.  0.
        -11    1    5    5    0    0  0.17901247302E+02 -0.24432488288E+02  0.18278599163E+03  0.18527849275E+03  0.00000000000E+00 0.  1.
         12    1    5    5    0    0 -0.42982226616E+02  0.35482918415E+02  0.23401752741E+03  0.24056332314E+03  0.00000000000E+00 0. -1.
         11    1    3    3    0    0  0.10701784887E+02  0.18265539829E+01  0.28243220816E+02  0.30257957983E+02  0.00000000000E+00 0. -1.
        -12    1    3    3    0    0  0.43604722234E+02  0.85367177224E+01 -0.68387355719E+02  0.81554140133E+02  0.00000000000E+00 0.  1.
          5    1    4    4  501    0  0.69746931799E+01 -0.69253168054E+02  0.48559468982E+02  0.84971419067E+02  0.41800000000E+01 0. -1.
         -5    1    4    4    0  501 -0.36200220987E+02  0.47839466221E+02  0.31260281672E+02  0.67777194823E+02  0.41800000000E+01 0. -1.
</event>
<event>
11    1  0.7882745E-009  0.1887401E+03  0.7561462E-02  0.1062785E+00
         22   -1    0    0    0    0  0.00000000000E+00  0.00000000000E+00  0.12766314338E+04  0.12766314338E+04  0.00000000000E+00 0.  1.
         22   -1    0    0    0    0 -0.00000000000E+00 -0.00000000000E+00 -0.32310998890E+03  0.32310998890E+03  0.00000000000E+00 0. -1.
         24    2    1    2    0    0  0.11966694844E+02 -0.20012723835E+02 -0.26915024341E+03  0.28188798685E+03  0.80469079193E+02 0.  0.
         25    2    1    2    0    0 -0.13689121406E+03  0.80384464953E+02  0.20591230474E+03  0.28853004004E+03  0.12509532392E+03 0.  0.
        -24    2    1    2    0    0  0.12492451921E+03 -0.60371741118E+02  0.10167593836E+04  0.10293233958E+04  0.80350024663E+02 0.  0.
        -11    1    3    3    0    0  0.29864899122E+02  0.11436345941E+02 -0.47238841465E+02  0.57045686524E+02  0.00000000000E+00 0.  1.
         12    1    3    3    0    0 -0.17898204278E+02 -0.31449069776E+02 -0.22191140194E+03  0.22484230033E+03  0.00000000000E+00 0. -1.
         13    1    5    5    0    0 -0.15847135318E+01 -0.28773583646E+01  0.17944409953E+00  0.32897884919E+01  0.00000000000E+00 0. -1.
        -14    1    5    5    0    0  0.12650923274E+03 -0.57494382753E+02  0.10165799395E+04  0.10260336073E+04  0.00000000000E+00 0.  1.
          5    1    4    4  501    0 -0.84282792690E+02  0.86810486167E+02  0.63905772399E+02  0.13689802701E+03  0.41800000000E+01 0.  1.
         -5    1    4    4    0  501 -0.52608421366E+02 -0.64260212146E+01  0.14200653234E+03  0.15163201303E+03  0.41800000000E+01 0.  1.
</event>
<event>
11    1  0.7882745E-009  0.1607161E+03  0.7561462E-02  0.1086406E+00
         22   -1    0    0    0    0  0.00000000000E+00  0.00000000000E+00  0.21423983067E+03  0.21423983067E+03  0.00000000000E+00 0.  1.
         22   -1    0    0    0    0 -0.00000000000E+00 -0.00000000000E+00 -0.35165823856E+03  0.35165823856E+03  0.00000000000E+00 0.  1.
         24    2    1    2    0    0  0.22059205040E+02 -0.95158381891E+02 -0.23694375283E+03  0.26707766474E+03  0.75142603267E+02 0.  0.
         25    2    1    2    0    0 -0.57062061597E+02  0.12218471249E+03  0.88136846384E+02  0.20395754812E+03  0.12508155301E+03 0.  0.
        -24    2    1    2    0    0  0.35002856557E+02 -0.27026330599E+02  0.11388498565E+02  0.94862856369E+02  0.83148307897E+02 0.  0.
        -11    1    3    3    0    0  0.28291376331E+02 -0.91245892508E+02 -0.24059209466E+03  0.25886438706E+03  0.00000000000E+00 0.  1.
         12    1    3    3    0    0 -0.62321712911E+01 -0.39124893830E+01  0.36483418283E+01  0.82132776812E+01  0.00000000000E+00 0. -1.
         13    1    5    5    0    0  0.60764044119E+01  0.29722772852E+02  0.61244377327E+01  0.30949550144E+02  0.00000000000E+00 0. -1.
        -14    1    5    5    0    0  0.28926452145E+02 -0.56749103451E+02  0.52640608323E+01  0.63913306225E+02  0.00000000000E+00 0.  1.
          5    1    4    4  501    0 -0.91969082406E+02  0.10696515288E+03  0.86676245207E+02  0.16562034879E+03  0.41800000000E+01 0. -1.
         -5    1    4    4    0  501  0.34907020809E+02  0.15219559608E+02  0.14606011773E+01  0.38337199327E+02  0.41800000000E+01 0. -1.
</event>
<event>
11    1  0.7882745E-009  0.2826344E+03  0.7561462E-02  0.1007821E+00
         22   -1    0    0    0    0  0.00000000000E+00  0.00000000000E+00  0.94377559365E+02  0.94377559365E+02  0.00000000000E+00 0. -1.
         22   -1    0    0    0    0 -0.00000000000E+00 -0.00000000000E+00 -0.15031248488E+04  0.15031248488E+04  0.00000000000E+00 0.  1.
        -24    2    1    2    0    0 -0.44268057529E+01  0.27926557224E+02 -0.67814262094E+03  0.68348463676E+03  0.80463315592E+02 0.  0.
         25    2    1    2    0    0  0.21400274864E+03  0.12482689527E+03 -0.38252490616E+03  0.47260070025E+03  0.12508871988E+03 0.  0.
         24    2    1    2    0    0 -0.20957594289E+03 -0.15275345250E+03 -0.34807976238E+03  0.44141707118E+03  0.80211075719E+02 0.  0.
        -13    1    5    5    0    0 -0.60271373445E+02 -0.58111722484E+02 -0.17511431867E+03  0.19409955010E+03  0.00000000000E+00 0.  1.
         14    1    5    5    0    0 -0.14930456944E+03 -0.94641730015E+02 -0.17296544371E+03  0.24731752108E+03  0.00000000000E+00 0. -1.
         11    1    3    3    0    0  0.18375679142E+02 -0.14491941887E+02 -0.78576428991E+02  0.81987420721E+02  0.00000000000E+00 0. -1.
        -12    1    3    3    0    0 -0.22802484895E+02  0.42418499111E+02 -0.59956619195E+03  0.60149721604E+03  0.00000000000E+00 0.  1.
          5    1    4    4  501    0  0.13183130159E+03  0.13850499684E+03 -0.23359915479E+03  0.30190919785E+03  0.41800000000E+01 0. -1.
         -5    1    4    4    0  501  0.82171447048E+02 -0.13678101563E+02 -0.14892575137E+03  0.17069150241E+03  0.41800000000E+01 0. -1.
</event>
<event>
11    1  0.7882745E-009  0.2549055E+03  0.7561462E-02  0.1021318E+00
         22   -1    0    0    0    0  0.00000000000E+00  0.00000000000E+00  0.24737846246E+04  0.24737846246E+04  0.00000000000E+00 0. -1.
         22   -1    0    0    0    0 -0.00000000000E+00 -0.00000000000E+00 -0.23556316903E+04  0.23556316903E+04  0.00000000000E+00 0.  1.
         24    2    1    2    0    0 -0.19138287128E+03  0.11467174949E+03 -0.22885283378E+04  0.23008111077E+04  0.81195975822E+02 0.  0.
         25    2    1    2    0    0  0.19354205564E+03 -0.35855193760E+02  0.16888164670E+03  0.28794495705E+03  0.12508863048E+03 0.  0.
        -24    2    1    2    0    0 -0.21591843566E+01 -0.78816555731E+02  0.22377996254E+04  0.22406602502E+04  0.81206415448E+02 0.  0.
        -11    1    3    3    0    0 -0.18262329738E+03  0.11324538708E+03 -0.22711943719E+04  0.22813372529E+04  0.00000000000E+00 0.  1.
         12    1    3    3    0    0 -0.87595739007E+01  0.14263624129E+01 -0.17333965923E+02  0.19473854762E+02  0.00000000000E+00 0. -1.
         13    1    5    5    0    0 -0.19492391705E+02 -0.79247588681E+02  0.12265468207E+04  0.12292588162E+04  0.00000000000E+00 0. -1.
        -14    1    5    5    0    0  0.17333207349E+02  0.43103295039E+00  0.10112528047E+04  0.10114014341E+04  0.00000000000E+00 0.  1.
          5    1    4    4  501    0  0.11775397958E+02 -0.48917103968E+02  0.29452534020E+02  0.58450553615E+02  0.41800000000E+01 0. -1.
         -5    1    4    4    0  501  0.18176665768E+03  0.13061910208E+02  0.13942911268E+03  0.22949440343E+03  0.41800000000E+01 0. -1.
</event>
<event>
11    1  0.7882745E-009  0.1545683E+03  0.7561462E-02  0.1092300E+00
         22   -1    0    0    0    0  0.00000000000E+00  0.00000000000E+00  0.10553505175E+04  0.10553505175E+04  0.00000000000E+00 0. -1.
         22   -1    0    0    0    0 -0.00000000000E+00 -0.00000000000E+00 -0.15790276712E+03  0.15790276712E+03  0.00000000000E+00 0.  1.
        -24    2    1    2    0    0  0.61943900058E+02  0.10012676576E+02 -0.11109569066E+03  0.15113108546E+03  0.81000321375E+02 0.  0.
         25    2    1    2    0    0  0.33613100358E+02 -0.42782722314E+02  0.19201595959E+03  0.23553596640E+03  0.12508741300E+03 0.  0.
         24    2    1    2    0    0 -0.95557000415E+02  0.32770045737E+02  0.81652748144E+03  0.82658623274E+03  0.79515130558E+02 0.  0.
        -11    1    5    5    0    0 -0.93307491114E+01 -0.23691107332E+02  0.16905657421E+03  0.17096331984E+03  0.00000000000E+00 0.  1.
         12    1    5    5    0    0 -0.86226251304E+02  0.56461153070E+02  0.64747090723E+03  0.65562291291E+03  0.00000000000E+00 0. -1.
         11    1    3    3    0    0  0.11090960847E+02 -0.25015162161E+02 -0.42028020222E+01  0.27684495576E+02  0.00000000000E+00 0. -1.
        -12    1    3    3    0    0  0.50852939211E+02  0.35027838737E+02 -0.10689288864E+03  0.12344658989E+03  0.00000000000E+00 0.  1.
          5    1    4    4  501    0 -0.63228038883E+01 -0.56718535733E+02  0.23700246847E+02  0.61936614739E+02  0.41800000000E+01 0.  1.
         -5    1    4    4    0  501  0.39935904246E+02  0.13935813419E+02  0.16831571274E+03  0.17359935167E+03  0.41800000000E+01 0.  1.
</event>
<event>
11    1  0.7882745E-009  0.1364597E+03  0.7561462E-02  0.1111577E+00
         22   -1    0    0    0    0  0.00000000000E+00  0.00000000000E+00  0.45124391136E+03  0.45124391136E+03  0.00000000000E+00 0. -1.
         22   -1    0    0    0    0 -0.00000000000E+00 -0.00000000000E+00 -0.97700485168E+03  0.97700485168E+03  0.00000000000E+00 0. -1.
         24    2    1    2    0    0  0.99624588521E-01  0.29222465402E+02 -0.84919688997E+03  0.85367074094E+03  0.82246055176E+02 0.  0.
         25    2    1    2    0    0 -0.47004807715E+02 -0.55634488733E+02 -0.75832296187E+02  0.16341132015E+03  0.12509226245E+03 0.  0.
        -24    2    1    2    0    0  0.46905183127E+02  0.26412023330E+02  0.39926824583E+03  0.41116670196E+03  0.82129370427E+02 0.  0.
        -11    1    3    3    0    0 -0.99764993664E+00 -0.27418392653E+02 -0.39551505713E+03  0.39646553946E+03  0.00000000000E+00 0.  1.
         12    1    3    3    0    0  0.10972745252E+01  0.56640858056E+02 -0.45368183284E+03  0.45720520148E+03  0.00000000000E+00 0. -1.
         13    1    5    5    0    0  0.68437781616E+02  0.27939155021E+02  0.26267136348E+03  0.27287464434E+03  0.00000000000E+00 0. -1.
        -14    1    5    5    0    0 -0.21532598490E+02 -0.15271316907E+01  0.13659688236E+03  0.13829205761E+03  0.00000000000E+00 0.  1.
          5    1    4    4  501    0  0.34780021037E+02  0.12496199941E+02 -0.28429081434E+02  0.46813352235E+02  0.41800000000E+01 0.  1.
         -5    1    4    4    0  501 -0.81784828752E+02 -0.68130688674E+02 -0.47403214753E+02  0.11659796792E+03  0.41800000000E+01 0.  1.
</event>
<event>
11    1  0.7882745E-009  0.1345282E+03  0.7561462E-02  0.1113827E+00
         22   -1    0    0    0    0  0.00000000000E+00  0.00000000000E+00  0.54234250369E+03  0.54234250369E+03  0.00000000000E+00 0.  1.
         22   -1    0    0    0    0 -0.00000000000E+00 -0.00000000000E+00 -0.11642489744E+03  0.11642489744E+03  0.00000000000E+00 0.  1.
        -24    2    1    2    0    0 -0.29208128358E+01  0.50155847385E+02 -0.69348246977E+02  0.11791399123E+03  0.81057940972E+02 0.  0.
         25    2    1    2    0    0 -0.13124916876E+02 -0.39536560856E+02  0.34046616347E+03  0.36510191018E+03  0.12508714267E+03 0.  0.
         24    2    1    2    0    0  0.16045729712E+02 -0.10619286529E+02  0.15479968977E+03  0.17575149972E+03  0.80965492739E+02 0.  0.
        -11    1    5    5    0    0 -0.72215581594E+01 -0.42481531310E+02  0.91923652918E+02  0.10152235897E+03  0.00000000000E+00 0.  1.
         12    1    5    5    0    0  0.23267287871E+02  0.31862244780E+02  0.62876036848E+02  0.74229140754E+02  0.00000000000E+00 0. -1.
         11    1    3    3    0    0 -0.36866915283E+02  0.48407386867E+02 -0.38449265322E+02  0.71977708699E+02  0.00000000000E+00 0. -1.
        -12    1    3    3    0    0  0.33946102447E+02  0.17484605177E+01 -0.30898981656E+02  0.45936282532E+02  0.00000000000E+00 0.  1.
          5    1    4    4  501    0  0.40743542461E+02 -0.61191102039E+02  0.19022641366E+03  0.20398026393E+03  0.41800000000E+01 0.  1.
         -5    1    4    4    0  501 -0.53868459336E+02  0.21654541184E+02  0.15023974981E+03  0.16112164625E+03  0.41800000000E+01 0.  1.
</event>
<event>
11    1  0.7882745E-009  0.1476729E+03  0.7561462E-02  0.1099281E+00
         22   -1    0    0    0    0  0.00000000000E+00  0.00000000000E+00  0.85340179491E+03  0.85340179491E+03  0.00000000000E+00 0.  1.
         22   -1    0    0    0    0 -0.00000000000E+00 -0.00000000000E+00 -0.87389282086E+03  0.87389282086E+03  0.00000000000E+00 0. -1.
         24    2    1    2    0    0  0.17915970326E+02  0.76115748449E+02 -0.84012627623E+03  0.84758034077E+03  0.80409482666E+02 0.  0.
         25    2    1    2    0    0 -0.63692501789E+02 -0.87745140286E+02  0.23449133318E+03  0.28703015358E+03  0.12507669368E+03 0.  0.
        -24    2    1    2    0    0  0.45776531463E+02  0.11629391837E+02  0.58514391710E+03  0.59268412142E+03  0.81549558411E+02 0.  0.
        -11    1    3    3    0    0  0.46692725976E+01 -0.78189291055E+01 -0.35167734606E+03  0.35179524370E+03  0.00000000000E+00 0.  1.
         12    1    3    3    0    0  0.13246697728E+02  0.83934677555E+02 -0.48844893017E+03  0.49578509707E+03  0.00000000000E+00 0. -1.
         13    1    5    5    0    0 -0.45618998259E+01  0.22216055338E+02  0.48060321652E+02  0.53142812892E+02  0.00000000000E+00 0. -1.
        -14    1    5    5    0    0  0.50338431289E+02 -0.10586663501E+02  0.53708359544E+03  0.53954130852E+03  0.00000000000E+00 0.  1.
          5    1    4    4  501    0 -0.64889590379E+02 -0.14941708003E+02  0.36537655307E+02  0.76068299790E+02  0.41800000000E+01 0.  1.
         -5    1    4    4    0  501  0.11970885897E+01 -0.72803432283E+02  0.19795367787E+03  0.21096185379E+03  0.41800000000E+01 0.  1.
</event>
<event>
11    1  0.7882745E-009  0.1403301E+03  0.7561462E-02  0.1107190E+00
         22   -1    0    0    0    0  0.00000000000E+00  0.00000000000E+00  0.10443824534E+03  0.10443824534E+03  0.00000000000E+00 0. -1.
         22   -1    0    0    0    0 -0.00000000000E+00 -0.00000000000E+00 -0.97708379967E+03  0.97708379967E+03  0.00000000000E+00 0.  1.
         24    2    1    2    0    0  0.66425585841E+02 -0.10254096094E+02 -0.74288590975E+03  0.75016358491E+03  0.79676999710E+02 0.  0.
         25    2    1    2    0    0 -0.40276817081E+02  0.18278952636E+02 -0.18707501026E+03  0.22934338503E+03  0.12507992121E+03 0.  0.
        -24    2    1    2    0    0 -0.26148768760E+02 -0.80248565427E+01  0.57315365677E+02  0.10201507507E+03  0.79836507746E+02 0.  0.
        -11    1    3    3    0    0  0.13415397187E+02 -0.25831822237E+01 -0.54458238705E+03  0.54475372601E+03  0.00000000000E+00 0.  1.
         12    1    3    3    0    0  0.53010188655E+02 -0.76709138701E+01 -0.19830352269E+03  0.20540985890E+03  0.00000000000E+00 0. -1.
         11    1    5    5    0    0 -0.17992485609E+02 -0.41913454434E+02  0.47387140298E+02  0.65772397452E+02  0.00000000000E+00 0. -1.
        -12    1    5    5    0    0 -0.81562831516E+01  0.33888597892E+02  0.99282253796E+01  0.36242677620E+02  0.00000000000E+00 0.  1.
          5    1    4    4  501    0 -0.38406795505E+02 -0.50501375159E+02 -0.84265190170E+02  0.10556308781E+03  0.41800000000E+01 0. -1.
         -5    1    4    4    0  501 -0.18700215758E+01  0.68780327795E+02 -0.10280982009E+03  0.12378029721E+03  0.41800000000E+01 0. -1.
</event>
<event>
11    1  0.7882745E-009  0.3128655E+03  0.7561462E-02  0.9948886E-01
         22   -1    0    0    0    0  0.00000000000E+00  0.00000000000E+00  0.56270572071E+03  0.56270572071E+03  0.00000000000E+00 0.  1.
         22   -1    0    0    0    0 -0.00000000000E+00 -0.00000000000E+00 -0.20869011026E+04  0.20869011026E+04  0.00000000000E+00 0.  1.
         24    2    1    2    0    0 -0.13656778429E+02 -0.89538620938E+02 -0.17488521103E+04  0.17536173872E+04  0.92122552941E+02 0.  0.
         25    2    1    2    0    0  0.29817725425E+03  0.90429454994E+02 -0.19054603974E+03  0.38606309845E+03  0.12509900655E+03 0.  0.
        -24    2    1    2    0    0 -0.28452047582E+03 -0.89083405628E+00  0.41520276812E+03  0.50992633768E+03  0.81724148580E+02 0.  0.
        -13    1    3    3    0    0 -0.44538856067E+02 -0.84217794104E+02 -0.14501174235E+04  0.14532435751E+04  0.00000000000E+00 0.  1.
         14    1    3    3    0    0  0.30882077638E+02 -0.53208268337E+01 -0.29873468682E+03  0.30037381215E+03  0.00000000000E+00 0. -1.
         11    1    5    5    0    0 -0.24710701110E+03 -0.19210858096E+02  0.31085077612E+03  0.39756651899E+03  0.00000000000E+00 0. -1.
        -12    1    5    5    0    0 -0.37413464718E+02  0.18320024040E+02  0.10435199200E+03  0.11235981869E+03  0.00000000000E+00 0.  1.
          5    1    4    4  501    0  0.12482133208E+03  0.10939896169E+02 -0.14004731135E+02  0.12614932091E+03  0.41800000000E+01 0.  1.
         -5    1    4    4    0  501  0.17335592217E+03  0.79489558825E+02 -0.17654130860E+03  0.25991377754E+03  0.41800000000E+01 0.  1.
</event>
<event>
11    1  0.7882745E-009  0.1651428E+03  0.7561462E-02  0.1082338E+00
         22   -1    0    0    0    0  0.00000000000E+00  0.00000000000E+00  0.24716123283E+02  0.24716123283E+02  0.00000000000E+00 0.  1.
         22   -1    0    0    0    0 -0.00000000000E+00 -0.00000000000E+00 -0.34184177109E+04  0.34184177109E+04  0.00000000000E+00 0. -1.
         24    2    1    2    0    0  0.54732833244E+01 -0.58060573955E+02 -0.22007919304E+04  0.22031557877E+04  0.83721663525E+02 0.  0.
         25    2    1    2    0    0  0.10335690775E+03  0.35986389799E+02 -0.91688581769E+03  0.93182808368E+03  0.12508518786E+03 0.  0.
        -24    2    1    2    0    0 -0.10883019107E+03  0.22074184156E+02 -0.27602383949E+03  0.30814996275E+03  0.80224431957E+02 0.  0.
        -11    1    3    3    0    0  0.66355337440E+01 -0.32470062926E+02 -0.24900629343E+03  0.25120204908E+03  0.00000000000E+00 0.  1.
         12    1    3    3    0    0 -0.11622504196E+01 -0.25590511029E+02 -0.19517856370E+04  0.19519537386E+04  0.00000000000E+00 0. -1.
         13    1    5    5    0    0 -0.91080009698E+02  0.49814898262E+02 -0.21720779108E+03  0.24074118210E+03  0.00000000000E+00 0. -1.
        -14    1    5    5    0    0 -0.17750181376E+02 -0.27740714106E+02 -0.58816048415E+02  0.67408780653E+02  0.00000000000E+00 0.  1.
          5    1    4    4  501    0  0.81407821181E+02  0.80616321003E+02 -0.57495092146E+03  0.58626978351E+03  0.41800000000E+01 0.  1.
         -5    1    4    4    0  501  0.21949086568E+02 -0.44629931204E+02 -0.34193489622E+03  0.34555830017E+03  0.41800000000E+01 0.  1.
</event>
<event>
11    1  0.7882745E-009  0.1355855E+03  0.7561462E-02  0.1112591E+00
         22   -1    0    0    0    0  0.00000000000E+00  0.00000000000E+00  0.17773464786E+04  0.17773464786E+04  0.00000000000E+00 0. -1.
         22   -1    0    0    0    0 -0.00000000000E+00 -0.00000000000E+00 -0.58852343022E+03  0.58852343022E+03  0.00000000000E+00 0. -1.
         24    2    1    2    0    0  0.59333613327E+02 -0.60880195418E+02 -0.27943243681E+03  0.30264266182E+03  0.79266753100E+02 0.  0.
         25    2    1    2    0    0 -0.24880270113E+02 -0.92584116508E+01 -0.28183764130E+03  0.30949133557E+03  0.12509070593E+03 0.  0.
        -24    2    1    2    0    0 -0.34453343214E+02  0.70138607069E+02  0.17500931265E+04  0.17537359114E+04  0.81591902866E+02 0.  0.
        -13    1    3    3    0    0  0.19712187901E+02 -0.71357474165E+02 -0.19998321610E+03  0.21324574132E+03  0.00000000000E+00 0.  1.
         14    1    3    3    0    0  0.39621425426E+02  0.10477278747E+02 -0.79449220711E+02  0.89396920497E+02  0.00000000000E+00 0. -1.
         13    1    5    5    0    0  0.10636529466E+02  0.20015955107E+02  0.10845250303E+04  0.10847618704E+04  0.00000000000E+00 0. -1.
        -14    1    5    5    0    0 -0.45089872681E+02  0.50122651962E+02  0.66556809621E+03  0.66897404101E+03  0.00000000000E+00 0.  1.
          5    1    4    4  501    0 -0.47417371548E+02  0.19725127456E+02 -0.26302836988E+03  0.26802776635E+03  0.41800000000E+01 0.  1.
         -5    1    4    4    0  501  0.22537101435E+02 -0.28983539107E+02 -0.18809271425E+02  0.41463569211E+02  0.41800000000E+01 0.  1.
</event>
<event>
11    1  0.7882745E-009  0.1524939E+03  0.7561462E-02  0.1094357E+00
         22   -1    0    0    0    0  0.00000000000E+00  0.00000000000E+00  0.11988679990E+04  0.11988679990E+04  0.00000000000E+00 0. -1.
         22   -1    0    0    0    0 -0.00000000000E+00 -0.00000000000E+00 -0.10999764650E+04  0.10999764650E+04  0.00000000000E+00 0. -1.
        -24    2    1    2    0    0  0.15013435243E+02  0.16990043411E+02 -0.98305489473E+03  0.98663650427E+03  0.80873980220E+02 0.  0.
         25    2    1    2    0    0  0.45586979170E+02 -0.79680912809E+02 -0.58398137548E+02  0.16577342148E+03  0.12507303571E+03 0.  0.
         24    2    1    2    0    0 -0.60600414413E+02  0.62690869398E+02  0.11403445662E+04  0.11464345383E+04  0.79522735985E+02 0.  0.
        -11    1    5    5    0    0 -0.32532792858E+02  0.40770531549E+02  0.25026012404E+03  0.25563792469E+03  0.00000000000E+00 0.  1.
         12    1    5    5    0    0 -0.28067621554E+02  0.21920337849E+02  0.89008444216E+03  0.89079661358E+03  0.00000000000E+00 0. -1.
         13    1    3    3    0    0 -0.22088102966E+02  0.34204439122E+02 -0.60696335443E+03  0.60832749533E+03  0.00000000000E+00 0. -1.
        -14    1    3    3    0    0  0.37101538209E+02 -0.17214395711E+02 -0.37609154030E+03  0.37830900894E+03  0.00000000000E+00 0.  1.
          5    1    4    4  501    0  0.16785916108E+02 -0.93155598117E+02  0.48359464904E+01  0.94871445749E+02  0.41800000000E+01 0.  1.
         -5    1    4    4    0  501  0.28801063062E+02  0.13474685308E+02 -0.63234084039E+02  0.70901975726E+02  0.41800000000E+01 0.  1.
</event>
<event>
11    1  0.7882745E-009  0.1468671E+03  0.7561462E-02  0.1100124E+00
         22   -1    0    0    0    0  0.00000000000E+00  0.00000000000E+00  0.18993113630E+04  0.18993113630E+04  0.00000000000E+00 0. -1.
         22   -1    0    0    0    0 -0.00000000000E+00 -0.00000000000E+00 -0.69342910763E+02  0.69342910763E+02  0.00000000000E+00 0.  1.
        -24    2    1    2    0    0  0.66147893966E+02  0.41009119991E+02  0.13319144019E+03  0.17788848467E+03  0.88583640920E+02 0.  0.
         25    2    1    2    0    0 -0.69990700753E+02 -0.31169421269E+02  0.71099777792E+02  0.16300966115E+03  0.12508693062E+03 0.  0.
         24    2    1    2    0    0  0.38428067866E+01 -0.98396987217E+01  0.16256772343E+04  0.16277561280E+04  0.81559519788E+02 0.  0.
        -13    1    5    5    0    0  0.19709545369E+02 -0.31093306366E+02  0.37609790726E+03  0.37789535023E+03  0.00000000000E+00 0.  1.
         14    1    5    5    0    0 -0.15866738582E+02  0.21253607644E+02  0.12495793270E+04  0.12498607777E+04  0.00000000000E+00 0. -1.
         11    1    3    3    0    0  0.28819838087E+02  0.57124530082E+02  0.11847636969E+03  0.13464934154E+03  0.00000000000E+00 0. -1.
        -12    1    3    3    0    0  0.37328055879E+02 -0.16115410092E+02  0.14715070507E+02  0.43239143124E+02  0.00000000000E+00 0.  1.
          5    1    4    4  501    0 -0.15114582013E+02 -0.67194040685E+02  0.41049190044E+01  0.69121722006E+02  0.41800000000E+01 0. -1.
         -5    1    4    4    0  501 -0.54876118740E+02  0.36024619416E+02  0.66994858788E+02  0.93887939141E+02  0.41800000000E+01 0. -1.
</event>
<event>
11    1  0.7882745E-009  0.2142553E+03  0.7561462E-02  0.1044877E+00
         22   -1    0    0    0    0  0.00000000000E+00  0.00000000000E+00  0.61039517983E+03  0.61039517983E+03  0.00000000000E+00 0.  1.
         22   -1    0    0    0    0 -0.00000000000E+00 -0.00000000000E+00 -0.21451796622E+04  0.21451796622E+04  0.00000000000E+00 0. -1.
         24    2    1    2    0    0 -0.58765431103E+02 -0.13062883889E+03 -0.81747097042E+03  0.83384891969E+03  0.80795816326E+02 0.  0.
         25    2    1    2    0    0  0.18367989544E+03  0.15170663648E+03 -0.12970507877E+04  0.13246669017E+04  0.12509375248E+03 0.  0.
        -24    2    1    2    0    0 -0.12491446434E+03 -0.21077797592E+02  0.57973727582E+03  0.59705902064E+03  0.65850347012E+02 0.  0.
        -13    1    3    3    0    0 -0.25819365734E+02 -0.95644454037E+02 -0.34505540581E+03  0.35899545166E+03  0.00000000000E+00 0.  1.
         14    1    3    3    0    0 -0.32946065369E+02 -0.34984384853E+02 -0.47241556462E+03  0.47485346803E+03  0.00000000000E+00 0. -1.
         13    1    5    5    0    0 -0.10552321641E+03 -0.59040749261E+01  0.33967729997E+03  0.35573961744E+03  0.00000000000E+00 0. -1.
        -14    1    5    5    0    0 -0.19391247929E+02 -0.15173722666E+02  0.24005997585E+03  0.24131940320E+03  0.00000000000E+00 0.  1.
          5    1    4    4  501    0  0.13417308099E+03  0.37975504088E+02 -0.55235258756E+03  0.56969764608E+03  0.41800000000E+01 0. -1.
         -5    1    4    4    0  501  0.49506814454E+02  0.11373113239E+03 -0.74469820016E+03  0.75496925558E+03  0.41800000000E+01 0. -1.
</event>
<event>
11    1  0.7882745E-009  0.1888531E+03  0.7561462E-02  0.1062698E+00
         22   -1    0    0    0    0  0.00000000000E+00  0.00000000000E+00  0.26406945822E+03  0.26406945822E+03  0.00000000000E+00 0. -1.
         22   -1    0    0    0    0 -0.00000000000E+00 -0.00000000000E+00 -0.84984485522E+03  0.84984485522E+03  0.00000000000E+00 0. -1.
        -24    2    1    2    0    0 -0.56357108775E+02 -0.13220481572E+03 -0.75698765739E+03  0.77509751595E+03  0.84211690244E+02 0.  0.
         25    2    1    2    0    0  0.18483600593E+00  0.11882271936E+03  0.70224251235E+02  0.18627394350E+03  0.12509062220E+03 0.  0.
         24    2    1    2    0    0  0.56172272769E+02  0.13382096359E+02  0.10098800916E+03  0.15254285399E+03  0.98672891818E+02 0.  0.
        -11    1    5    5    0    0 -0.49437483555E+01 -0.32840304515E+02  0.12491911581E+02  0.35482025075E+02  0.00000000000E+00 0.  1.
         12    1    5    5    0    0  0.61116021125E+02  0.46222400875E+02  0.88496097577E+02  0.11706082892E+03  0.00000000000E+00 0. -1.
         13    1    3    3    0    0 -0.30155989128E+01 -0.66242655167E+02 -0.50219385691E+03  0.50655291246E+03  0.00000000000E+00 0. -1.
        -14    1    3    3    0    0 -0.53341509862E+02 -0.65962160557E+02 -0.25479380048E+03  0.26854460349E+03  0.00000000000E+00 0.  1.
          5    1    4    4  501    0 -0.58934799130E+02  0.81070942824E+02  0.27427576318E+02  0.10399784931E+03  0.41800000000E+01 0.  1.
         -5    1    4    4    0  501  0.59119635136E+02  0.37751776541E+02  0.42796674917E+02  0.82276094186E+02  0.41800000000E+01 0.  1.
</event>
<event>
11    1  0.7882745E-009  0.2893490E+03  0.7561462E-02  0.1004802E+00
         22   -1    0    0    0    0  0.00000000000E+00  0.00000000000E+00  0.11078416624E+03  0.11078416624E+03  0.00000000000E+00 0. -1.
         22   -1    0    0    0    0 -0.00000000000E+00 -0.00000000000E+00 -0.23191567373E+04  0.23191567373E+04  0.00000000000E+00 0.  1.
         24    2    1    2    0    0  0.26463302267E+03 -0.11814577820E+02 -0.17803981632E+04  0.18017563571E+04  0.79612374223E+02 0.  0.
         25    2    1    2    0    0 -0.22943232366E+03  0.13850950660E+03 -0.34568488148E+03  0.45493886955E+03  0.12508902104E+03 0.  0.
        -24    2    1    2    0    0 -0.35200699016E+02 -0.12669492878E+03 -0.82289526380E+02  0.17324567681E+03  0.77147937062E+02 0.  0.
        -11    1    3    3    0    0  0.26677833184E+03 -0.30565741513E+01 -0.17421043127E+04  0.17624152341E+04  0.00000000000E+00 0.  1.
         12    1    3    3    0    0 -0.21453091711E+01 -0.87580036688E+01 -0.38293850483E+02  0.39341123072E+02  0.00000000000E+00 0. -1.
         11    1    5    5    0    0 -0.45971959607E+02 -0.33112402766E+02 -0.43245869484E+02  0.71274522197E+02  0.00000000000E+00 0. -1.
        -12    1    5    5    0    0  0.10771260591E+02 -0.93582526015E+02 -0.39043656896E+02  0.10197115462E+03  0.00000000000E+00 0.  1.
          5    1    4    4  501    0 -0.23866243960E+03  0.11574886068E+03 -0.28510204888E+03  0.38943319003E+03  0.41800000000E+01 0.  1.
         -5    1    4    4    0  501  0.92301159423E+01  0.22760645919E+02 -0.60582832597E+02  0.65505679513E+02  0.41800000000E+01 0.  1.
</event>
<event>
11    1  0.7882745E-009  0.1394036E+03  0.7561462E-02  0.1108226E+00
         22   -1    0    0    0    0  0.00000000000E+00  0.00000000000E+00  0.37223556235E+03  0.37223556235E+03  0.00000000000E+00 0. -1.
         22   -1    0    0    0    0 -0.00000000000E+00 -0.00000000000E+00 -0.26560297359E+03  0.26560297359E+03  0.00000000000E+00 0. -1.
         24    2    1    2    0    0  0.57365045521E+02  0.12237674628E+02 -0.16769491625E+03  0.19324349942E+03  0.76032598294E+02 0.  0.
         25    2    1    2    0    0 -0.72708411140E+02 -0.27126848604E+02 -0.11066149836E+02  0.14761932200E+03  0.12508647245E+03 0.  0.
        -24    2    1    2    0    0  0.15343365619E+02  0.14889173976E+02  0.28539365486E+03  0.29697571451E+03  0.79296471597E+02 0.  0.
        -11    1    3    3    0    0  0.19445956083E+01  0.82311839207E+01  0.63292406446E+01  0.10563764857E+02  0.00000000000E+00 0.  1.
         12    1    3    3    0    0  0.55420449913E+02  0.40064907075E+01 -0.17402415690E+03  0.18267973456E+03  0.00000000000E+00 0. -1.
         11    1    5    5    0    0 -0.11741936670E+01 -0.80784540444E+01  0.25617643067E+03  0.25630646457E+03  0.00000000000E+00 0. -1.
        -12    1    5    5    0    0  0.16517559286E+02  0.22967628021E+02  0.29217224189E+02  0.40669249944E+02  0.00000000000E+00 0.  1.
          5    1    4    4  501    0  0.54033424116E+01  0.41596435558E+02  0.42804642585E+01  0.42370441756E+02  0.41800000000E+01 0. -1.
         -5    1    4    4    0  501 -0.78111753552E+02 -0.68723284162E+02 -0.15346614095E+02  0.10524888025E+03  0.41800000000E+01 0. -1.
</event>
<event>
11    1  0.7882745E-009  0.1573192E+03  0.7561462E-02  0.1089626E+00
         22   -1    0    0    0    0  0.00000000000E+00  0.00000000000E+00  0.28618435166E+04  0.28618435166E+04  0.00000000000E+00 0. -1.
         22   -1    0    0    0    0 -0.00000000000E+00 -0.00000000000E+00 -0.40836632275E+03  0.40836632275E+03  0.00000000000E+00 0.  1.
         24    2    1    2    0    0 -0.67234303353E+02  0.40225978156E+02 -0.38077701983E+03  0.39737468438E+03  0.82322051083E+02 0.  0.
         25    2    1    2    0    0  0.15291088631E+03 -0.93339271166E+01  0.53605321948E+03  0.57137495525E+03  0.12508966393E+03 0.  0.
        -24    2    1    2    0    0 -0.85676582960E+02 -0.30892051040E+02  0.22982009942E+04  0.23014601998E+04  0.81831812432E+02 0.  0.
        -11    1    3    3    0    0 -0.46480278658E+02  0.51679735932E+02 -0.35734944779E+03  0.36404647952E+03  0.00000000000E+00 0.  1.
         12    1    3    3    0    0 -0.20754024695E+02 -0.11453757776E+02 -0.23427572031E+02  0.33328204865E+02  0.00000000000E+00 0. -1.
         13    1    5    5    0    0 -0.66187006123E+02 -0.20779963259E+02  0.21876611300E+04  0.21887607787E+04  0.00000000000E+00 0. -1.
        -14    1    5    5    0    0 -0.19489576837E+02 -0.10112087781E+02  0.11053986428E+03  0.11269942111E+03  0.00000000000E+00 0.  1.
          5    1    4    4  501    0  0.57532478066E+02 -0.22559810399E+02  0.39926982120E+03  0.40404553407E+03  0.41800000000E+01 0.  1.
         -5    1    4    4    0  501  0.95378408247E+02  0.13225883283E+02  0.13678339828E+03  0.16732942118E+03  0.41800000000E+01 0.  1.
</event>
<event>
11    1  0.7882745E-009  0.1536442E+03  0.7561462E-02  0.1093212E+00
         22   -1    0    0    0    0  0.00000000000E+00  0.00000000000E+00  0.12767120564E+03  0.12767120564E+03  0.00000000000E+00 0.  1.
         22   -1    0    0    0    0 -0.00000000000E+00 -0.00000000000E+00 -0.53977173611E+03  0.53977173611E+03  0.00000000000E+00 0.  1.
         24    2    1    2    0    0  0.92553396122E+02  0.74263452772E+01 -0.32786180051E+03  0.34957672872E+03  0.78033629256E+02 0.  0.
         25    2    1    2    0    0 -0.79320563346E+02  0.20319946380E+01 -0.15014930719E+03  0.21092509529E+03  0.12509476647E+03 0.  0.
        -24    2    1    2    0    0 -0.13232832776E+02 -0.94583399152E+01  0.65910577229E+02  0.10694111775E+03  0.82629476683E+02 0.  0.
        -13    1    3    3    0    0  0.99452037725E+02  0.24789750814E+02 -0.28244544331E+03  0.30046741587E+03  0.00000000000E+00 0.  1.
         14    1    3    3    0    0 -0.68986416029E+01 -0.17363405537E+02 -0.45416357198E+02  0.49109312853E+02  0.00000000000E+00 0. -1.
         11    1    5    5    0    0  0.10306099671E+02 -0.31154968827E+02 -0.93135761446E+00  0.32828572921E+02  0.00000000000E+00 0. -1.
        -12    1    5    5    0    0 -0.23538932447E+02  0.21696628911E+02  0.66841934844E+02  0.74112544826E+02  0.00000000000E+00 0.  1.
          5    1    4    4  501    0 -0.27088025271E+02  0.45342439426E+02 -0.83027323448E+01  0.53629336100E+02  0.41800000000E+01 0. -1.
         -5    1    4    4    0  501 -0.52232538076E+02 -0.43310444788E+02 -0.14184657485E+03  0.15729575919E+03  0.41800000000E+01 0. -1.
</event>
<event>
11    1  0.7882745E-009  0.2045346E+03  0.7561462E-02  0.1051363E+00
         22   -1    0    0    0    0  0.00000000000E+00  0.00000000000E+00  0.76279476432E+03  0.76279476432E+03  0.00000000000E+00 0. -1.
         22   -1    0    0    0    0 -0.00000000000E+00 -0.00000000000E+00 -0.10106267671E+04  0.10106267671E+04  0.00000000000E+00 0.  1.
         24    2    1    2    0    0 -0.93798972909E+01  0.16224879707E+03 -0.96302430896E+03  0.98010734970E+03  0.82352551114E+02 0.  0.
         25    2    1    2    0    0 -0.32325324543E+02 -0.14221185738E+03  0.23052589904E+03  0.30009697354E+03  0.12508742708E+03 0.  0.
        -24    2    1    2    0    0  0.41705221833E+02 -0.20036939686E+02  0.48466640717E+03  0.49321720815E+03  0.78872578836E+02 0.  0.
        -11    1    3    3    0    0 -0.83778563393E+01  0.16221403071E+03 -0.96463241025E+03  0.97821228123E+03  0.00000000000E+00 0.  1.
         12    1    3    3    0    0 -0.10020409515E+01  0.34766354337E-01  0.16081012919E+01  0.18950684771E+01  0.00000000000E+00 0. -1.
         13    1    5    5    0    0  0.19372843958E+02 -0.70801514593E+01  0.44743108369E+03  0.44790625166E+03  0.00000000000E+00 0. -1.
        -14    1    5    5    0    0  0.22332377875E+02 -0.12956788227E+02  0.37235323483E+02  0.45310956485E+02  0.00000000000E+00 0.  1.
          5    1    4    4  501    0  0.77001191149E+01 -0.15030424033E+03  0.18990651837E+03  0.24234812690E+03  0.41800000000E+01 0.  1.
         -5    1    4    4    0  501 -0.40025443657E+02  0.80923829477E+01  0.40619380676E+02  0.57748846640E+02  0.41800000000E+01 0.  1.
</event>
<event>
11    1  0.7882745E-009  0.1328570E+03  0.7561462E-02  0.1115808E+00
         22   -1    0    0    0    0  0.00000000000E+00  0.00000000000E+00  0.39087798762E+03  0.39087798762E+03  0.00000000000E+00 0.  1.
         22   -1    0    0    0    0 -0.00000000000E+00 -0.00000000000E+00 -0.20113837159E+03  0.20113837159E+03  0.00000000000E+00 0.  1.
         24    2    1    2    0    0 -0.11347181138E+02  0.45081538159E+02 -0.15492869952E+03  0.18152838552E+03  0.82392652660E+02 0.  0.
         25    2    1    2    0    0  0.23356953505E+02 -0.17218064347E+02  0.14496396330E+03  0.19366126582E+03  0.12509247063E+03 0.  0.
        -24    2    1    2    0    0 -0.12009772367E+02 -0.27863473811E+02  0.19970435224E+03  0.21682670787E+03  0.78812341275E+02 0.  0.
        -11    1    3    3    0    0  0.48279361860E+01  0.51228529369E+02 -0.15592512281E+03  0.16419596558E+03  0.00000000000E+00 0.  1.
         12    1    3    3    0    0 -0.16175117324E+02 -0.61469912105E+01  0.99642329861E+00  0.17332419934E+02  0.00000000000E+00 0. -1.
         13    1    5    5    0    0 -0.37269375045E+00  0.25851718798E+02  0.37380203883E+02  0.45450301515E+02  0.00000000000E+00 0. -1.
        -14    1    5    5    0    0 -0.11637078617E+02 -0.53715192609E+02  0.16232414836E+03  0.17137640636E+03  0.00000000000E+00 0.  1.
          5    1    4    4  501    0 -0.29682653045E+02 -0.10035710753E+02  0.13551050210E+03  0.13914863981E+03  0.41800000000E+01 0. -1.
         -5    1    4    4    0  501  0.53039606550E+02 -0.71823535949E+01  0.94534612031E+01  0.54512626013E+02  0.41800000000E+01 0. -1.
</event>
<event>
11    1  0.7882745E-009  0.1450227E+03  0.7561462E-02  0.1102076E+00
         22   -1    0    0    0    0  0.00000000000E+00  0.00000000000E+00  0.48914490483E+03  0.48914490483E+03  0.00000000000E+00 0.  1.
         22   -1    0    0    0    0 -0.00000000000E+00 -0.00000000000E+00 -0.75329972910E+03  0.75329972910E+03  0.00000000000E+00 0. -1.
        -24    2    1    2    0    0 -0.11080418972E+02  0.63711216978E+02 -0.33859448046E+03  0.35454131197E+03  0.82894057976E+02 0.  0.
         25    2    1    2    0    0  0.55305266485E+02 -0.12117156404E+03 -0.37962461921E+03  0.42130899799E+03  0.12508077327E+03 0.  0.
         24    2    1    2    0    0 -0.44224847513E+02  0.57460347066E+02  0.45406427539E+03  0.46659432397E+03  0.79236155548E+02 0.  0.
        -13    1    5    5    0    0 -0.57292417865E+02  0.32733014763E+02  0.40305965281E+03  0.40842496878E+03  0.00000000000E+00 0.  1.
         14    1    5    5    0    0  0.13067570353E+02  0.24727332303E+02  0.51004622584E+02  0.58169355186E+02  0.00000000000E+00 0. -1.
         11    1    3    3    0    0  0.11921020601E+02  0.10163819559E+02 -0.23623602598E+03  0.23675488153E+03  0.00000000000E+00 0. -1.
        -12    1    3    3    0    0 -0.23001439574E+02  0.53547397419E+02 -0.10235845448E+03  0.11778643044E+03  0.00000000000E+00 0.  1.
          5    1    4    4  501    0 -0.11379092670E+02 -0.37808508804E+02 -0.25091628332E+03  0.25403822690E+03  0.41800000000E+01 0. -1.
         -5    1    4    4    0  501  0.66684359154E+02 -0.83363055240E+02 -0.12870833589E+03  0.16727077109E+03  0.41800000000E+01 0. -1.
</event>
<event>
11    1  0.7882745E-009  0.1700528E+03  0.7561462E-02  0.1077986E+00
         22   -1    0    0    0    0  0.00000000000E+00  0.00000000000E+00  0.16874351663E+04  0.16874351663E+04  0.00000000000E+00 0. -1.
         22   -1    0    0    0    0 -0.00000000000E+00 -0.00000000000E+00 -0.47584771674E+03  0.47584771674E+03  0.00000000000E+00 0. -1.
         24    2    1    2    0    0  0.43041442747E+02  0.60615866615E+02 -0.44370880542E+03  0.45695202075E+03  0.80004976009E+02 0.  0.
         25    2    1    2    0    0 -0.14020683135E+03 -0.10219546620E+03  0.50414592696E+03  0.54764263627E+03  0.12508985781E+03 0.  0.
        -24    2    1    2    0    0  0.97165388606E+02  0.41579599584E+02  0.11511503281E+04  0.11586882261E+04  0.79002224975E+02 0.  0.
        -13    1    3    3    0    0  0.63157581029E+02  0.25779233747E+02 -0.25212919589E+03  0.26119452589E+03  0.00000000000E+00 0.  1.
         14    1    3    3    0    0 -0.20116138283E+02  0.34836632867E+02 -0.19157960953E+03  0.19575749486E+03  0.00000000000E+00 0. -1.
         11    1    5    5    0    0  0.69725116550E+02  0.23981688803E+02  0.10461222479E+04  0.10487175362E+04  0.00000000000E+00 0. -1.
        -12    1    5    5    0    0  0.27440272056E+02  0.17597910781E+02  0.10502808017E+03  0.10997068982E+03  0.00000000000E+00 0.  1.
          5    1    4    4  501    0 -0.41845436957E+01 -0.72783545949E+02  0.14247662073E+03  0.16010001506E+03  0.41800000000E+01 0. -1.
         -5    1    4    4    0  501 -0.13602228766E+03 -0.29411920249E+02  0.36166930622E+03  0.38754262121E+03  0.41800000000E+01 0. -1.
</event>
<event>
11    1  0.7882745E-009  0.1448991E+03  0.7561462E-02  0.1102208E+00
         22   -1    0    0    0    0  0.00000000000E+00  0.00000000000E+00  0.63842842577E+03  0.63842842577E+03  0.00000000000E+00 0. -1.
         22   -1    0    0    0    0 -0.00000000000E+00 -0.00000000000E+00 -0.62687996017E+03  0.62687996017E+03  0.00000000000E+00 0.  1.
         24    2    1    2    0    0  0.50371969976E+02 -0.19785250217E+02 -0.52226471892E+03  0.53000982834E+03  0.72257802550E+02 0.  0.
         25    2    1    2    0    0 -0.49753846663E+02 -0.54316164794E+02 -0.40599478485E+02  0.15073734366E+03  0.12509091935E+03 0.  0.
        -24    2    1    2    0    0 -0.61812331382E+00  0.74101415011E+02  0.57441266300E+03  0.58456121394E+03  0.79186511799E+02 0.  0.
        -11    1    3    3    0    0  0.20475292243E+02  0.17454346016E+02 -0.35620573216E+03  0.35722040173E+03  0.00000000000E+00 0.  1.
         12    1    3    3    0    0  0.29896677733E+02 -0.37239596233E+02 -0.16605898676E+03  0.17278942661E+03  0.00000000000E+00 0. -1.
         13    1    5    5    0    0  0.21269118316E+02  0.55367663242E+02  0.51633520441E+03  0.51973069645E+03  0.00000000000E+00 0. -1.
        -14    1    5    5    0    0 -0.21887241630E+02  0.18733751769E+02  0.58077458594E+02  0.64830517492E+02  0.00000000000E+00 0.  1.
          5    1    4    4  501    0  0.20075204795E+02 -0.10952730684E+02  0.32972222420E+02  0.40343723283E+02  0.41800000000E+01 0. -1.
         -5    1    4    4    0  501 -0.69829051458E+02 -0.43363434110E+02 -0.73571700905E+02  0.11039362037E+03  0.41800000000E+01 0. -1.
</event>
<event>
11    1  0.7882745E-009  0.1274033E+03  0.7561462E-02  0.1122501E+00
         22   -1    0    0    0    0  0.00000000000E+00  0.00000000000E+00  0.11338802594E+04  0.11338802594E+04  0.00000000000E+00 0. -1.
         22   -1    0    0    0    0 -0.00000000000E+00 -0.00000000000E+00 -0.90023964958E+02  0.90023964958E+02  0.00000000000E+00 0. -1.
         24    2    1    2    0    0 -0.27086459245E+02  0.11943937442E+02  0.41824720753E+00  0.90644806153E+02  0.85673636760E+02 0.  0.
         25    2    1    2    0    0 -0.82953721058E+00 -0.25021124584E+02  0.51320143045E+02  0.13749756556E+03  0.12508028880E+03 0.  0.
        -24    2    1    2    0    0  0.27915996456E+02  0.13077187142E+02  0.99211790416E+03  0.99576185261E+03  0.79331051181E+02 0.  0.
        -11    1    3    3    0    0  0.15914333551E+02 -0.27773692607E+02  0.21520725798E+01  0.32082322699E+02  0.00000000000E+00 0.  1.
         12    1    3    3    0    0 -0.43000792796E+02  0.39717630049E+02 -0.17338253723E+01  0.58562483453E+02  0.00000000000E+00 0. -1.
         11    1    5    5    0    0 -0.49723252271E+01  0.40831484480E+02  0.55898380670E+03  0.56049516528E+03  0.00000000000E+00 0. -1.
        -12    1    5    5    0    0  0.32888321683E+02 -0.27754297337E+02  0.43313409746E+03  0.43526668734E+03  0.00000000000E+00 0.  1.
          5    1    4    4  501    0  0.21640065247E+02 -0.23141165750E+02  0.88344266563E+02  0.93946728579E+02  0.41800000000E+01 0.  1.
         -5    1    4    4    0  501 -0.22469602457E+02 -0.18799588344E+01 -0.37024123518E+02  0.43550836985E+02  0.41800000000E+01 0.  1.
</event>
<event>
11    1  0.7882745E-009  0.1421851E+03  0.7561462E-02  0.1105143E+00
         22   -1    0    0    0    0  0.00000000000E+00  0.00000000000E+00  0.63092434384E+03  0.63092434384E+03  0.00000000000E+00 0.  1.
         22   -1    0    0    0    0 -0.00000000000E+00 -0.00000000000E+00 -0.27848451677E+03  0.27848451677E+03  0.00000000000E+00 0. -1.
         24    2    1    2    0    0 -0.39624891354E+02 -0.61221266577E+02 -0.19697219556E+03  0.22587659842E+03  0.83090410973E+02 0.  0.
         25    2    1    2    0    0  0.12681432613E+02  0.41253976540E+02  0.77823277388E+01  0.13255606545E+03  0.12509131284E+03 0.  0.
        -24    2    1    2    0    0  0.26943458741E+02  0.19967290037E+02  0.54162969489E+03  0.55097619674E+03  0.95327857139E+02 0.  0.
        -13    1    3    3    0    0 -0.15228298603E+02 -0.49393498783E+02 -0.36858502296E+02  0.63483604118E+02  0.00000000000E+00 0.  1.
         14    1    3    3    0    0 -0.24396592752E+02 -0.11827767794E+02 -0.16011369326E+03  0.16239299430E+03  0.00000000000E+00 0. -1.
         11    1    5    5    0    0 -0.18587087436E+02  0.34257666505E+02  0.10969344960E+03  0.11641185686E+03  0.00000000000E+00 0. -1.
        -12    1    5    5    0    0  0.45530546177E+02 -0.14290376469E+02  0.43193624530E+03  0.43456433988E+03  0.00000000000E+00 0.  1.
          5    1    4    4  501    0  0.23493744145E+02  0.82901121258E+02  0.18022042322E+02  0.88129554233E+02  0.41800000000E+01 0. -1.
         -5    1    4    4    0  501 -0.10812311532E+02 -0.41647144718E+02 -0.10239714583E+02  0.44426511213E+02  0.41800000000E+01 0. -1.
</event>
<event>
11    1  0.7882745E-009  0.1454020E+03  0.7561462E-02  0.1101672E+00
         22   -1    0    0    0    0  0.00000000000E+00  0.00000000000E+00  0.85114036074E+03  0.85114036074E+03  0.00000000000E+00 0.  1.
         22   -1    0    0    0    0 -0.00000000000E+00 -0.00000000000E+00 -0.17993496162E+04  0.17993496162E+04  0.00000000000E+00 0.  1.
         24    2    1    2    0    0  0.41397096046E+02 -0.60428064546E+02 -0.16498221851E+04  0.16533700257E+04  0.79711535000E+02 0.  0.
         25    2    1    2    0    0 -0.86952572756E+01  0.11215122562E+03 -0.95639702814E+02  0.19351589331E+03  0.12509173954E+03 0.  0.
        -24    2    1    2    0    0 -0.32701838770E+02 -0.51723161077E+02  0.79725263244E+03  0.80360405796E+03  0.80143785706E+02 0.  0.
        -11    1    3    3    0    0  0.34529195352E+02 -0.75919456822E+02 -0.15391508674E+04  0.15414089081E+04  0.00000000000E+00 0.  1.
         12    1    3    3    0    0  0.68679006941E+01  0.15491392275E+02 -0.11067131772E+03  0.11196111762E+03  0.00000000000E+00 0. -1.
         13    1    5    5    0    0 -0.17091440651E+02 -0.73047604747E+01  0.32779756220E+02  0.37682745215E+02  0.00000000000E+00 0. -1.
        -14    1    5    5    0    0 -0.15610398120E+02 -0.44418400602E+02  0.76447287622E+03  0.76592131275E+03  0.00000000000E+00 0.  1.
          5    1    4    4  501    0 -0.60041314082E+02  0.41972536111E+02 -0.73129629697E+02  0.10359569645E+03  0.41800000000E+01 0.  1.
         -5    1    4    4    0  501  0.51346056806E+02  0.70178689512E+02 -0.22510073117E+02  0.89920196858E+02  0.41800000000E+01 0.  1.
</event>
<event>
11    1  0.7882745E-009  0.1432378E+03  0.7561462E-02  0.1103996E+00
         22   -1    0    0    0    0  0.00000000000E+00  0.00000000000E+00  0.13640417261E+03  0.13640417261E+03  0.00000000000E+00 0. -1.
         22   -1    0    0    0    0 -0.00000000000E+00 -0.00000000000E+00 -0.13831274671E+04  0.13831274671E+04  0.00000000000E+00 0.  1.
        -24    2    1    2    0    0 -0.23889708756E+01  0.77339950076E+02 -0.92905630432E+03  0.93595446926E+03  0.82933569029E+02 0.  0.
         25    2    1    2    0    0 -0.26973778843E+01 -0.47122640379E+02 -0.42255477523E+03  0.44320193238E+03  0.12509035020E+03 0.  0.
         24    2    1    2    0    0  0.50863487599E+01 -0.30217309697E+02  0.10488778507E+03  0.14037523807E+03  0.88118121047E+02 0.  0.
        -13    1    5    5    0    0 -0.23480279883E+02  0.22636621435E+02  0.29514847454E+02  0.43987116223E+02  0.00000000000E+00 0.  1.
         14    1    5    5    0    0  0.28566628643E+02 -0.52853931132E+02  0.75372937611E+02  0.96388121842E+02  0.00000000000E+00 0. -1.
         11    1    3    3    0    0  0.10592616923E+02  0.60265339087E+02 -0.28287660526E+03  0.28941888057E+03  0.00000000000E+00 0. -1.
        -12    1    3    3    0    0 -0.12981587799E+02  0.17074610989E+02 -0.64617969906E+03  0.64653558869E+03  0.00000000000E+00 0.  1.
          5    1    4    4  501    0 -0.60007092331E+02 -0.46750829159E+02 -0.23472596492E+03  0.24677974423E+03  0.41800000000E+01 0.  1.
         -5    1    4    4    0  501  0.57309714447E+02 -0.37181122003E+00 -0.18782881031E+03  0.19642218815E+03  0.41800000000E+01 0.  1.
</event>
<event>
11    1  0.7882745E-009  0.2175366E+03  0.7561462E-02  0.1042772E+00
         22   -1    0    0    0    0  0.00000000000E+00  0.00000000000E+00  0.10073091808E+04  0.10073091808E+04  0.00000000000E+00 0. -1.
         22   -1    0    0    0    0 -0.00000000000E+00 -0.00000000000E+00 -0.23977560912E+03  0.23977560912E+03  0.00000000000E+00 0.  1.
         24    2    1    2    0    0  0.15256020710E+03  0.84796161307E+02 -0.15049256984E+03  0.24374552922E+03  0.79365380830E+02 0.  0.
         25    2    1    2    0    0 -0.18901478928E+03 -0.81829151910E+02  0.32932009299E+03  0.40807151991E+03  0.12509213024E+03 0.  0.
        -24    2    1    2    0    0  0.36454582181E+02 -0.29670093965E+01  0.58870604850E+03  0.59526774076E+03  0.80194338556E+02 0.  0.
        -13    1    3    3    0    0  0.12312009431E+03  0.65858215388E+02 -0.70473095107E+02  0.15640434550E+03  0.00000000000E+00 0.  1.
         14    1    3    3    0    0  0.29440112789E+02  0.18937945919E+02 -0.80019474738E+02  0.87341183722E+02  0.00000000000E+00 0. -1.
         13    1    5    5    0    0 -0.23580208911E+02 -0.21805144541E+01  0.26380472460E+03  0.26486546324E+03  0.00000000000E+00 0. -1.
        -14    1    5    5    0    0  0.60034791093E+02 -0.78649494242E+00  0.32490132390E+03  0.33040227752E+03  0.00000000000E+00 0.  1.
          5    1    4    4  501    0 -0.17904355923E+03 -0.22300598678E+02  0.24703737428E+03  0.30593929054E+03  0.41800000000E+01 0. -1.
         -5    1    4    4    0  501 -0.99712300504E+01 -0.59528553232E+02  0.82282718712E+02  0.10213222938E+03  0.41800000000E+01 0. -1.
</event>
<event>
11    1  0.7882745E-009  0.1338817E+03  0.7561462E-02  0.1114590E+00
         22   -1    0    0    0    0  0.00000000000E+00  0.00000000000E+00  0.58072446080E+03  0.58072446080E+03  0.00000000000E+00 0.  1.
         22   -1    0    0    0    0 -0.00000000000E+00 -0.00000000000E+00 -0.13724087899E+03  0.13724087899E+03  0.00000000000E+00 0. -1.
         24    2    1    2    0    0  0.39487207560E+02 -0.21110989219E+02 -0.75152089072E+02  0.12089229507E+03  0.83439781213E+02 0.  0.
         25    2    1    2    0    0 -0.53218601007E+02  0.40402780897E+02  0.10762213225E+03  0.17802735191E+03  0.12508641205E+03 0.  0.
        -24    2    1    2    0    0  0.13731393448E+02 -0.19291791679E+02  0.41101353863E+03  0.41904569280E+03  0.78143709462E+02 0.  0.
        -11    1    3    3    0    0  0.23814685881E+02  0.83750756045E+01  0.11713407504E+02  0.27829571868E+02  0.00000000000E+00 0.  1.
         12    1    3    3    0    0  0.15672521679E+02 -0.29486064823E+02 -0.86865496576E+02  0.93062723203E+02  0.00000000000E+00 0. -1.
         13    1    5    5    0    0 -0.32296774781E+02 -0.13223220572E+02  0.15805720697E+03  0.16186418967E+03  0.00000000000E+00 0. -1.
        -14    1    5    5    0    0  0.46028168228E+02 -0.60685711066E+01  0.25295633166E+03  0.25718150313E+03  0.00000000000E+00 0.  1.
          5    1    4    4  501    0 -0.20411513394E+02  0.10282972556E+02  0.12712321082E+03  0.12922907000E+03  0.41800000000E+01 0. -1.
         -5    1    4    4    0  501 -0.32807087613E+02  0.30119808342E+02 -0.19501078565E+02  0.48798281910E+02  0.41800000000E+01 0. -1.
</event>
<event>
11    1  0.7882745E-009  0.1747035E+03  0.7561462E-02  0.1074010E+00
         22   -1    0    0    0    0  0.00000000000E+00  0.00000000000E+00  0.31607682591E+03  0.31607682591E+03  0.00000000000E+00 0.  1.
         22   -1    0    0    0    0 -0.00000000000E+00 -0.00000000000E+00 -0.10456443920E+04  0.10456443920E+04  0.00000000000E+00 0.  1.
         24    2    1    2    0    0  0.16053909360E+02  0.49802248188E+01 -0.83285400219E+03  0.83703258459E+03  0.81824373212E+02 0.  0.
         25    2    1    2    0    0 -0.79419570862E+02  0.98767543737E+02 -0.14958093563E+03  0.23255905594E+03  0.12508701877E+03 0.  0.
        -24    2    1    2    0    0  0.63365661502E+02 -0.10374776856E+03  0.25286737173E+03  0.29212957738E+03  0.81357087931E+02 0.  0.
        -11    1    3    3    0    0  0.43881234103E+02 -0.80678537657E+01 -0.30072473810E+03  0.30401648159E+03  0.00000000000E+00 0.  1.
         12    1    3    3    0    0 -0.27827324743E+02  0.13048078585E+02 -0.53212926409E+03  0.53301610300E+03  0.00000000000E+00 0. -1.
         13    1    5    5    0    0  0.26071112580E+02 -0.79873471890E+02  0.89042909219E+02  0.12242595356E+03  0.00000000000E+00 0. -1.
        -14    1    5    5    0    0  0.37294548922E+02 -0.23874296665E+02  0.16382446251E+03  0.16970362382E+03  0.00000000000E+00 0.  1.
          5    1    4    4  501    0 -0.21321432099E+01  0.93194932743E+02 -0.48616579338E+02  0.10521827650E+03  0.41800000000E+01 0. -1.
         -5    1    4    4    0  501 -0.77287427652E+02  0.55726109934E+01 -0.10096435629E+03  0.12734077944E+03  0.41800000000E+01 0. -1.
</event>
<event>
11    1  0.7882745E-009  0.1498823E+03  0.7561462E-02  0.1096999E+00
         22   -1    0    0    0    0  0.00000000000E+00  0.00000000000E+00  0.71658544328E+03  0.71658544328E+03  0.00000000000E+00 0. -1.
         22   -1    0    0    0    0 -0.00000000000E+00 -0.00000000000E+00 -0.53179132103E+03  0.53179132103E+03  0.00000000000E+00 0. -1.
         24    2    1    2    0    0  0.25733173038E+02 -0.78951567028E+02 -0.46579354729E+03  0.47923518090E+03  0.76204880339E+02 0.  0.
         25    2    1    2    0    0  0.48192740267E+02  0.91587422494E+02  0.67457728175E+02  0.17581193109E+03  0.12509394010E+03 0.  0.
        -24    2    1    2    0    0 -0.73925913305E+02 -0.12635855466E+02  0.58312994136E+03  0.59332965232E+03  0.79842609610E+02 0.  0.
        -11    1    3    3    0    0 -0.25976774563E+02 -0.14081491062E+02 -0.13530167977E+03  0.13849052587E+03  0.00000000000E+00 0.  1.
         12    1    3    3    0    0  0.51709947600E+02 -0.64870075966E+02 -0.33049186751E+03  0.34074465502E+03  0.00000000000E+00 0. -1.
         11    1    5    5    0    0  0.14514939640E+00 -0.86754346307E+01  0.31525210298E+03  0.31537148360E+03  0.00000000000E+00 0. -1.
        -12    1    5    5    0    0 -0.74071062702E+02 -0.39604208350E+01  0.26787783838E+03  0.27795816872E+03  0.00000000000E+00 0.  1.
          5    1    4    4  501    0 -0.32024936915E+02 -0.46267313954E+01  0.31660066541E+02  0.45462461891E+02  0.41800000000E+01 0. -1.
         -5    1    4    4    0  501  0.80217677183E+02  0.96214153889E+02  0.35797661634E+02  0.13034946920E+03  0.41800000000E+01 0. -1.
</event>
<event>
11    1  0.7882745E-009  0.1780295E+03  0.7561462E-02  0.1071248E+00
         22   -1    0    0    0    0  0.00000000000E+00  0.00000000000E+00  0.21259192193E+03  0.21259192193E+03  0.00000000000E+00 0.  1.
         22   -1    0    0    0    0 -0.00000000000E+00 -0.00000000000E+00 -0.35430771347E+03  0.35430771347E+03  0.00000000000E+00 0. -1.
        -24    2    1    2    0    0  0.25329289081E+02  0.97061502793E+02 -0.18275872720E+03  0.22307590717E+03  0.79370018143E+02 0.  0.
         25    2    1    2    0    0  0.10722036116E+03 -0.90295724836E+02  0.24461294697E+02  0.18946448175E+03  0.12509560798E+03 0.  0.
         24    2    1    2    0    0 -0.13254965024E+03 -0.67657779571E+01  0.16581640959E+02  0.15435924648E+03  0.77049598490E+02 0.  0.
        -13    1    5    5    0    0 -0.14477924228E+02  0.26626749056E+02 -0.14269963385E+01  0.30341891401E+02  0.00000000000E+00 0.  1.
         14    1    5    5    0    0 -0.11807172601E+03 -0.33392527014E+02  0.18008637297E+02  0.12401735508E+03  0.00000000000E+00 0. -1.
         11    1    3    3    0    0  0.22134711268E+02  0.10543985013E+03 -0.12674241193E+03  0.16634646500E+03  0.00000000000E+00 0. -1.
        -12    1    3    3    0    0  0.31945778131E+01 -0.83783473334E+01 -0.56016315270E+02  0.56729442161E+02  0.00000000000E+00 0.  1.
          5    1    4    4  501    0  0.13383967945E+03 -0.86889778345E+02  0.28040157736E+02  0.16206978813E+03  0.41800000000E+01 0. -1.
         -5    1    4    4    0  501 -0.26619318296E+02 -0.34059464915E+01 -0.35788630394E+01  0.27394693623E+02  0.41800000000E+01 0. -1.
</event>
<event>
11    1  0.7882745E-009  0.1475430E+03  0.7561462E-02  0.1099416E+00
         22   -1    0    0    0    0  0.00000000000E+00  0.00000000000E+00  0.26986239334E+03  0.26986239334E+03  0.00000000000E+00 0.  1.
         22   -1    0    0    0    0 -0.00000000000E+00 -0.00000000000E+00 -0.13595889613E+04  0.13595889613E+04  0.00000000000E+00 0.  1.
        -24    2    1    2    0    0 -0.39820228476E+02 -0.80337955809E+02 -0.93292781948E+03  0.94141763157E+03  0.88729943784E+02 0.  0.
         25    2    1    2    0    0  0.72738773375E+02  0.56893003052E+01 -0.39660750232E+03  0.42222108789E+03  0.12509931604E+03 0.  0.
         24    2    1    2    0    0 -0.32918544899E+02  0.74648655504E+02  0.23980875388E+03  0.26581263515E+03  0.80573359142E+02 0.  0.
        -13    1    5    5    0    0 -0.42432682478E+02  0.39167171071E+01  0.10403800269E+03  0.11242677269E+03  0.00000000000E+00 0.  1.
         14    1    5    5    0    0  0.95141375795E+01  0.70731938397E+02  0.13577075119E+03  0.15338586246E+03  0.00000000000E+00 0. -1.
         13    1    3    3    0    0 -0.46747960502E+02 -0.91628951818E+02 -0.64202032123E+03  0.65020868150E+03  0.00000000000E+00 0. -1.
        -14    1    3    3    0    0  0.69277320254E+01  0.11290996009E+02 -0.29090749825E+03  0.29120895007E+03  0.00000000000E+00 0.  1.
          5    1    4    4  501    0 -0.26740851068E+02  0.99695779093E+01 -0.19718268576E+03  0.19928108180E+03  0.41800000000E+01 0.  1.
         -5    1    4    4    0  501  0.99479624444E+02 -0.42802776041E+01 -0.19942481655E+03  0.22294000608E+03  0.41800000000E+01 0.  1.
</event>
<event>
11    1  0.7882745E-009  0.1517375E+03  0.7561462E-02  0.1095117E+00
         22   -1    0    0    0    0  0.00000000000E+00  0.00000000000E+00  0.25579576958E+03  0.25579576958E+03  0.00000000000E+00 0.  1.
         22   -1    0    0    0    0 -0.00000000000E+00 -0.00000000000E+00 -0.10399451598E+04  0.10399451598E+04  0.00000000000E+00 0. -1.
        -24    2    1    2    0    0  0.78524482400E+02  0.31759531259E+02 -0.94911247333E+03  0.95670538042E+03  0.85416249882E+02 0.  0.
         25    2    1    2    0    0 -0.13955027135E+03 -0.62681673035E+00  0.80603460361E+02  0.20401043814E+03  0.12509464382E+03 0.  0.
         24    2    1    2    0    0  0.61025788955E+02 -0.31132714529E+02  0.84359622732E+02  0.13502511082E+03  0.80136394814E+02 0.  0.
        -11    1    5    5    0    0  0.22269863522E+02  0.12292434914E+02  0.70843506513E+02  0.75271861890E+02  0.00000000000E+00 0.  1.
         12    1    5    5    0    0  0.38755925433E+02 -0.43425149444E+02  0.13516116220E+02  0.59753248933E+02  0.00000000000E+00 0. -1.
         13    1    3    3    0    0  0.44463632087E+01  0.27782895025E+02 -0.55241100787E+03  0.55312709300E+03  0.00000000000E+00 0. -1.
        -14    1    3    3    0    0  0.74078119191E+02  0.39766362346E+01 -0.39670146546E+03  0.40357828742E+03  0.00000000000E+00 0.  1.
          5    1    4    4  501    0 -0.12496913694E+03  0.12154771926E+02  0.11104897215E+03  0.16767340363E+03  0.41800000000E+01 0. -1.
         -5    1    4    4    0  501 -0.14581134412E+02 -0.12781588656E+02 -0.30445511785E+02  0.36337034513E+02  0.41800000000E+01 0. -1.
</event>
<event>
11    1  0.7882745E-009  0.1377865E+03  0.7561462E-02  0.1110056E+00
         22   -1    0    0    0    0  0.00000000000E+00  0.00000000000E+00  0.34401382862E+03  0.34401382862E+03  0.00000000000E+00 0. -1.
         22   -1    0    0    0    0 -0.00000000000E+00 -0.00000000000E+00 -0.74718761257E+03  0.74718761257E+03  0.00000000000E+00 0.  1.
         24    2    1    2    0    0  0.48676364497E+02 -0.30341117425E+02 -0.63961701641E+03  0.64633250398E+03  0.73115019975E+02 0.  0.
         25    2    1    2    0    0 -0.67265083474E+02  0.12519991033E+02 -0.45976930257E+02  0.14981220287E+03  0.12509387029E+03 0.  0.
        -24    2    1    2    0    0  0.18588718977E+02  0.17821126392E+02  0.28242016272E+03  0.29505673434E+03  0.81450568748E+02 0.  0.
        -13    1    3    3    0    0  0.29499271414E+02  0.19722318639E+02 -0.35009838592E+03  0.35189210945E+03  0.00000000000E+00 0.  1.
         14    1    3    3    0    0  0.19177093083E+02 -0.50063436063E+02 -0.28951863049E+03  0.29444039453E+03  0.00000000000E+00 0. -1.
         11    1    5    5    0    0  0.27288544071E+02  0.17651901123E+02  0.28430241657E+03  0.28615401153E+03  0.00000000000E+00 0. -1.
        -12    1    5    5    0    0 -0.86998250941E+01  0.16922526869E+00 -0.18822538454E+01  0.89027228081E+01  0.00000000000E+00 0.  1.
          5    1    4    4  501    0  0.16715633996E+02 -0.19706237516E+02 -0.53386994798E+02  0.59459161031E+02  0.41800000000E+01 0.  1.
         -5    1    4    4    0  501 -0.83980717471E+02  0.32226228549E+02  0.74100645414E+01  0.90353041841E+02  0.41800000000E+01 0.  1.
</event>
<event>
11    1  0.7882745E-009  0.1337139E+03  0.7561462E-02  0.1114788E+00
         22   -1    0    0    0    0  0.00000000000E+00  0.00000000000E+00  0.14372005849E+04  0.14372005849E+04  0.00000000000E+00 0. -1.
         22   -1    0    0    0    0 -0.00000000000E+00 -0.00000000000E+00 -0.70843883793E+03  0.70843883793E+03  0.00000000000E+00 0.  1.
        -24    2    1    2    0    0  0.11098216667E+02 -0.13230403906E+02 -0.63860669276E+03  0.64391700862E+03  0.80699392461E+02 0.  0.
         25    2    1    2    0    0  0.54307069549E+01  0.57285053782E+02  0.64634707623E+01  0.13784193405E+03  0.12509017693E+03 0.  0.
         24    2    1    2    0    0 -0.16528923622E+02 -0.44054649876E+02  0.13609049690E+04  0.13638804802E+04  0.76769864589E+02 0.  0.
        -13    1    5    5    0    0  0.86770099013E+01 -0.56178507573E+02  0.66910501115E+03  0.67151532459E+03  0.00000000000E+00 0.  1.
         14    1    5    5    0    0 -0.25205933523E+02  0.12123857697E+02  0.69179995784E+03  0.69236515559E+03  0.00000000000E+00 0. -1.
         11    1    3    3    0    0  0.21809240863E+02  0.30465122600E+02 -0.30345974529E+03  0.30576393458E+03  0.00000000000E+00 0. -1.
        -12    1    3    3    0    0 -0.10711024197E+02 -0.43695526506E+02 -0.33514694747E+03  0.33815307403E+03  0.00000000000E+00 0.  1.
          5    1    4    4  501    0  0.17102118054E+01  0.25479168352E+02 -0.59232209536E+02  0.64637759018E+02  0.41800000000E+01 0.  1.
         -5    1    4    4    0  501  0.37204951495E+01  0.31805885429E+02  0.65695680299E+02  0.73204175031E+02  0.41800000000E+01 0.  1.
</event>
<event>
11    1  0.7882745E-009  0.1460586E+03  0.7561462E-02  0.1100975E+00
         22   -1    0    0    0    0  0.00000000000E+00  0.00000000000E+00  0.41044310428E+03  0.41044310428E+03  0.00000000000E+00 0. -1.
         22   -1    0    0    0    0 -0.00000000000E+00 -0.00000000000E+00 -0.28129673741E+03  0.28129673741E+03  0.00000000000E+00 0.  1.
        -24    2    1    2    0    0  0.61398965365E+02 -0.61112434561E+02 -0.15605647837E+03  0.19594047874E+03  0.80836156278E+02 0.  0.
         25    2    1    2    0    0 -0.40502701732E+02  0.29558716205E+02 -0.53444690514E+02  0.14497061268E+03  0.12508380009E+03 0.  0.
         24    2    1    2    0    0 -0.20896263633E+02  0.31553718356E+02  0.33864753576E+03  0.35082875027E+03  0.83464768420E+02 0.  0.
        -13    1    5    5    0    0 -0.28686836053E+02 -0.22605249868E+02  0.15199778483E+03  0.15632420951E+03  0.00000000000E+00 0.  1.
         14    1    5    5    0    0  0.77905724196E+01  0.54158968225E+02  0.18664975093E+03  0.19450454077E+03  0.00000000000E+00 0. -1.
         13    1    3    3    0    0  0.54845196056E+02 -0.20730435467E+02 -0.35291323021E+02  0.68434084824E+02  0.00000000000E+00 0. -1.
        -14    1    3    3    0    0  0.65537693086E+01 -0.40381999094E+02 -0.12076515535E+03  0.12750639392E+03  0.00000000000E+00 0.  1.
          5    1    4    4  501    0  0.30576615128E+02  0.24451481305E+02 -0.61613421792E+02  0.73119699642E+02  0.41800000000E+01 0. -1.
         -5    1    4    4    0  501 -0.71079316860E+02  0.51072348998E+01  0.81687312788E+01  0.71850913038E+02  0.41800000000E+01 0. -1.
</event>
<event>
11    1  0.7882745E-009  0.1379524E+03  0.7561462E-02  0.1109867E+00
         22   -1    0    0    0    0  0.00000000000E+00  0.00000000000E+00  0.45826980038E+02  0.45826980038E+02  0.00000000000E+00 0.  1.
         22   -1    0    0    0    0 -0.00000000000E+00 -0.00000000000E+00 -0.38869748751E+04  0.38869748751E+04  0.00000000000E+00 0. -1.
         24    2    1    2    0    0 -0.56001346147E+02  0.89488186211E+01 -0.34582334785E+04  0.34596306652E+04  0.80307629498E+02 0.  0.
         25    2    1    2    0    0  0.92565917299E+02 -0.14110212958E+02 -0.34024848006E+03  0.37441231530E+03  0.12509199218E+03 0.  0.
        -24    2    1    2    0    0 -0.36564571151E+02  0.51613943366E+01 -0.42665936461E+02  0.98758874642E+02  0.81051374643E+02 0.  0.
        -11    1    3    3    0    0 -0.41517416138E+02 -0.11431409108E+02 -0.72205542853E+03  0.72333838197E+03  0.00000000000E+00 0.  1.
         12    1    3    3    0    0 -0.14483930009E+02  0.20380227729E+02 -0.27361780500E+04  0.27362922832E+04  0.00000000000E+00 0. -1.
         11    1    5    5    0    0 -0.44086285634E+02 -0.72450768303E+01 -0.60853529971E+02  0.75493336323E+02  0.00000000000E+00 0. -1.
        -12    1    5    5    0    0  0.75217144828E+01  0.12406471167E+02  0.18187593510E+02  0.23265538319E+02  0.00000000000E+00 0.  1.
          5    1    4    4  501    0  0.36181277068E+02 -0.65233591635E+02 -0.12011637820E+03  0.14145643499E+03  0.41800000000E+01 0. -1.
         -5    1    4    4    0  501  0.56384640231E+02  0.51123378677E+02 -0.22013210186E+03  0.23295588031E+03  0.41800000000E+01 0. -1.
</event>
<event>
11    1  0.7882745E-009  0.1709223E+03  0.7561462E-02  0.1077232E+00
         22   -1    0    0    0    0  0.00000000000E+00  0.00000000000E+00  0.14587493674E+03  0.14587493674E+03  0.00000000000E+00 0.  1.
         22   -1    0    0    0    0 -0.00000000000E+00 -0.00000000000E+00 -0.12664941833E+04  0.12664941833E+04  0.00000000000E+00 0. -1.
        -24    2    1    2    0    0 -0.35339746847E+02 -0.12797780202E+03 -0.98759615252E+03  0.99957802804E+03  0.78631152641E+02 0.  0.
         25    2    1    2    0    0  0.23657440293E+01  0.64002796886E+02 -0.22909641988E+03  0.26876536516E+03  0.12509075568E+03 0.  0.
         24    2    1    2    0    0  0.32974002818E+02  0.63975005134E+02  0.96073325867E+02  0.14402572680E+03  0.79581655508E+02 0.  0.
        -13    1    5    5    0    0  0.49977836115E+02  0.56842277530E+02  0.99758173957E+02  0.12522189061E+03  0.00000000000E+00 0.  1.
         14    1    5    5    0    0 -0.17003833297E+02  0.71327276031E+01 -0.36848480901E+01  0.18803836186E+02  0.00000000000E+00 0. -1.
         13    1    3    3    0    0 -0.23194858693E+02 -0.94087664069E+02 -0.42835583487E+03  0.43918015810E+03  0.00000000000E+00 0. -1.
        -14    1    3    3    0    0 -0.12144888154E+02 -0.33890137951E+02 -0.55924031765E+03  0.56039786995E+03  0.00000000000E+00 0.  1.
          5    1    4    4  501    0 -0.13531052359E+00  0.10206746850E+03 -0.16756734560E+03  0.19625002968E+03  0.41800000000E+01 0.  1.
         -5    1    4    4    0  501  0.25010545529E+01 -0.38064671618E+02 -0.61529074273E+02  0.72515335483E+02  0.41800000000E+01 0.  1.
</event>
<event>
11    1  0.7882745E-009  0.2494476E+03  0.7561462E-02  0.1024194E+00
         22   -1    0    0    0    0  0.00000000000E+00  0.00000000000E+00  0.17678911196E+04  0.17678911196E+04  0.00000000000E+00 0.  1.
         22   -1    0    0    0    0 -0.00000000000E+00 -0.00000000000E+00 -0.70415175720E+03  0.70415175720E+03  0.00000000000E+00 0. -1.
         24    2    1    2    0    0  0.64583480749E+01  0.42158022932E+02 -0.56720543860E+03  0.57435932342E+03  0.79671912643E+02 0.  0.
         25    2    1    2    0    0  0.55260359306E+01  0.17589931965E+03 -0.32264733290E+02  0.21831235815E+03  0.12509262561E+03 0.  0.
        -24    2    1    2    0    0 -0.11984384005E+02 -0.21805734258E+03  0.16632095343E+04  0.16793711952E+04  0.79555177489E+02 0.  0.
        -11    1    3    3    0    0 -0.33107602915E+02  0.31923489937E+02 -0.21992860200E+03  0.22468603107E+03  0.00000000000E+00 0.  1.
         12    1    3    3    0    0  0.39565950990E+02  0.10234532995E+02 -0.34727683660E+03  0.34967329235E+03  0.00000000000E+00 0. -1.
         11    1    5    5    0    0  0.15004804279E+02 -0.12869220747E+03  0.72103930527E+03  0.73258754300E+03  0.00000000000E+00 0. -1.
        -12    1    5    5    0    0 -0.26989188284E+02 -0.89365135114E+02  0.94217022904E+03  0.94678365224E+03  0.00000000000E+00 0.  1.
          5    1    4    4  501    0  0.81112927157E+01 -0.12093174021E+02 -0.26071713743E+02  0.30153682775E+02  0.41800000000E+01 0.  1.
         -5    1    4    4    0  501 -0.25852567851E+01  0.18799249367E+03 -0.61930195469E+01  0.18815867538E+03  0.41800000000E+01 0.  1.
</event>
<event>
11    1  0.7882745E-009  0.1343291E+03  0.7561462E-02  0.1114061E+00
         22   -1    0    0    0    0  0.00000000000E+00  0.00000000000E+00  0.25457199369E+04  0.25457199369E+04  0.00000000000E+00 0.  1.
         22   -1    0    0    0    0 -0.00000000000E+00 -0.00000000000E+00 -0.38844878842E+03  0.38844878842E+03  0.00000000000E+00 0. -1.
        -24    2    1    2    0    0  0.19625866677E+02  0.44879503358E+02 -0.37444151644E+03  0.38623594671E+03  0.81070418965E+02 0.  0.
         25    2    1    2    0    0  0.27647558797E+01 -0.47931672265E+02  0.61293555980E+03  0.62741190120E+03  0.12510237495E+03 0.  0.
         24    2    1    2    0    0 -0.22390622557E+02  0.30521689072E+01  0.19187771051E+04  0.19205208774E+04  0.78639721052E+02 0.  0.
        -13    1    5    5    0    0 -0.49219308967E+02  0.37710596485E+01  0.15415975630E+04  0.15423876969E+04  0.00000000000E+00 0.  1.
         14    1    5    5    0    0  0.26828686410E+02 -0.71889074138E+00  0.37717954210E+03  0.37813318051E+03  0.00000000000E+00 0. -1.
         13    1    3    3    0    0  0.61531586639E+01  0.67000159161E+02 -0.23652367309E+03  0.24590715854E+03  0.00000000000E+00 0. -1.
        -14    1    3    3    0    0  0.13472708013E+02 -0.22120655803E+02 -0.13791784336E+03  0.14032878818E+03  0.00000000000E+00 0.  1.
          5    1    4    4  501    0  0.95664676815E+01  0.39604567321E+02  0.28384049485E+03  0.28678029565E+03  0.41800000000E+01 0. -1.
         -5    1    4    4    0  501 -0.68017118018E+01 -0.87536239586E+02  0.32909506495E+03  0.34063160555E+03  0.41800000000E+01 0. -1.
</event>
<event>
11    1  0.7882745E-009  0.1337113E+03  0.7561462E-02  0.1114791E+00
         22   -1    0    0    0    0  0.00000000000E+00  0.00000000000E+00  0.33316533345E+04  0.33316533345E+04  0.00000000000E+00 0.  1.
         22   -1    0    0    0    0 -0.00000000000E+00 -0.00000000000E+00 -0.90086059658E+03  0.90086059658E+03  0.00000000000E+00 0. -1.
         24    2    1    2    0    0  0.45339370377E+02 -0.10014786031E+02 -0.83989211333E+03  0.84489303751E+03  0.79180353248E+02 0.  0.
         25    2    1    2    0    0 -0.77310213901E+02  0.88138957090E+01  0.35858965491E+02  0.15161719990E+03  0.12508939191E+03 0.  0.
        -24    2    1    2    0    0  0.31970843524E+02  0.12008903223E+01  0.32348258857E+04  0.32360036936E+04  0.81226949443E+02 0.  0.
        -13    1    3    3    0    0  0.29182305994E+02 -0.39586957503E+02 -0.30492641521E+03  0.30886704725E+03  0.00000000000E+00 0.  1.
         14    1    3    3    0    0  0.16157064383E+02  0.29572171472E+02 -0.53496569813E+03  0.53602599025E+03  0.00000000000E+00 0. -1.
         13    1    5    5    0    0 -0.10545202790E+02  0.32534063364E+02  0.14014419655E+04  0.14018592116E+04  0.00000000000E+00 0. -1.
        -14    1    5    5    0    0  0.42516046314E+02 -0.31333173042E+02  0.18333839202E+04  0.18341444820E+04  0.00000000000E+00 0.  1.
          5    1    4    4  501    0 -0.99921900203E+02  0.15807838616E+02 -0.80396342649E+01  0.10156959201E+03  0.41800000000E+01 0. -1.
         -5    1    4    4    0  501  0.22611686302E+02 -0.69939429075E+01  0.43898599756E+02  0.50047607889E+02  0.41800000000E+01 0. -1.
</event>
<event>
11    1  0.7882745E-009  0.1559391E+03  0.7561462E-02  0.1090960E+00
         22   -1    0    0    0    0  0.00000000000E+00  0.00000000000E+00  0.93317358742E+03  0.93317358742E+03  0.00000000000E+00 0.  1.
         22   -1    0    0    0    0 -0.00000000000E+00 -0.00000000000E+00 -0.45757238096E+03  0.45757238096E+03  0.00000000000E+00 0.  1.
         24    2    1    2    0    0 -0.11291397220E+02 -0.11879271790E+02 -0.37126321625E+03  0.38037780847E+03  0.81131305243E+02 0.  0.
         25    2    1    2    0    0 -0.81368488955E+02 -0.28284891959E+01 -0.52176000799E+01  0.14934401677E+03  0.12509028999E+03 0.  0.
        -24    2    1    2    0    0  0.92659886176E+02  0.14707760986E+02  0.85208202279E+03  0.86102414314E+03  0.80725638809E+02 0.  0.
        -13    1    3    3    0    0 -0.22583308343E+02  0.13792046432E+02 -0.32639425716E+03  0.32746516985E+03  0.00000000000E+00 0.  1.
         14    1    3    3    0    0  0.11291911123E+02 -0.25671318222E+02 -0.44868959091E+02  0.52912638622E+02  0.00000000000E+00 0. -1.
         13    1    5    5    0    0  0.26150749595E+02 -0.30688839018E+02  0.37889958618E+03  0.38103879455E+03  0.00000000000E+00 0. -1.
        -14    1    5    5    0    0  0.66509136581E+02  0.45396600004E+02  0.47318243661E+03  0.47998534858E+03  0.00000000000E+00 0.  1.
          5    1    4    4  501    0 -0.11292049364E+03  0.12829547107E+02 -0.57524412476E+01  0.11386921508E+03  0.41800000000E+01 0.  1.
         -5    1    4    4    0  501  0.31552004680E+02 -0.15658036303E+02  0.53484116768E+00  0.35474801695E+02  0.41800000000E+01 0.  1.
</event>
<event>
11    1  0.7882745E-009  0.1698547E+03  0.7561462E-02  0.1078158E+00
         22   -1    0    0    0    0  0.00000000000E+00  0.00000000000E+00  0.34741443370E+04  0.34741443370E+04  0.00000000000E+00 0.  1.
         22   -1    0    0    0    0 -0.00000000000E+00 -0.00000000000E+00 -0.80352358452E+02  0.80352358452E+02  0.00000000000E+00 0.  1.
        -24    2    1    2    0    0  0.44165499865E+02 -0.30800399574E+02  0.97383034184E+01  0.97082169236E+02  0.80192624584E+02 0.  0.
         25    2    1    2    0    0 -0.10593808215E+03 -0.66172264924E+02  0.18732140481E+03  0.25756317106E+03  0.12509129662E+03 0.  0.
         24    2    1    2    0    0  0.61772582286E+02  0.96972664498E+02  0.31967322704E+04  0.31998513552E+04  0.82048384744E+02 0.  0.
        -11    1    5    5    0    0  0.22248820534E+02  0.44598566103E+02  0.23684321002E+04  0.23689564486E+04  0.00000000000E+00 0.  1.
         12    1    5    5    0    0  0.39523761751E+02  0.52374098395E+02  0.82830017014E+03  0.83089490658E+03  0.00000000000E+00 0. -1.
         11    1    3    3    0    0 -0.19475146662E+02 -0.32962418345E+01  0.18670197658E+02  0.27179455997E+02  0.00000000000E+00 0. -1.
        -12    1    3    3    0    0  0.63640646527E+02 -0.27504157740E+02 -0.89318942393E+01  0.69902713238E+02  0.00000000000E+00 0.  1.
          5    1    4    4  501    0  0.17050979446E+02 -0.19413704447E+02 -0.27892229253E+01  0.26322613566E+02  0.41800000000E+01 0. -1.
         -5    1    4    4    0  501 -0.12298906160E+03 -0.46758560477E+02  0.19011062774E+03  0.23124055749E+03  0.41800000000E+01 0. -1.
</event>
<event>
11    1  0.7882745E-009  0.1620688E+03  0.7561462E-02  0.1085147E+00
         22   -1    0    0    0    0  0.00000000000E+00  0.00000000000E+00  0.32207785462E+03  0.32207785462E+03  0.00000000000E+00 0. -1.
         22   -1    0    0    0    0 -0.00000000000E+00 -0.00000000000E+00 -0.51397400982E+03  0.51397400982E+03  0.00000000000E+00 0. -1.
         24    2    1    2    0    0  0.44557109075E+02 -0.28975388749E+02 -0.40654198577E+03  0.41804279145E+03  0.81599510800E+02 0.  0.
         25    2    1    2    0    0  0.50037849558E+02  0.79873685979E+02 -0.87071215721E+01  0.15686819734E+03  0.12509286658E+03 0.  0.
        -24    2    1    2    0    0 -0.94594958634E+02 -0.50898297230E+02  0.22335295214E+03  0.26114087565E+03  0.82274983111E+02 0.  0.
        -13    1    3    3    0    0  0.42474964200E+02 -0.53485804636E+02 -0.34631975297E+03  0.35299040381E+03  0.00000000000E+00 0.  1.
         14    1    3    3    0    0  0.20821448757E+01  0.24510415886E+02 -0.60222232801E+02  0.65052387641E+02  0.00000000000E+00 0. -1.
         11    1    5    5    0    0 -0.10523547817E+03 -0.34331606660E+02  0.20988304040E+03  0.23728475663E+03  0.00000000000E+00 0. -1.
        -12    1    5    5    0    0  0.10640519537E+02 -0.16566690570E+02  0.13469911743E+02  0.23856119022E+02  0.00000000000E+00 0.  1.
          5    1    4    4  501    0  0.17789814617E+02  0.17304287554E+01  0.50396514329E+02  0.53635370273E+02  0.41800000000E+01 0.  1.
         -5    1    4    4    0  501  0.32248034942E+02  0.78143257224E+02 -0.59103635901E+02  0.10323282707E+03  0.41800000000E+01 0.  1.
</event>
<event>
11    1  0.7882745E-009  0.1422413E+03  0.7561462E-02  0.1105081E+00
         22   -1    0    0    0    0  0.00000000000E+00  0.00000000000E+00  0.78270609339E+02  0.78270609339E+02  0.00000000000E+00 0.  1.
         22   -1    0    0    0    0 -0.00000000000E+00 -0.00000000000E+00 -0.27778211970E+04  0.27778211970E+04  0.00000000000E+00 0.  1.
         24    2    1    2    0    0  0.33268305806E+01 -0.59954502497E+02 -0.23717029094E+04  0.23738148197E+04  0.80103044861E+02 0.  0.
         25    2    1    2    0    0  0.57850379087E+02  0.83176396442E+02 -0.34283651239E+03  0.37874742764E+03  0.12509100861E+03 0.  0.
        -24    2    1    2    0    0 -0.61177209668E+02 -0.23221893944E+02  0.14988834095E+02  0.10352955899E+03  0.78814954770E+02 0.  0.
        -13    1    3    3    0    0 -0.11693273955E+02 -0.70553599097E+02 -0.21936446843E+04  0.21948101384E+04  0.00000000000E+00 0.  1.
         14    1    3    3    0    0  0.15020104536E+02  0.10599096600E+02 -0.17805822510E+03  0.17900468126E+03  0.00000000000E+00 0. -1.
         13    1    5    5    0    0 -0.31583206020E+01 -0.32763194615E+02 -0.16512217653E+02  0.36824655358E+02  0.00000000000E+00 0. -1.
        -14    1    5    5    0    0 -0.58018889066E+02  0.95413006710E+01  0.31501051748E+02  0.66704903629E+02  0.00000000000E+00 0.  1.
          5    1    4    4  501    0 -0.15806108060E+02  0.12527191426E+02  0.43365244668E+00  0.20601554103E+02  0.41800000000E+01 0.  1.
         -5    1    4    4    0  501  0.73656487147E+02  0.70649205016E+02 -0.34327016483E+03  0.35814587354E+03  0.41800000000E+01 0.  1.
</event>
<event>
11    1  0.7882745E-009  0.1480014E+03  0.7561462E-02  0.1098939E+00
         22   -1    0    0    0    0  0.00000000000E+00  0.00000000000E+00  0.80602048699E+03  0.80602048699E+03  0.00000000000E+00 0.  1.
         22   -1    0    0    0    0 -0.00000000000E+00 -0.00000000000E+00 -0.86901198397E+02  0.86901198397E+02  0.00000000000E+00 0.  1.
         24    2    1    2    0    0 -0.19949941331E+01  0.86423118049E+02 -0.18265306561E+02  0.11876042849E+03  0.79356679727E+02 0.  0.
         25    2    1    2    0    0 -0.34059504962E+01 -0.38230714332E+02  0.26445458907E+03  0.29505591265E+03  0.12509426004E+03 0.  0.
        -24    2    1    2    0    0  0.54009446293E+01 -0.48192403717E+02  0.47293000609E+03  0.47910534425E+03  0.59392442665E+02 0.  0.
        -11    1    3    3    0    0 -0.25931398690E+01  0.10027842992E+03 -0.64117063126E+01  0.10051665464E+03  0.00000000000E+00 0.  1.
         12    1    3    3    0    0  0.59814573597E+00 -0.13855311876E+02 -0.11853600248E+02  0.18243773852E+02  0.00000000000E+00 0. -1.
         13    1    5    5    0    0 -0.58531789672E+01  0.51727674214E+00  0.31390962458E+01  0.66619219817E+01  0.00000000000E+00 0. -1.
        -14    1    5    5    0    0  0.11254123597E+02 -0.48709680459E+02  0.46979090985E+03  0.47244342227E+03  0.00000000000E+00 0.  1.
          5    1    4    4  501    0  0.38343042048E+02  0.10209350429E+02  0.24793376687E+02  0.46974499862E+02  0.41800000000E+01 0. -1.
         -5    1    4    4    0  501 -0.41748992545E+02 -0.48440064760E+02  0.23966121238E+03  0.24808141279E+03  0.41800000000E+01 0. -1.
</event>
<event>
11    1  0.7882745E-009  0.1458283E+03  0.7561462E-02  0.1101219E+00
         22   -1    0    0    0    0  0.00000000000E+00  0.00000000000E+00  0.12314791687E+04  0.12314791687E+04  0.00000000000E+00 0. -1.
         22   -1    0    0    0    0 -0.00000000000E+00 -0.00000000000E+00 -0.95874340985E+02  0.95874340985E+02  0.00000000000E+00 0.  1.
        -24    2    1    2    0    0 -0.21058245078E+02 -0.65606939576E+02 -0.95983982888E+01  0.10631325145E+03  0.80390658526E+02 0.  0.
         25    2    1    2    0    0  0.51021863085E+02  0.84731102934E+02  0.14018094800E+03  0.21232272862E+03  0.12509057753E+03 0.  0.
         24    2    1    2    0    0 -0.29963618007E+02 -0.19124163358E+02  0.10050222780E+04  0.10087175297E+04  0.78598493929E+02 0.  0.
        -13    1    5    5    0    0 -0.23173756953E+01 -0.51134963689E+01  0.32924229288E+01  0.65083119140E+01  0.00000000000E+00 0.  1.
         14    1    5    5    0    0 -0.27646242312E+02 -0.14010666989E+02  0.10017298551E+04  0.10022092177E+04  0.00000000000E+00 0. -1.
         13    1    3    3    0    0 -0.10591330903E+01 -0.15142647464E+02  0.33645463614E+02  0.36911228060E+02  0.00000000000E+00 0. -1.
        -14    1    3    3    0    0 -0.19999111987E+02 -0.50464292112E+02 -0.43243861902E+02  0.69402023392E+02  0.00000000000E+00 0.  1.
          5    1    4    4  501    0  0.82619440000E+02  0.18452071760E+02  0.62199707811E+02  0.10513194981E+03  0.41800000000E+01 0.  1.
         -5    1    4    4    0  501 -0.31597576915E+02  0.66279031174E+02  0.77981240191E+02  0.10719077881E+03  0.41800000000E+01 0.  1.
</event>
<event>
11    1  0.7882745E-009  0.2520783E+03  0.7561462E-02  0.1022798E+00
         22   -1    0    0    0    0  0.00000000000E+00  0.00000000000E+00  0.16890693348E+04  0.16890693348E+04  0.00000000000E+00 0. -1.
         22   -1    0    0    0    0 -0.00000000000E+00 -0.00000000000E+00 -0.90113616999E+03  0.90113616999E+03  0.00000000000E+00 0. -1.
         24    2    1    2    0    0 -0.29598738151E+02  0.93702869316E+02 -0.55625683288E+03  0.57054985226E+03  0.80306642118E+02 0.  0.
         25    2    1    2    0    0  0.17718939576E+03 -0.25228749861E+03 -0.24529637986E+03  0.41335643943E+03  0.12509263818E+03 0.  0.
        -24    2    1    2    0    0 -0.14759065761E+03  0.15858462929E+03  0.15894863776E+04  0.16062992131E+04  0.82450777495E+02 0.  0.
        -11    1    3    3    0    0 -0.39065758633E+02  0.66217511204E+02 -0.22015698104E+03  0.23319517274E+03  0.00000000000E+00 0.  1.
         12    1    3    3    0    0  0.94670204823E+01  0.27485358111E+02 -0.33609985184E+03  0.33735467952E+03  0.00000000000E+00 0. -1.
         13    1    5    5    0    0 -0.72534693229E+02  0.21927978078E+02  0.49697122978E+03  0.50271514914E+03  0.00000000000E+00 0. -1.
        -14    1    5    5    0    0 -0.75055964379E+02  0.13665665121E+03  0.10925151478E+04  0.11035840640E+04  0.00000000000E+00 0.  1.
          5    1    4    4  501    0 -0.64031582430E+01  0.99411499105E+01 -0.82583096285E+01  0.15016623287E+02  0.41800000000E+01 0.  1.
         -5    1    4    4    0  501  0.18359255400E+03 -0.26222864852E+03 -0.23703807023E+03  0.39833981614E+03  0.41800000000E+01 0.  1.
</event>
<event>
11    1  0.7882745E-009  0.1504491E+03  0.7561462E-02  0.1096421E+00
         22   -1    0    0    0    0  0.00000000000E+00  0.00000000000E+00  0.15849386635E+04  0.15849386635E+04  0.00000000000E+00 0.  1.
         22   -1    0    0    0    0 -0.00000000000E+00 -0.00000000000E+00 -0.17802842031E+03  0.17802842031E+03  0.00000000000E+00 0.  1.
         24    2    1    2    0    0  0.36666065761E+02 -0.63751639549E+02 -0.11235118626E+03  0.15356733313E+03  0.74508152753E+02 0.  0.
         25    2    1    2    0    0  0.16687770913E+02 -0.55868130827E+01  0.50886860259E+02  0.13619117340E+03  0.12509543951E+03 0.  0.
        -24    2    1    2    0    0 -0.53353836673E+02  0.69338452631E+02  0.14683745691E+04  0.14732085772E+04  0.81025821926E+02 0.  0.
        -11    1    3    3    0    0  0.55329985749E+02 -0.53100512909E+02 -0.61298321659E+02  0.98176147981E+02  0.00000000000E+00 0.  1.
         12    1    3    3    0    0 -0.18663919989E+02 -0.10651126639E+02 -0.51052864601E+02  0.55391185147E+02  0.00000000000E+00 0. -1.
         11    1    5    5    0    0 -0.71096840544E+01  0.23579239596E+00  0.90217186061E+01  0.11488890809E+02  0.00000000000E+00 0. -1.
        -12    1    5    5    0    0 -0.46244152619E+02  0.69102660235E+02  0.14593528505E+04  0.14617196864E+04  0.00000000000E+00 0.  1.
          5    1    4    4  501    0 -0.10338169251E+02  0.55525189055E+02  0.93481492580E+01  0.57400214787E+02  0.41800000000E+01 0. -1.
         -5    1    4    4    0  501  0.27025940163E+02 -0.61112002138E+02  0.41538711001E+02  0.78790958610E+02  0.41800000000E+01 0. -1.
</event>
<event>
11    1  0.7882745E-009  0.1714840E+03  0.7561462E-02  0.1076747E+00
         22   -1    0    0    0    0  0.00000000000E+00  0.00000000000E+00  0.13162791976E+04  0.13162791976E+04  0.00000000000E+00 0. -1.
         22   -1    0    0    0    0 -0.00000000000E+00 -0.00000000000E+00 -0.38433016468E+03  0.38433016468E+03  0.00000000000E+00 0.  1.
         24    2    1    2    0    0  0.59415109684E+02 -0.66553191020E+01 -0.35261176854E+03  0.36643482876E+03  0.79780798965E+02 0.  0.
         25    2    1    2    0    0  0.42482231746E+02 -0.72805096736E+02  0.28229737245E+03  0.32007086917E+03  0.12509289618E+03 0.  0.
        -24    2    1    2    0    0 -0.10189734143E+03  0.79460415838E+02  0.10022634290E+04  0.10141036644E+04  0.84718563623E+02 0.  0.
        -13    1    3    3    0    0  0.50539602564E+02 -0.38930914376E+02 -0.26690274326E+03  0.27442110320E+03  0.00000000000E+00 0.  1.
         14    1    3    3    0    0  0.88755071200E+01  0.32275595274E+02 -0.85709025285E+02  0.92013725564E+02  0.00000000000E+00 0. -1.
         13    1    5    5    0    0 -0.10344258392E+03  0.93490148729E+02  0.87186617952E+03  0.88294473840E+03  0.00000000000E+00 0. -1.
        -14    1    5    5    0    0  0.15452424878E+01 -0.14029732891E+02  0.13039724952E+03  0.13115892597E+03  0.00000000000E+00 0.  1.
          5    1    4    4  501    0  0.59667973846E+02 -0.16725744244E+02  0.47966236222E+02  0.78474517143E+02  0.41800000000E+01 0.  1.
         -5    1    4    4    0  501 -0.17185742100E+02 -0.56079352492E+02  0.23433113623E+03  0.24159635203E+03  0.41800000000E+01 0.  1.
</event>
<event>
11    1  0.7882745E-009  0.1281442E+03  0.7561462E-02  0.1121570E+00
         22   -1    0    0    0    0  0.00000000000E+00  0.00000000000E+00  0.72682183236E+03  0.72682183236E+03  0.00000000000E+00 0. -1.
         22   -1    0    0    0    0 -0.00000000000E+00 -0.00000000000E+00 -0.95729342631E+02  0.95729342631E+02  0.00000000000E+00 0.  1.
         24    2    1    2    0    0  0.24736338156E+02  0.14870680754E+02 -0.54604310856E+02  0.10131673824E+03  0.80314551056E+02 0.  0.
         25    2    1    2    0    0 -0.10023516944E+02 -0.12049364260E+02  0.27663555453E+03  0.30400658040E+03  0.12508842003E+03 0.  0.
        -24    2    1    2    0    0 -0.14712821212E+02 -0.28213164942E+01  0.40906124606E+03  0.41722785636E+03  0.80768522079E+02 0.  0.
        -11    1    3    3    0    0  0.12823266237E+02  0.17563857260E+02 -0.74699681361E+02  0.77800820267E+02  0.00000000000E+00 0.  1.
         12    1    3    3    0    0  0.11913071919E+02 -0.26931765058E+01  0.20095370505E+02  0.23515917969E+02  0.00000000000E+00 0. -1.
         11    1    5    5    0    0 -0.26210696132E+02 -0.36407566596E+02  0.27030574696E+03  0.27400311738E+03  0.00000000000E+00 0. -1.
        -12    1    5    5    0    0  0.11497874920E+02  0.33586250102E+02  0.13875549910E+03  0.14322473898E+03  0.00000000000E+00 0.  1.
          5    1    4    4  501    0  0.11262992708E+02 -0.64410647346E+02  0.11045183471E+03  0.12842377773E+03  0.41800000000E+01 0. -1.
         -5    1    4    4    0  501 -0.21286509652E+02  0.52361283086E+02  0.16618371982E+03  0.17558280267E+03  0.41800000000E+01 0. -1.
</event>
<event>
11    1  0.7882745E-009  0.1906881E+03  0.7561462E-02  0.1061311E+00
         22   -1    0    0    0    0  0.00000000000E+00  0.00000000000E+00  0.63287829863E+03  0.63287829863E+03  0.00000000000E+00 0. -1.
         22   -1    0    0    0    0 -0.00000000000E+00 -0.00000000000E+00 -0.15817989065E+03  0.15817989065E+03  0.00000000000E+00 0. -1.
         24    2    1    2    0    0 -0.14374640274E+03  0.28348921550E+02 -0.33326487280E+02  0.17031467981E+03  0.80185695419E+02 0.  0.
         25    2    1    2    0    0  0.97743171115E+02 -0.13877668379E+03  0.32665790097E+03  0.38879685172E+03  0.12507962335E+03 0.  0.
        -24    2    1    2    0    0  0.46003231624E+02  0.11042776224E+03  0.18136699429E+03  0.23194665775E+03  0.81207619283E+02 0.  0.
        -11    1    3    3    0    0 -0.80108076030E+01 -0.18978824208E+02 -0.14822432721E+02  0.25378599618E+02  0.00000000000E+00 0.  1.
         12    1    3    3    0    0 -0.13573559514E+03  0.47327745758E+02 -0.18504054559E+02  0.14493608019E+03  0.00000000000E+00 0. -1.
         11    1    5    5    0    0  0.52122597750E+02  0.10669157892E+03  0.18788133629E+03  0.22225943114E+03  0.00000000000E+00 0. -1.
        -12    1    5    5    0    0 -0.61193661264E+01  0.37361833181E+01 -0.65143419965E+01  0.96872266012E+01  0.00000000000E+00 0.  1.
          5    1    4    4  501    0  0.68807654273E+02 -0.32445527869E+02  0.22953179192E+03  0.24184606978E+03  0.41800000000E+01 0. -1.
         -5    1    4    4    0  501  0.28935516842E+02 -0.10633115592E+03  0.97126109046E+02  0.14695078194E+03  0.41800000000E+01 0. -1.
</event>
<event>
11    1  0.7882745E-009  0.1309243E+03  0.7561462E-02  0.1118139E+00
         22   -1    0    0    0    0  0.00000000000E+00  0.00000000000E+00  0.96058881394E+03  0.96058881394E+03  0.00000000000E+00 0. -1.
         22   -1    0    0    0    0 -0.00000000000E+00 -0.00000000000E+00 -0.89544227921E+03  0.89544227921E+03  0.00000000000E+00 0. -1.
        -24    2    1    2    0    0  0.29979396411E+02 -0.30392884865E+02 -0.87291646827E+03  0.87753263523E+03  0.79106723233E+02 0.  0.
         25    2    1    2    0    0 -0.31239724477E+02 -0.12275096292E+02  0.22548168976E+03  0.26002998017E+03  0.12508796823E+03 0.  0.
         24    2    1    2    0    0  0.12603280655E+01  0.42667981157E+02  0.71258131323E+03  0.71846847776E+03  0.81256879831E+02 0.  0.
        -13    1    5    5    0    0 -0.17909819344E+02 -0.16296456776E+02  0.10620081098E+03  0.10892634385E+03  0.00000000000E+00 0.  1.
         14    1    5    5    0    0  0.19170147410E+02  0.58964437933E+02  0.60638050226E+03  0.60954213391E+03  0.00000000000E+00 0. -1.
         13    1    3    3    0    0  0.23611868721E+02 -0.42883174746E+02 -0.84377747012E+03  0.84519637132E+03  0.00000000000E+00 0. -1.
        -14    1    3    3    0    0  0.63675276901E+01  0.12490289881E+02 -0.29138998151E+02  0.32336263907E+02  0.00000000000E+00 0.  1.
          5    1    4    4  501    0 -0.30991310380E+02  0.34899051234E+02  0.23220050924E+02  0.52297688869E+02  0.41800000000E+01 0.  1.
         -5    1    4    4    0  501 -0.24841409629E+00 -0.47174147526E+02  0.20226163884E+03  0.20773229130E+03  0.41800000000E+01 0.  1.
</event>
<event>
11    1  0.7882745E-009  0.1455944E+03  0.7561462E-02  0.1101467E+00
         22   -1    0    0    0    0  0.00000000000E+00  0.00000000000E+00  0.28648318299E+03  0.28648318299E+03  0.00000000000E+00 0.  1.
         22   -1    0    0    0    0 -0.00000000000E+00 -0.00000000000E+00 -0.76656549023E+03  0.76656549023E+03  0.00000000000E+00 0. -1.
         24    2    1    2    0    0  0.27977432573E+02 -0.65942509938E+02 -0.67129724159E+03  0.67998107682E+03  0.81259626588E+02 0.  0.
         25    2    1    2    0    0  0.14308546048E+02 -0.88280142297E+01 -0.24194462073E+02  0.12851067386E+03  0.12508778108E+03 0.  0.
        -24    2    1    2    0    0 -0.42285978622E+02  0.74770524168E+02  0.21540939641E+03  0.24455692254E+03  0.77641129737E+02 0.  0.
        -13    1    3    3    0    0 -0.20430067854E+02 -0.79872698375E+01 -0.57256877570E+02  0.61315040414E+02  0.00000000000E+00 0.  1.
         14    1    3    3    0    0  0.48407500427E+02 -0.57955240101E+02 -0.61404036402E+03  0.61866603640E+03  0.00000000000E+00 0. -1.
         13    1    5    5    0    0  0.21531913389E+02  0.22581037248E+02  0.39912221185E+02  0.50660753422E+02  0.00000000000E+00 0. -1.
        -14    1    5    5    0    0 -0.63817892011E+02  0.52189486920E+02  0.17549717523E+03  0.19389616912E+03  0.00000000000E+00 0.  1.
          5    1    4    4  501    0 -0.52633797030E+02  0.12880536301E+01 -0.29458882993E+02  0.60475398793E+02  0.41800000000E+01 0. -1.
         -5    1    4    4    0  501  0.66942343079E+02 -0.10116067860E+02  0.52644209206E+01  0.68035275067E+02  0.41800000000E+01 0. -1.
</event>
<event>
11    1  0.7882745E-009  0.1522043E+03  0.7561462E-02  0.1094648E+00
         22   -1    0    0    0    0  0.00000000000E+00  0.00000000000E+00  0.16328727006E+03  0.16328727006E+03  0.00000000000E+00 0. -1.
         22   -1    0    0    0    0 -0.00000000000E+00 -0.00000000000E+00 -0.11067219314E+04  0.11067219314E+04  0.00000000000E+00 0. -1.
         24    2    1    2    0    0  0.32480834081E+02  0.67799711183E+02 -0.67463375741E+03  0.68370310959E+03  0.81654332497E+02 0.  0.
         25    2    1    2    0    0 -0.47535690385E+02 -0.13622042800E+03 -0.38427160491E+03  0.42910380897E+03  0.12509902346E+03 0.  0.
        -24    2    1    2    0    0  0.15054856304E+02  0.68420716813E+02  0.11547070100E+03  0.15720228288E+03  0.80442723523E+02 0.  0.
        -13    1    3    3    0    0  0.30901544798E+02 -0.91052989237E+01 -0.26069911251E+03  0.26268201157E+03  0.00000000000E+00 0.  1.
         14    1    3    3    0    0  0.15792892831E+01  0.76905010107E+02 -0.41393464490E+03  0.42102109802E+03  0.00000000000E+00 0. -1.
         11    1    5    5    0    0  0.38664961171E+02  0.52718938249E+02  0.11053377155E+03  0.12842110545E+03  0.00000000000E+00 0. -1.
        -12    1    5    5    0    0 -0.23610104867E+02  0.15701778564E+02  0.49369294440E+01  0.28781177430E+02  0.00000000000E+00 0.  1.
          5    1    4    4  501    0 -0.37353370351E+02 -0.33093161178E+02 -0.26612394435E+02  0.56710876654E+02  0.41800000000E+01 0. -1.
         -5    1    4    4    0  501 -0.10182320034E+02 -0.10312726682E+03 -0.35765921048E+03  0.37239293232E+03  0.41800000000E+01 0. -1.
</event>
<event>
11    1  0.7882745E-009  0.1612424E+03  0.7561462E-02  0.1085915E+00
         22   -1    0    0    0    0  0.00000000000E+00  0.00000000000E+00  0.17362394039E+03  0.17362394039E+03  0.00000000000E+00 0. -1.
         22   -1    0    0    0    0 -0.00000000000E+00 -0.00000000000E+00 -0.10204241607E+04  0.10204241607E+04  0.00000000000E+00 0. -1.
        -24    2    1    2    0    0  0.60397093260E+02  0.64778308652E+02 -0.34992332704E+03  0.36994047321E+03  0.81028271397E+02 0.  0.
         25    2    1    2    0    0 -0.11036516818E+03 -0.50768134016E+02 -0.63351420055E+03  0.65707389931E+03  0.12509193847E+03 0.  0.
         24    2    1    2    0    0  0.49968074921E+02 -0.14010174636E+02  0.13663730726E+03  0.16703372859E+03  0.80854308773E+02 0.  0.
        -11    1    5    5    0    0  0.14489783881E+02  0.25906011178E+02  0.13095530896E+02  0.32443307192E+02  0.00000000000E+00 0.  1.
         12    1    5    5    0    0  0.35478291040E+02 -0.39916185814E+02  0.12354177637E+03  0.13459042140E+03  0.00000000000E+00 0. -1.
         11    1    3    3    0    0  0.76340105786E+02  0.52274224844E+02 -0.22334400081E+03  0.24174976532E+03  0.00000000000E+00 0. -1.
        -12    1    3    3    0    0 -0.15943012526E+02  0.12504083808E+02 -0.12657932624E+03  0.12819070789E+03  0.00000000000E+00 0.  1.
          5    1    4    4  501    0 -0.76589322446E+02  0.33334221495E+02 -0.30006641807E+03  0.31150348680E+03  0.41800000000E+01 0.  1.
         -5    1    4    4    0  501 -0.33775845735E+02 -0.84102355511E+02 -0.33344778248E+03  0.34557041251E+03  0.41800000000E+01 0.  1.
</event>
<event>
11    1  0.7882745E-009  0.1516891E+03  0.7561462E-02  0.1095165E+00
         22   -1    0    0    0    0  0.00000000000E+00  0.00000000000E+00  0.31017052598E+04  0.31017052598E+04  0.00000000000E+00 0. -1.
         22   -1    0    0    0    0 -0.00000000000E+00 -0.00000000000E+00 -0.10622188362E+03  0.10622188362E+03  0.00000000000E+00 0. -1.
        -24    2    1    2    0    0  0.13550638535E+02  0.25443307850E+02 -0.78033357871E+02  0.11519318621E+03  0.79682391340E+02 0.  0.
         25    2    1    2    0    0  0.73318246975E+02 -0.34628879501E+02  0.67406574420E+03  0.69035262971E+03  0.12508957272E+03 0.  0.
         24    2    1    2    0    0 -0.86868885510E+02  0.91855716512E+01  0.23994509899E+04  0.24023813275E+04  0.80252177699E+02 0.  0.
        -11    1    5    5    0    0 -0.12376964327E+02 -0.31366438077E+02  0.72474436526E+03  0.72552838515E+03  0.00000000000E+00 0.  1.
         12    1    5    5    0    0 -0.74491921183E+02  0.40552009728E+02  0.16747066246E+04  0.16768529424E+04  0.00000000000E+00 0. -1.
         13    1    3    3    0    0 -0.48285944036E+01  0.32357738721E+02 -0.87483487279E+02  0.93400744781E+02  0.00000000000E+00 0. -1.
        -14    1    3    3    0    0  0.18379232938E+02 -0.69144308704E+01  0.94501294078E+01  0.21792441430E+02  0.00000000000E+00 0.  1.
          5    1    4    4  501    0  0.75099360971E+02 -0.57565206919E+02  0.64975557591E+03  0.65662275920E+03  0.41800000000E+01 0.  1.
         -5    1    4    4    0  501 -0.17811139959E+01  0.22936327417E+02  0.24310168290E+02  0.33729870512E+02  0.41800000000E+01 0.  1.
</event>
<event>
11    1  0.7882745E-009  0.1314436E+03  0.7561462E-02  0.1117508E+00
         22   -1    0    0    0    0  0.00000000000E+00  0.00000000000E+00  0.10386838815E+04  0.10386838815E+04  0.00000000000E+00 0. -1.
         22   -1    0    0    0    0 -0.00000000000E+00 -0.00000000000E+00 -0.41484797802E+03  0.41484797802E+03  0.00000000000E+00 0. -1.
        -24    2    1    2    0    0  0.28897719432E+01 -0.92577910504E+01 -0.36242050485E+03  0.37152172379E+03  0.81152396355E+02 0.  0.
         25    2    1    2    0    0  0.36376631554E+02 -0.14260826863E+01  0.46820448175E+02  0.13840945002E+03  0.12505889993E+03 0.  0.
         24    2    1    2    0    0 -0.39266403498E+02  0.10683873737E+02  0.93943596011E+03  0.94360068567E+03  0.78653259701E+02 0.  0.
        -13    1    5    5    0    0  0.20766302542E+02 -0.34113166532E+01  0.11867516266E+03  0.12052663870E+03  0.00000000000E+00 0.  1.
         14    1    5    5    0    0 -0.60032706040E+02  0.14095190390E+02  0.82076079744E+03  0.82307404698E+03  0.00000000000E+00 0. -1.
         11    1    3    3    0    0 -0.11044314126E+02 -0.76408531065E+01 -0.35572450664E+03  0.35597792648E+03  0.00000000000E+00 0. -1.
        -12    1    3    3    0    0  0.13934086069E+02 -0.16169379439E+01 -0.66959982039E+01  0.15543797311E+02  0.00000000000E+00 0.  1.
          5    1    4    4  501    0  0.55062328172E+02 -0.26144298987E+01 -0.27434981492E+02  0.61715847534E+02  0.41800000000E+01 0. -1.
         -5    1    4    4    0  501 -0.18685696617E+02  0.11883472124E+01  0.74255429667E+02  0.76693602485E+02  0.41800000000E+01 0. -1.
</event>
<event>
11    1  0.7882745E-009  0.1305778E+03  0.7561462E-02  0.1118561E+00
         22   -1    0    0    0    0  0.00000000000E+00  0.00000000000E+00  0.31793084529E+04  0.31793084529E+04  0.00000000000E+00 0. -1.
         22   -1    0    0    0    0 -0.00000000000E+00 -0.00000000000E+00 -0.11925985560E+03  0.11925985560E+03  0.00000000000E+00 0.  1.
         24    2    1    2    0    0  0.28046675843E+02 -0.12667441219E+02 -0.81237641669E+02  0.11924090509E+03  0.81680835761E+02 0.  0.
         25    2    1    2    0    0 -0.41228636793E+02  0.46504370113E+02  0.25219064371E+03  0.28828874822E+03  0.12509126526E+03 0.  0.
        -24    2    1    2    0    0  0.13181960950E+02 -0.33836928895E+02  0.28890955953E+04  0.28910386552E+04  0.99561264752E+02 0.  0.
        -13    1    3    3    0    0  0.51587032040E+02 -0.16613882706E+01 -0.77315247669E+02  0.92960365790E+02  0.00000000000E+00 0.  1.
         14    1    3    3    0    0 -0.23540356197E+02 -0.11006052948E+02 -0.39223939996E+01  0.26280539303E+02  0.00000000000E+00 0. -1.
         11    1    5    5    0    0  0.29612118126E+02 -0.49639645913E+02  0.26933421291E+04  0.26939622856E+04  0.00000000000E+00 0. -1.
        -12    1    5    5    0    0 -0.16430157176E+02  0.15802717018E+02  0.19575346624E+03  0.19707636965E+03  0.00000000000E+00 0.  1.
          5    1    4    4  501    0  0.14680449077E+02  0.51722028152E+02  0.35888051802E+02  0.64777376016E+02  0.41800000000E+01 0.  1.
         -5    1    4    4    0  501 -0.55909085870E+02 -0.52176580392E+01  0.21630259191E+03  0.22351137220E+03  0.41800000000E+01 0.  1.
</event>
<event>
11    1  0.7882745E-009  0.1347622E+03  0.7561462E-02  0.1113552E+00
         22   -1    0    0    0    0  0.00000000000E+00  0.00000000000E+00  0.47991106229E+04  0.47991106229E+04  0.00000000000E+00 0. -1.
         22   -1    0    0    0    0 -0.00000000000E+00 -0.00000000000E+00 -0.45284613987E+02  0.45284613987E+02  0.00000000000E+00 0. -1.
        -24    2    1    2    0    0  0.37174894652E+02  0.33666783624E+02  0.11022684497E+02  0.95518234309E+02  0.80540725103E+02 0.  0.
         25    2    1    2    0    0 -0.54760770536E+02 -0.12255066591E+02  0.19515683762E+04  0.19563784167E+04  0.12509377975E+03 0.  0.
         24    2    1    2    0    0  0.17585875885E+02 -0.21411717033E+02  0.27912349482E+04  0.27924985859E+04  0.79297485971E+02 0.  0.
        -13    1    5    5    0    0  0.38447344916E+02 -0.25977058319E+02  0.94353754578E+03  0.94467777903E+03  0.00000000000E+00 0.  1.
         14    1    5    5    0    0 -0.20861469032E+02  0.45653412857E+01  0.18476974025E+04  0.18478208069E+04  0.00000000000E+00 0. -1.
         11    1    3    3    0    0  0.33638203104E+02  0.51981447813E+02 -0.14802691994E+02  0.63660971678E+02  0.00000000000E+00 0. -1.
        -12    1    3    3    0    0  0.35366915480E+01 -0.18314664189E+02  0.25825376491E+02  0.31857262631E+02  0.00000000000E+00 0.  1.
          5    1    4    4  501    0  0.10145977880E+02 -0.40744986796E+02  0.13459884168E+04  0.13466496892E+04  0.41800000000E+01 0. -1.
         -5    1    4    4    0  501 -0.64906748416E+02  0.28489920206E+02  0.60557995938E+03  0.60972872751E+03  0.41800000000E+01 0. -1.
</event>
<event>
11    1  0.7882745E-009  0.1673610E+03  0.7561462E-02  0.1080351E+00
         22   -1    0    0    0    0  0.00000000000E+00  0.00000000000E+00  0.83944609119E+03  0.83944609119E+03  0.00000000000E+00 0. -1.
         22   -1    0    0    0    0 -0.00000000000E+00 -0.00000000000E+00 -0.32487131334E+03  0.32487131334E+03  0.00000000000E+00 0.  1.
        -24    2    1    2    0    0  0.73552260262E+01 -0.16075472086E+02 -0.24500804812E+03  0.25916191102E+03  0.82604069671E+02 0.  0.
         25    2    1    2    0    0  0.10098819422E+03  0.42313255355E+02  0.37695849453E+02  0.17045988496E+03  0.12508624371E+03 0.  0.
         24    2    1    2    0    0 -0.10834342024E+03 -0.26237783269E+02  0.72188697652E+03  0.73469560855E+03  0.78931060913E+02 0.  0.
        -13    1    5    5    0    0  0.89899535162E+01  0.10324934093E+02  0.71294746267E+02  0.72597275249E+02  0.00000000000E+00 0.  1.
         14    1    5    5    0    0 -0.11733337376E+03 -0.36562717362E+02  0.65059223025E+03  0.66209833331E+03  0.00000000000E+00 0. -1.
         11    1    3    3    0    0  0.17119619502E+02  0.24600281976E+02 -0.40296736140E+02  0.50220336406E+02  0.00000000000E+00 0. -1.
        -12    1    3    3    0    0 -0.97643934759E+01 -0.40675754063E+02 -0.20471131198E+03  0.20894157461E+03  0.00000000000E+00 0.  1.
          5    1    4    4  501    0  0.10354484769E+03  0.70576694112E+02  0.29650285612E+01  0.12541478792E+03  0.41800000000E+01 0.  1.
         -5    1    4    4    0  501 -0.25566534767E+01 -0.28263438756E+02  0.34730820892E+02  0.45045097038E+02  0.41800000000E+01 0.  1.
</event>
<event>
11    1  0.7882745E-009  0.3748300E+03  0.7561462E-02  0.9727089E-01
         22   -1    0    0    0    0  0.00000000000E+00  0.00000000000E+00  0.19065533746E+04  0.19065533746E+04  0.00000000000E+00 0.  1.
         22   -1    0    0    0    0 -0.00000000000E+00 -0.00000000000E+00 -0.59529126380E+03  0.59529126380E+03  0.00000000000E+00 0. -1.
         24    2    1    2    0    0 -0.38346606136E+02 -0.11045682653E+03 -0.39077127080E+03  0.41642682985E+03  0.83892465755E+02 0.  0.
         25    2    1    2    0    0  0.27123242109E+02 -0.25412728335E+03 -0.54392984084E+02  0.28969725822E+03  0.12509819460E+03 0.  0.
        -24    2    1    2    0    0  0.11223364027E+02  0.36458410988E+03  0.17564263657E+04  0.17957205503E+04  0.80815714591E+02 0.  0.
        -13    1    3    3    0    0 -0.22869476223E+02 -0.27783813059E+02 -0.32745667046E+02  0.48654207640E+02  0.00000000000E+00 0.  1.
         14    1    3    3    0    0 -0.15477129914E+02 -0.82673013467E+02 -0.35802560375E+03  0.36777262221E+03  0.00000000000E+00 0. -1.
         11    1    5    5    0    0  0.41421867656E+02  0.16145490236E+03  0.70622817490E+03  0.72563192573E+03  0.00000000000E+00 0. -1.
        -12    1    5    5    0    0 -0.30198503629E+02  0.20312920753E+03  0.10501981908E+04  0.10700886246E+04  0.00000000000E+00 0.  1.
          5    1    4    4  501    0  0.71650169403E+02 -0.12804346720E+03 -0.43123608654E+01  0.14685007703E+03  0.41800000000E+01 0.  1.
         -5    1    4    4    0  501 -0.44526927294E+02 -0.12608381615E+03 -0.50080623219E+02  0.14284718118E+03  0.41800000000E+01 0.  1.
</event>
<event>
11    1  0.7882745E-009  0.1898985E+03  0.7561462E-02  0.1061906E+00
         22   -1    0    0    0    0  0.00000000000E+00  0.00000000000E+00  0.15395146604E+04  0.15395146604E+04  0.00000000000E+00 0.  1.
         22   -1    0    0    0    0 -0.00000000000E+00 -0.00000000000E+00 -0.17944007180E+04  0.17944007180E+04  0.00000000000E+00 0. -1.
         24    2    1    2    0    0  0.78669281527E+01  0.14342040693E+03 -0.17573836399E+04  0.17650640865E+04  0.80141563538E+02 0.  0.
         25    2    1    2    0    0 -0.81567748560E+02 -0.88837552099E+02  0.21939475758E+03  0.27987019900E+03  0.12509140804E+03 0.  0.
        -24    2    1    2    0    0  0.73700820407E+02 -0.54582854832E+02  0.12831028247E+04  0.12889810929E+04  0.81904213752E+02 0.  0.
        -11    1    3    3    0    0 -0.20400691469E+02  0.85980072610E+01 -0.13104485048E+03  0.13290171850E+03  0.00000000000E+00 0.  1.
         12    1    3    3    0    0  0.28267619622E+02  0.13482239967E+03 -0.16263387894E+04  0.16321623680E+04  0.00000000000E+00 0. -1.
         11    1    5    5    0    0 -0.13678864432E+02  0.49857744651E+01  0.86742924183E+02  0.87956262852E+02  0.00000000000E+00 0. -1.
        -12    1    5    5    0    0  0.87379684839E+02 -0.59568629297E+02  0.11963599005E+04  0.12010248300E+04  0.00000000000E+00 0.  1.
          5    1    4    4  501    0 -0.10275023944E+03 -0.10400642486E+03  0.19634160494E+03  0.24483146518E+03  0.41800000000E+01 0. -1.
         -5    1    4    4    0  501  0.21182490877E+02  0.15168872756E+02  0.23053152640E+02  0.35038733811E+02  0.41800000000E+01 0. -1.
</event>
<event>
11    1  0.7882745E-009  0.3476692E+03  0.7561462E-02  0.9818183E-01
         22   -1    0    0    0    0  0.00000000000E+00  0.00000000000E+00  0.35949710154E+04  0.35949710154E+04  0.00000000000E+00 0. -1.
         22   -1    0    0    0    0 -0.00000000000E+00 -0.00000000000E+00 -0.36829524188E+03  0.36829524188E+03  0.00000000000E+00 0.  1.
         24    2    1    2    0    0 -0.21181859109E+03 -0.11019012331E+03 -0.18616275605E+03  0.31328314811E+03  0.80503293984E+02 0.  0.
         25    2    1    2    0    0  0.26214637403E+03 -0.21564102936E+03  0.18868894864E+03  0.40801061098E+03  0.12508942551E+03 0.  0.
        -24    2    1    2    0    0 -0.50327782935E+02  0.32583115268E+03  0.32241495810E+04  0.32419724982E+04  0.80909412227E+02 0.  0.
        -11    1    3    3    0    0 -0.16755728989E+03 -0.11833954400E+03 -0.16636629631E+03  0.26411633349E+03  0.00000000000E+00 0.  1.
         12    1    3    3    0    0 -0.44261301202E+02  0.81494206836E+01 -0.19796459734E+02  0.49166814617E+02  0.00000000000E+00 0. -1.
         11    1    5    5    0    0 -0.72037059104E+02  0.25112801216E+03  0.24136929215E+04  0.24277907932E+04  0.00000000000E+00 0. -1.
        -12    1    5    5    0    0  0.21709276168E+02  0.74703140518E+02  0.81045665946E+03  0.81418170499E+03  0.00000000000E+00 0.  1.
          5    1    4    4  501    0  0.23576048221E+03 -0.22589524649E+03  0.14861681782E+03  0.35877025838E+03  0.41800000000E+01 0.  1.
         -5    1    4    4    0  501  0.26385891818E+02  0.10254217127E+02  0.40072130818E+02  0.49240352601E+02  0.41800000000E+01 0.  1.
</event>
<event>
11    1  0.7882745E-009  0.1376351E+03  0.7561462E-02  0.1110228E+00
         22   -1    0    0    0    0  0.00000000000E+00  0.00000000000E+00  0.18495427281E+04  0.18495427281E+04  0.00000000000E+00 0. -1.
         22   -1    0    0    0    0 -0.00000000000E+00 -0.00000000000E+00 -0.90729877240E+03  0.90729877240E+03  0.00000000000E+00 0.  1.
         24    2    1    2    0    0  0.33692007326E+02  0.46576558129E+02 -0.89435073760E+03  0.89987938325E+03  0.81333482875E+02 0.  0.
         25    2    1    2    0    0 -0.16928524766E+02 -0.43001114492E+02  0.48841402924E+03  0.50629132095E+03  0.12508783681E+03 0.  0.
        -24    2    1    2    0    0 -0.16763482559E+02 -0.35754436373E+01  0.13481806640E+04  0.13506707962E+04  0.80166694253E+02 0.  0.
        -13    1    3    3    0    0 -0.25353770946E+02  0.21348998973E+02 -0.40106159115E+03  0.40242886745E+03  0.00000000000E+00 0.  1.
         14    1    3    3    0    0  0.59045778272E+02  0.25227559156E+02 -0.49328914645E+03  0.49745051581E+03  0.00000000000E+00 0. -1.
         11    1    5    5    0    0 -0.17422365265E+02 -0.10417522516E+02  0.13392370549E+04  0.13393908887E+04  0.00000000000E+00 0. -1.
        -12    1    5    5    0    0  0.65888270537E+00  0.68420788787E+01  0.89436091416E+01  0.11279907547E+02  0.00000000000E+00 0.  1.
          5    1    4    4  501    0 -0.54324560205E+00  0.42808458032E+02  0.11526854520E+03  0.12303320327E+03  0.41800000000E+01 0. -1.
         -5    1    4    4    0  501 -0.16385279164E+02 -0.85809572524E+02  0.37314548404E+03  0.38325811768E+03  0.41800000000E+01 0. -1.
</event>
<event>
11    1  0.7882745E-009  0.1482543E+03  0.7561462E-02  0.1098676E+00
         22   -1    0    0    0    0  0.00000000000E+00  0.00000000000E+00  0.63456516311E+03  0.63456516311E+03  0.00000000000E+00 0.  1.
         22   -1    0    0    0    0 -0.00000000000E+00 -0.00000000000E+00 -0.55184161952E+03  0.55184161952E+03  0.00000000000E+00 0. -1.
         24    2    1    2    0    0  0.46048460879E+02 -0.41497353745E+02 -0.48392455866E+03  0.49476887150E+03  0.82284668163E+02 0.  0.
         25    2    1    2    0    0  0.32991635125E+02  0.94078735652E+01  0.18380195749E+02  0.13100719462E+03  0.12509235538E+03 0.  0.
        -24    2    1    2    0    0 -0.79040096004E+02  0.32089480179E+02  0.54826790650E+03  0.56063071651E+03  0.80199946861E+02 0.  0.
        -13    1    3    3    0    0 -0.12781094430E+02 -0.28368300896E+02 -0.71692295933E+02  0.78153068824E+02  0.00000000000E+00 0.  1.
         14    1    3    3    0    0  0.58829555309E+02 -0.13129052849E+02 -0.41223226273E+03  0.41661580268E+03  0.00000000000E+00 0. -1.
         13    1    5    5    0    0  0.20290246206E+01  0.35702706223E+02  0.15386240922E+03  0.15796341711E+03  0.00000000000E+00 0. -1.
        -14    1    5    5    0    0 -0.81069120625E+02 -0.36132260436E+01  0.39440549728E+03  0.40266729940E+03  0.00000000000E+00 0.  1.
          5    1    4    4  501    0  0.40622068476E+02 -0.52211729796E+02  0.18344006672E+02  0.68776392435E+02  0.41800000000E+01 0. -1.
         -5    1    4    4    0  501 -0.76304333509E+01  0.61619603361E+02  0.36189076517E-01  0.62230802189E+02  0.41800000000E+01 0. -1.
</event>
<event>
11    1  0.7882745E-009  0.1273847E+03  0.7561462E-02  0.1122525E+00
         22   -1    0    0    0    0  0.00000000000E+00  0.00000000000E+00  0.68881019444E+03  0.68881019444E+03  0.00000000000E+00 0. -1.
         22   -1    0    0    0    0 -0.00000000000E+00 -0.00000000000E+00 -0.14154449625E+03  0.14154449625E+03  0.00000000000E+00 0. -1.
         24    2    1    2    0    0 -0.16936235527E+02  0.16207167253E+02 -0.10580054014E+03  0.13404547022E+03  0.78898196739E+02 0.  0.
         25    2    1    2    0    0  0.21724688847E+02 -0.27334151901E+02  0.21678470577E+03  0.25270921862E+03  0.12508885865E+03 0.  0.
        -24    2    1    2    0    0 -0.47884533198E+01  0.11126984648E+02  0.43628153256E+03  0.44360000185E+03  0.79326205713E+02 0.  0.
        -11    1    3    3    0    0  0.23217375359E+01 -0.82528783047E+01  0.10554505446E+02  0.13597722262E+02  0.00000000000E+00 0.  1.
         12    1    3    3    0    0 -0.19257973063E+02  0.24460045558E+02 -0.11635504559E+03  0.12044774796E+03  0.00000000000E+00 0. -1.
         11    1    5    5    0    0 -0.45575525318E+01  0.35789090817E+02  0.38509766697E+03  0.38678397513E+03  0.00000000000E+00 0. -1.
        -12    1    5    5    0    0 -0.23090078798E+00 -0.24662106169E+02  0.51183865590E+02  0.56816026723E+02  0.00000000000E+00 0.  1.
          5    1    4    4  501    0  0.45224227454E+02 -0.68211785307E+02  0.14870807780E+03  0.16979294216E+03  0.41800000000E+01 0.  1.
         -5    1    4    4    0  501 -0.23499538608E+02  0.40877633406E+02  0.68076627963E+02  0.82916276463E+02  0.41800000000E+01 0.  1.
</event>
<event>
11    1  0.7882745E-009  0.1712831E+03  0.7561462E-02  0.1076920E+00
         22   -1    0    0    0    0  0.00000000000E+00  0.00000000000E+00  0.38272160633E+03  0.38272160633E+03  0.00000000000E+00 0. -1.
         22   -1    0    0    0    0 -0.00000000000E+00 -0.00000000000E+00 -0.86408114441E+03  0.86408114441E+03  0.00000000000E+00 0.  1.
        -24    2    1    2    0    0  0.22223258119E+02 -0.65657556936E+02 -0.76099607573E+03  0.76840922647E+03  0.80826505963E+02 0.  0.
         25    2    1    2    0    0  0.91097336966E+02  0.11713362636E+02 -0.69417682968E+01  0.15534675784E+03  0.12509396211E+03 0.  0.
         24    2    1    2    0    0 -0.11332059509E+03  0.53944194301E+02  0.28657830594E+03  0.32304676644E+03  0.80501891275E+02 0.  0.
        -13    1    5    5    0    0 -0.64534551372E+02  0.32528771039E+02  0.72231240765E+02  0.10217720592E+03  0.00000000000E+00 0.  1.
         14    1    5    5    0    0 -0.48786043713E+02  0.21415423261E+02  0.21434706518E+03  0.22086956052E+03  0.00000000000E+00 0. -1.
         11    1    3    3    0    0  0.39340858618E+02 -0.24347839577E+01 -0.35225950003E+03  0.35445787718E+03  0.00000000000E+00 0. -1.
        -12    1    3    3    0    0 -0.17117600499E+02 -0.63222772978E+02 -0.40873657569E+03  0.41395134929E+03  0.00000000000E+00 0.  1.
          5    1    4    4  501    0  0.64312612630E+01  0.30835684073E+02 -0.49316184070E+02  0.58666506159E+02  0.41800000000E+01 0.  1.
         -5    1    4    4    0  501  0.84666075703E+02 -0.19122321437E+02  0.42374415773E+02  0.96680251677E+02  0.41800000000E+01 0.  1.
</event>
<event>
11    1  0.7882745E-009  0.1506968E+03  0.7561462E-02  0.1096169E+00
         22   -1    0    0    0    0  0.00000000000E+00  0.00000000000E+00  0.29296622261E+03  0.29296622261E+03  0.00000000000E+00 0. -1.
         22   -1    0    0    0    0 -0.00000000000E+00 -0.00000000000E+00 -0.65430977347E+03  0.65430977347E+03  0.00000000000E+00 0.  1.
        -24    2    1    2    0    0 -0.10103050678E+01 -0.71022615883E+02 -0.52340475189E+03  0.53448832719E+03  0.81731297077E+02 0.  0.
         25    2    1    2    0    0  0.59494839229E+02  0.22921142950E+01 -0.66823890048E+02  0.15381845894E+03  0.12509914607E+03 0.  0.
         24    2    1    2    0    0 -0.58484534162E+02  0.68730501588E+02  0.22888509108E+03  0.25896920994E+03  0.80822918730E+02 0.  0.
        -11    1    5    5    0    0 -0.60768378893E+02  0.38005825836E+02  0.82095697584E+02  0.10898138480E+03  0.00000000000E+00 0.  1.
         12    1    5    5    0    0  0.22838447318E+01  0.30724675752E+02  0.14678939350E+03  0.14998782514E+03  0.00000000000E+00 0. -1.
         13    1    3    3    0    0 -0.19919539725E+02 -0.23969627481E+02 -0.53969550939E+02  0.62322095062E+02  0.00000000000E+00 0. -1.
        -14    1    3    3    0    0  0.18909234657E+02 -0.47052988402E+02 -0.46943520095E+03  0.47216623213E+03  0.00000000000E+00 0.  1.
          5    1    4    4  501    0 -0.28954745209E+02 -0.30823175478E+02 -0.10500557495E+02  0.43774187877E+02  0.41800000000E+01 0.  1.
         -5    1    4    4    0  501  0.88449584438E+02  0.33115289773E+02 -0.56323332554E+02  0.11004427106E+03  0.41800000000E+01 0.  1.
</event>
<event>
11    1  0.7882745E-009  0.2244723E+03  0.7561462E-02  0.1038452E+00
         22   -1    0    0    0    0  0.00000000000E+00  0.00000000000E+00  0.56050870870E+03  0.56050870870E+03  0.00000000000E+00 0.  1.
         22   -1    0    0    0    0 -0.00000000000E+00 -0.00000000000E+00 -0.13387200470E+03  0.13387200470E+03  0.00000000000E+00 0. -1.
         24    2    1    2    0    0  0.15607082843E+03  0.14156743611E+03  0.22349657667E+03  0.31721295925E+03  0.79207949616E+02 0.  0.
         25    2    1    2    0    0 -0.12065399390E+03 -0.12286297511E+03  0.87845388921E+02  0.23025336389E+03  0.12508837808E+03 0.  0.
        -24    2    1    2    0    0 -0.35416834534E+02 -0.18704460999E+02  0.11529473840E+03  0.14691439026E+03  0.81772564660E+02 0.  0.
        -11    1    3    3    0    0  0.83723914202E+01  0.45751323204E+02  0.28731893944E+02  0.54669939113E+02  0.00000000000E+00 0.  1.
         12    1    3    3    0    0  0.14769843701E+03  0.95816112904E+02  0.19476468272E+03  0.26254302014E+03  0.00000000000E+00 0. -1.
         13    1    5    5    0    0  0.98800815974E+00  0.18990876458E+02 -0.13236031315E+01  0.19062567351E+02  0.00000000000E+00 0. -1.
        -14    1    5    5    0    0 -0.36404842694E+02 -0.37695337457E+02  0.11661834154E+03  0.12785182290E+03  0.00000000000E+00 0.  1.
          5    1    4    4  501    0 -0.69645653370E+02 -0.18977865989E+02  0.88706889154E+02  0.11444239168E+03  0.41800000000E+01 0. -1.
         -5    1    4    4    0  501 -0.51008340529E+02 -0.10388510912E+03 -0.86150023299E+00  0.11581097220E+03  0.41800000000E+01 0. -1.
</event>
<event>
11    1  0.7882745E-009  0.1457608E+03  0.7561462E-02  0.1101291E+00
         22   -1    0    0    0    0  0.00000000000E+00  0.00000000000E+00  0.19157825456E+03  0.19157825456E+03  0.00000000000E+00 0. -1.
         22   -1    0    0    0    0 -0.00000000000E+00 -0.00000000000E+00 -0.23902468307E+04  0.23902468307E+04  0.00000000000E+00 0.  1.
         24    2    1    2    0    0 -0.11407818999E+02 -0.22336529384E+02 -0.22451558915E+04  0.22466344210E+04  0.77538282694E+02 0.  0.
         25    2    1    2    0    0  0.37338908227E+02  0.88635725963E+02 -0.72902517318E+02  0.17382020198E+03  0.12509276398E+03 0.  0.
        -24    2    1    2    0    0 -0.25931089228E+02 -0.66299196580E+02  0.11938983274E+03  0.16137046230E+03  0.81966389970E+02 0.  0.
        -11    1    3    3    0    0  0.57368209818E+01  0.36888951331E+01 -0.19147128896E+04  0.19147250374E+04  0.00000000000E+00 0.  1.
         12    1    3    3    0    0 -0.17144639981E+02 -0.26025424517E+02 -0.33044300194E+03  0.33190938362E+03  0.00000000000E+00 0. -1.
         13    1    5    5    0    0 -0.11640933580E+02 -0.35327277340E+02  0.12162704371E+03  0.12718752148E+03  0.00000000000E+00 0. -1.
        -14    1    5    5    0    0 -0.14290155648E+02 -0.30971919240E+02 -0.22372109710E+01  0.34182940815E+02  0.00000000000E+00 0.  1.
          5    1    4    4  501    0  0.39181309506E+02  0.35733243374E+02 -0.10069925094E+03  0.11388525469E+03  0.41800000000E+01 0. -1.
         -5    1    4    4    0  501 -0.18424012790E+01  0.52902482589E+02  0.27796733617E+02  0.59934947288E+02  0.41800000000E+01 0. -1.
</event>
<event>
11    1  0.7882745E-009  0.1475027E+03  0.7561462E-02  0.1099458E+00
         22   -1    0    0    0    0  0.00000000000E+00  0.00000000000E+00  0.40408624147E+03  0.40408624147E+03  0.00000000000E+00 0.  1.
         22   -1    0    0    0    0 -0.00000000000E+00 -0.00000000000E+00 -0.39956202813E+03  0.39956202813E+03  0.00000000000E+00 0.  1.
        -24    2    1    2    0    0  0.33948676191E+02  0.96517577233E+01 -0.23760356636E+03  0.25613913230E+03  0.88916428758E+02 0.  0.
         25    2    1    2    0    0  0.36086870090E+02  0.29517143138E+02 -0.11236028388E+03  0.17448815159E+03  0.12509099776E+03 0.  0.
         24    2    1    2    0    0 -0.70035546281E+02 -0.39168900861E+02  0.35448806358E+03  0.37302098571E+03  0.83926682439E+02 0.  0.
        -11    1    5    5    0    0 -0.87576673921E+02 -0.43128746797E+02  0.31101123861E+03  0.32597201284E+03  0.00000000000E+00 0.  1.
         12    1    5    5    0    0  0.17541127641E+02  0.39598459361E+01  0.43476824965E+02  0.47048972867E+02  0.00000000000E+00 0. -1.
         13    1    3    3    0    0  0.26400048779E+02 -0.13369506586E+02 -0.16836432044E+02  0.34046611077E+02  0.00000000000E+00 0. -1.
        -14    1    3    3    0    0  0.75486274120E+01  0.23021264309E+02 -0.22076713432E+03  0.22209252122E+03  0.00000000000E+00 0.  1.
          5    1    4    4  501    0  0.49613705179E+02  0.49135534437E+02 -0.11653624329E+02  0.70916146582E+02  0.41800000000E+01 0.  1.
         -5    1    4    4    0  501 -0.13526835089E+02 -0.19618391300E+02 -0.10070665955E+03  0.10357200501E+03  0.41800000000E+01 0.  1.
</event>
<event>
11    1  0.7882745E-009  0.1547844E+03  0.7561462E-02  0.1092088E+00
         22   -1    0    0    0    0  0.00000000000E+00  0.00000000000E+00  0.29652812031E+03  0.29652812031E+03  0.00000000000E+00 0. -1.
         22   -1    0    0    0    0 -0.00000000000E+00 -0.00000000000E+00 -0.44575219971E+03  0.44575219971E+03  0.00000000000E+00 0.  1.
        -24    2    1    2    0    0 -0.23133913754E+02  0.16030057672E+02 -0.35942164731E+03  0.36943953946E+03  0.80681547124E+02 0.  0.
         25    2    1    2    0    0 -0.35458929622E+02 -0.86333408306E+02  0.40669885336E+02  0.16128413557E+03  0.12509092586E+03 0.  0.
         24    2    1    2    0    0  0.58592843377E+02  0.70303350634E+02  0.16952768257E+03  0.21155664500E+03  0.87412221566E+02 0.  0.
        -11    1    5    5    0    0  0.25249102510E+02 -0.11278418660E+02  0.85213653951E+02  0.89588429636E+02  0.00000000000E+00 0.  1.
         12    1    5    5    0    0  0.33343740867E+02  0.81581769294E+02  0.84314028621E+02  0.12196821536E+03  0.00000000000E+00 0. -1.
         11    1    3    3    0    0  0.28700765930E+02  0.40522811115E-01 -0.85202014329E+02  0.89906166934E+02  0.00000000000E+00 0. -1.
        -12    1    3    3    0    0 -0.51834679685E+02  0.15989534861E+02 -0.27421963298E+03  0.27953337252E+03  0.00000000000E+00 0.  1.
          5    1    4    4  501    0 -0.63526663366E+02 -0.10450801682E+03  0.32150177827E+02  0.12652536849E+03  0.41800000000E+01 0.  1.
         -5    1    4    4    0  501  0.28067733744E+02  0.18174608515E+02  0.85197075096E+01  0.34758767070E+02  0.41800000000E+01 0.  1.
</event>
<event>
11    1  0.7882745E-009  0.1272235E+03  0.7561462E-02  0.1122728E+00
         22   -1    0    0    0    0  0.00000000000E+00  0.00000000000E+00  0.27750144154E+03  0.27750144154E+03  0.00000000000E+00 0. -1.
         22   -1    0    0    0    0 -0.00000000000E+00 -0.00000000000E+00 -0.29799934225E+03  0.29799934225E+03  0.00000000000E+00 0.  1.
        -24    2    1    2    0    0 -0.14369525975E+01 -0.19809305908E+02 -0.16758429168E+03  0.18724306393E+03  0.81123342757E+02 0.  0.
         25    2    1    2    0    0 -0.11578961031E+02  0.35850445312E+02 -0.75500594548E+02  0.15089419520E+03  0.12509752836E+03 0.  0.
         24    2    1    2    0    0  0.13015913629E+02 -0.16041139403E+02  0.22258698552E+03  0.23736352466E+03  0.79810679460E+02 0.  0.
        -13    1    5    5    0    0  0.29920867211E+01  0.32285700892E+02  0.73937973549E+02  0.80735017171E+02  0.00000000000E+00 0.  1.
         14    1    5    5    0    0  0.10023826908E+02 -0.48326840295E+02  0.14864901197E+03  0.15662850749E+03  0.00000000000E+00 0. -1.
         13    1    3    3    0    0  0.10970783226E+02 -0.30088561858E+02 -0.17890192922E+02  0.36684310571E+02  0.00000000000E+00 0. -1.
        -14    1    3    3    0    0 -0.12407735824E+02  0.10279255949E+02 -0.14969409876E+03  0.15055875336E+03  0.00000000000E+00 0.  1.
          5    1    4    4  501    0  0.52989816969E+02  0.10482451916E+02 -0.94135445632E+01  0.54989905636E+02  0.41800000000E+01 0. -1.
         -5    1    4    4    0  501 -0.64568778001E+02  0.25367993396E+02 -0.66087049984E+02  0.95904289565E+02  0.41800000000E+01 0. -1.
</event>
<event>
11    1  0.7882745E-009  0.1378115E+03  0.7561462E-02  0.1110027E+00
         22   -1    0    0    0    0  0.00000000000E+00  0.00000000000E+00  0.38620234335E+03  0.38620234335E+03  0.00000000000E+00 0.  1.
         22   -1    0    0    0    0 -0.00000000000E+00 -0.00000000000E+00 -0.25010187981E+04  0.25010187981E+04  0.00000000000E+00 0. -1.
        -24    2    1    2    0    0 -0.65507490796E+02 -0.13704403034E+02 -0.21715866454E+04  0.21740779244E+04  0.79669447815E+02 0.  0.
         25    2    1    2    0    0  0.87974972978E+01 -0.41934641888E+01 -0.30828168685E+03  0.33282135862E+03  0.12504989886E+03 0.  0.
         24    2    1    2    0    0  0.56709993498E+02  0.17897867223E+02  0.36505187747E+03  0.38032185845E+03  0.88574746707E+02 0.  0.
        -11    1    5    5    0    0  0.39899868678E+02 -0.14085136806E+02  0.31896823639E+03  0.32176253111E+03  0.00000000000E+00 0.  1.
         12    1    5    5    0    0  0.16810124820E+02  0.31983004029E+02  0.46083641083E+02  0.58559327341E+02  0.00000000000E+00 0. -1.
         11    1    3    3    0    0 -0.10696701883E+02  0.51434529215E+01 -0.14854818445E+04  0.14855292609E+04  0.00000000000E+00 0. -1.
        -12    1    3    3    0    0 -0.54810788913E+02 -0.18847855956E+02 -0.68610480089E+03  0.68854866353E+03  0.00000000000E+00 0.  1.
          5    1    4    4  501    0 -0.29424792315E+02  0.48520621767E+02 -0.10641273685E+03  0.12066984753E+03  0.41800000000E+01 0. -1.
         -5    1    4    4    0  501  0.38222289613E+02 -0.52714085956E+02 -0.20186895000E+03  0.21215151108E+03  0.41800000000E+01 0. -1.
</event>
<event>
11    1  0.7882745E-009  0.3315446E+03  0.7561462E-02  0.9876593E-01
         22   -1    0    0    0    0  0.00000000000E+00  0.00000000000E+00  0.14285840637E+04  0.14285840637E+04  0.00000000000E+00 0.  1.
         22   -1    0    0    0    0 -0.00000000000E+00 -0.00000000000E+00 -0.12013992959E+04  0.12013992959E+04  0.00000000000E+00 0. -1.
         24    2    1    2    0    0  0.41754823632E+02 -0.74098514182E+02 -0.11138223204E+04  0.11197143424E+04  0.76980465839E+02 0.  0.
         25    2    1    2    0    0  0.20449853670E+03  0.25041701759E+03  0.46654674808E+03  0.58124092211E+03  0.12508719833E+03 0.  0.
        -24    2    1    2    0    0 -0.24625336033E+03 -0.17631850340E+03  0.87446034010E+03  0.92902809511E+03  0.81751960035E+02 0.  0.
        -13    1    3    3    0    0  0.10093616286E+02  0.80730130783E+01 -0.35107260289E+02  0.37410885514E+02  0.00000000000E+00 0.  1.
         14    1    3    3    0    0  0.31661207347E+02 -0.82171527260E+02 -0.10787150601E+04  0.10823034569E+04  0.00000000000E+00 0. -1.
         11    1    5    5    0    0 -0.62738659318E+01  0.72959686626E+01  0.13468915438E+02  0.16553073296E+02  0.00000000000E+00 0. -1.
        -12    1    5    5    0    0 -0.23997949440E+03 -0.18361447207E+03  0.86099142466E+03  0.91247502181E+03  0.00000000000E+00 0.  1.
          5    1    4    4  501    0  0.19098377210E+02  0.54186093179E+02  0.23095607317E+02  0.62062550571E+02  0.41800000000E+01 0. -1.
         -5    1    4    4    0  501  0.18540015949E+03  0.19623092441E+03  0.44345114077E+03  0.51917837154E+03  0.41800000000E+01 0. -1.
</event>
<event>
11    1  0.7882745E-009  0.1938344E+03  0.7561462E-02  0.1058971E+00
         22   -1    0    0    0    0  0.00000000000E+00  0.00000000000E+00  0.10073631034E+04  0.10073631034E+04  0.00000000000E+00 0.  1.
         22   -1    0    0    0    0 -0.00000000000E+00 -0.00000000000E+00 -0.29818400314E+03  0.29818400314E+03  0.00000000000E+00 0. -1.
        -24    2    1    2    0    0  0.48105047356E+02  0.14147653490E+03 -0.25421516890E+03  0.30600826674E+03  0.81767974787E+02 0.  0.
         25    2    1    2    0    0 -0.58462874657E+02 -0.97797247131E+02  0.68520377488E+03  0.70578593621E+03  0.12508942959E+03 0.  0.
         24    2    1    2    0    0  0.10357827301E+02 -0.43679287773E+02  0.27819049426E+03  0.29375290356E+03  0.82979831783E+02 0.  0.
        -13    1    5    5    0    0  0.33415046046E+02 -0.58159595049E+02  0.20177651290E+03  0.21263316994E+03  0.00000000000E+00 0.  1.
         14    1    5    5    0    0 -0.23057218745E+02  0.14480307275E+02  0.76413981358E+02  0.81119733617E+02  0.00000000000E+00 0. -1.
         11    1    3    3    0    0  0.69641103370E+02  0.11080354284E+03 -0.21548582481E+03  0.25211396050E+03  0.00000000000E+00 0. -1.
        -12    1    3    3    0    0 -0.21536056014E+02  0.30672992067E+02 -0.38729344090E+02  0.53894306236E+02  0.00000000000E+00 0.  1.
          5    1    4    4  501    0  0.10354940040E+02 -0.95064407346E+01  0.38633577712E+03  0.38661402236E+03  0.41800000000E+01 0.  1.
         -5    1    4    4    0  501 -0.68817814697E+02 -0.88290806396E+02  0.29886799775E+03  0.31917191386E+03  0.41800000000E+01 0.  1.
</event>
<event>
11    1  0.7882745E-009  0.1881906E+03  0.7561462E-02  0.1063204E+00
         22   -1    0    0    0    0  0.00000000000E+00  0.00000000000E+00  0.21311284195E+03  0.21311284195E+03  0.00000000000E+00 0. -1.
         22   -1    0    0    0    0 -0.00000000000E+00 -0.00000000000E+00 -0.11430706219E+04  0.11430706219E+04  0.00000000000E+00 0.  1.
         24    2    1    2    0    0 -0.15038843601E+02 -0.37646266431E+02 -0.23042645940E+03  0.24740306084E+03  0.80427067146E+02 0.  0.
         25    2    1    2    0    0  0.88014235815E+02 -0.83598876518E+02 -0.86155894600E+03  0.87901447432E+03  0.12508937113E+03 0.  0.
        -24    2    1    2    0    0 -0.72975392214E+02  0.12124514295E+03  0.16202762543E+03  0.22976592870E+03  0.80707112635E+02 0.  0.
        -11    1    3    3    0    0 -0.32486017603E+02  0.75600978818E+01 -0.14866944224E+03  0.15236502051E+03  0.00000000000E+00 0.  1.
         12    1    3    3    0    0  0.17447174002E+02 -0.45206364313E+02 -0.81757017162E+02  0.95038040333E+02  0.00000000000E+00 0. -1.
         13    1    5    5    0    0 -0.53915294687E+02  0.48463654070E+02  0.12819353534E+03  0.14727242536E+03  0.00000000000E+00 0. -1.
        -14    1    5    5    0    0 -0.19060097527E+02  0.72781488880E+02  0.33834090088E+02  0.82493503340E+02  0.00000000000E+00 0.  1.
          5    1    4    4  501    0  0.42618486945E+02  0.48561486528E-01 -0.72324095581E+02  0.84051085593E+02  0.41800000000E+01 0.  1.
         -5    1    4    4    0  501  0.45395748870E+02 -0.83647438005E+02 -0.78923485042E+03  0.79496338873E+03  0.41800000000E+01 0.  1.
</event>
<event>
11    1  0.7882745E-009  0.2011166E+03  0.7561462E-02  0.1053737E+00
         22   -1    0    0    0    0  0.00000000000E+00  0.00000000000E+00  0.70590888971E+03  0.70590888971E+03  0.00000000000E+00 0. -1.
         22   -1    0    0    0    0 -0.00000000000E+00 -0.00000000000E+00 -0.57262065147E+03  0.57262065147E+03  0.00000000000E+00 0. -1.
        -24    2    1    2    0    0  0.11247271420E+03  0.58862216657E+02 -0.22189388037E+03  0.26785266213E+03  0.79958004451E+02 0.  0.
         25    2    1    2    0    0 -0.17483793381E+03 -0.15823247572E+03 -0.26396224690E+03  0.37540593577E+03  0.12509088439E+03 0.  0.
         24    2    1    2    0    0  0.62365219608E+02  0.99370259058E+02  0.61914436551E+03  0.63527094327E+03  0.80408687468E+02 0.  0.
        -13    1    5    5    0    0  0.72359602343E+02  0.88865389560E+02  0.41262930946E+03  0.42824749449E+03  0.00000000000E+00 0.  1.
         14    1    5    5    0    0 -0.99943827348E+01  0.10504869498E+02  0.20651505605E+03  0.20702344878E+03  0.00000000000E+00 0. -1.
         13    1    3    3    0    0  0.80449069109E+02  0.76357842357E+02 -0.18665782612E+03  0.21712603911E+03  0.00000000000E+00 0. -1.
        -14    1    3    3    0    0  0.32023645091E+02 -0.17495625701E+02 -0.35236054255E+02  0.50726623020E+02  0.00000000000E+00 0.  1.
          5    1    4    4  501    0 -0.12961292585E+03 -0.16140620999E+03 -0.25589629815E+03  0.32916844165E+03  0.41800000000E+01 0. -1.
         -5    1    4    4    0  501 -0.45225007953E+02  0.31737342743E+01 -0.80659487485E+01  0.46237494124E+02  0.41800000000E+01 0. -1.
</event>
<event>
11    1  0.7882745E-009  0.1491291E+03  0.7561462E-02  0.1097772E+00
         22   -1    0    0    0    0  0.00000000000E+00  0.00000000000E+00  0.78505308925E+03  0.78505308925E+03  0.00000000000E+00 0.  1.
         22   -1    0    0    0    0 -0.00000000000E+00 -0.00000000000E+00 -0.15125152857E+04  0.15125152857E+04  0.00000000000E+00 0.  1.
         24    2    1    2    0    0 -0.55280914424E+02  0.59745727194E+02 -0.14704378753E+04  0.14748626284E+04  0.80041839888E+02 0.  0.
         25    2    1    2    0    0  0.68097076978E+02 -0.30885283315E+02  0.10618518786E+03  0.18030813416E+03  0.12507844141E+03 0.  0.
        -24    2    1    2    0    0 -0.12816162555E+02 -0.28860443879E+02  0.63679049097E+03  0.64239761240E+03  0.78583610148E+02 0.  0.
        -13    1    3    3    0    0 -0.10224857901E+01  0.27236886821E+02 -0.97792302168E+03  0.97830278023E+03  0.00000000000E+00 0.  1.
         14    1    3    3    0    0 -0.54258428633E+02  0.32508840373E+02 -0.49251485362E+03  0.49655984817E+03  0.00000000000E+00 0. -1.
         11    1    5    5    0    0 -0.74132833094E+01 -0.34489369107E+02  0.10935181512E+03  0.11490123072E+03  0.00000000000E+00 0. -1.
        -12    1    5    5    0    0 -0.54028792452E+01  0.56289252282E+01  0.52743867585E+03  0.52749638169E+03  0.00000000000E+00 0.  1.
          5    1    4    4  501    0  0.81785166900E+02  0.84902983219E+01  0.20372142356E+02  0.84813886095E+02  0.41800000000E+01 0.  1.
         -5    1    4    4    0  501 -0.13688089922E+02 -0.39375581637E+02  0.85813045505E+02  0.95494248067E+02  0.41800000000E+01 0.  1.
</event>
<event>
11    1  0.7882745E-009  0.1308895E+03  0.7561462E-02  0.1118181E+00
         22   -1    0    0    0    0  0.00000000000E+00  0.00000000000E+00  0.26479785441E+03  0.26479785441E+03  0.00000000000E+00 0. -1.
         22   -1    0    0    0    0 -0.00000000000E+00 -0.00000000000E+00 -0.25459959652E+03  0.25459959652E+03  0.00000000000E+00 0.  1.
        -24    2    1    2    0    0  0.21136778354E+02  0.36716878913E+02 -0.18885761462E+03  0.21003097327E+03  0.81553163867E+02 0.  0.
         25    2    1    2    0    0  0.57661384125E+01 -0.93963151874E+01  0.49814385292E+02  0.13508385009E+03  0.12507851327E+03 0.  0.
         24    2    1    2    0    0 -0.26902916767E+02 -0.27320563726E+02  0.14924148721E+03  0.17428262757E+03  0.81432380744E+02 0.  0.
        -11    1    5    5    0    0 -0.36029652188E+02  0.16282213733E+02  0.39701963376E+02  0.56031171831E+02  0.00000000000E+00 0.  1.
         12    1    5    5    0    0  0.91267354213E+01 -0.43602777459E+02  0.10953952384E+03  0.11825145574E+03  0.00000000000E+00 0. -1.
         13    1    3    3    0    0  0.52041862440E+02  0.27117283708E+02 -0.13492593262E+03  0.14713500541E+03  0.00000000000E+00 0. -1.
        -14    1    3    3    0    0 -0.30905084086E+02  0.95995952046E+01 -0.53931681999E+02  0.62895967865E+02  0.00000000000E+00 0.  1.
          5    1    4    4  501    0  0.19976994288E+02 -0.60004135651E+02  0.52477221829E+02  0.82285526108E+02  0.41800000000E+01 0. -1.
         -5    1    4    4    0  501 -0.14210855876E+02  0.50607820463E+02 -0.26628365367E+01  0.52798323981E+02  0.41800000000E+01 0. -1.
</event>
<event>
11    1  0.7882745E-009  0.2166498E+03  0.7561462E-02  0.1043337E+00
         22   -1    0    0    0    0  0.00000000000E+00  0.00000000000E+00  0.80329935854E+03  0.80329935854E+03  0.00000000000E+00 0. -1.
         22   -1    0    0    0    0 -0.00000000000E+00 -0.00000000000E+00 -0.13092396932E+04  0.13092396932E+04  0.00000000000E+00 0. -1.
         24    2    1    2    0    0 -0.95380420959E+02  0.15989882798E+03 -0.80822826698E+03  0.83560142864E+03  0.10164524640E+03 0.  0.
         25    2    1    2    0    0  0.38087602776E+02 -0.16235944644E+03 -0.46172338320E+03  0.50659889475E+03  0.12507078891E+03 0.  0.
        -24    2    1    2    0    0  0.57292818183E+02  0.24606184601E+01  0.76401131551E+03  0.77033872835E+03  0.80124556205E+02 0.  0.
        -13    1    3    3    0    0 -0.64736913364E+02  0.83180400823E+02 -0.25026495792E+03  0.27155551218E+03  0.00000000000E+00 0.  1.
         14    1    3    3    0    0 -0.30643507595E+02  0.76718427155E+02 -0.55796330906E+03  0.56404591646E+03  0.00000000000E+00 0. -1.
         13    1    5    5    0    0  0.66488901169E+02  0.27094073346E+02  0.52537738159E+03  0.53026055470E+03  0.00000000000E+00 0. -1.
        -14    1    5    5    0    0 -0.91960829862E+01 -0.24633454885E+02  0.23863393392E+03  0.24007817364E+03  0.00000000000E+00 0.  1.
          5    1    4    4  501    0 -0.75125512457E+01 -0.75081412860E+02 -0.34798891665E+03  0.35610028853E+03  0.41800000000E+01 0. -1.
         -5    1    4    4    0  501  0.45600154021E+02 -0.87278033578E+02 -0.11373446655E+03  0.15049860622E+03  0.41800000000E+01 0. -1.
</event>
<event>
11    1  0.7882745E-009  0.2067553E+03  0.7561462E-02  0.1049847E+00
         22   -1    0    0    0    0  0.00000000000E+00  0.00000000000E+00  0.46199509874E+03  0.46199509874E+03  0.00000000000E+00 0. -1.
         22   -1    0    0    0    0 -0.00000000000E+00 -0.00000000000E+00 -0.62753073941E+03  0.62753073941E+03  0.00000000000E+00 0.  1.
         24    2    1    2    0    0 -0.16441861321E+03 -0.66345552889E+01 -0.53962608952E+03  0.56982741285E+03  0.80183952612E+02 0.  0.
         25    2    1    2    0    0  0.16009053406E+03  0.10618294013E+03  0.22524272113E+03  0.32138212569E+03  0.12509353069E+03 0.  0.
        -24    2    1    2    0    0  0.43280791466E+01 -0.99548384845E+02  0.14884772773E+03  0.19831629961E+03  0.85118126434E+02 0.  0.
        -11    1    3    3    0    0 -0.71755197248E+02 -0.20317530677E+02 -0.35558378678E+03  0.36332002395E+03  0.00000000000E+00 0.  1.
         12    1    3    3    0    0 -0.92663415958E+02  0.13682975388E+02 -0.18404230274E+03  0.20650738890E+03  0.00000000000E+00 0. -1.
         13    1    5    5    0    0  0.94064170191E+01 -0.18510056644E+02  0.10299456640E+03  0.10506656740E+03  0.00000000000E+00 0. -1.
        -14    1    5    5    0    0 -0.50783378725E+01 -0.81038328201E+02  0.45853161328E+02  0.93249732208E+02  0.00000000000E+00 0.  1.
          5    1    4    4  501    0  0.54811879187E+02 -0.32150091997E+01  0.70267400083E+01  0.55511493038E+02  0.41800000000E+01 0. -1.
         -5    1    4    4    0  501  0.10527865487E+03  0.10939794933E+03  0.21821598112E+03  0.26587063265E+03  0.41800000000E+01 0. -1.
</event>
<event>
11    1  0.7882745E-009  0.1507007E+03  0.7561462E-02  0.1096165E+00
         22   -1    0    0    0    0  0.00000000000E+00  0.00000000000E+00  0.65986183771E+03  0.65986183771E+03  0.00000000000E+00 0.  1.
         22   -1    0    0    0    0 -0.00000000000E+00 -0.00000000000E+00 -0.16234602847E+03  0.16234602847E+03  0.00000000000E+00 0. -1.
        -24    2    1    2    0    0  0.69408853620E+01  0.17942395033E+01 -0.12136353880E+03  0.14545093071E+03  0.79846537242E+02 0.  0.
         25    2    1    2    0    0 -0.32358711975E+02 -0.80562915298E+02  0.27753921156E+03  0.31656460758E+03  0.12509063616E+03 0.  0.
         24    2    1    2    0    0  0.25417826613E+02  0.78768675795E+02  0.34134013648E+03  0.36019232790E+03  0.79842683495E+02 0.  0.
        -13    1    5    5    0    0  0.40611252539E+01  0.81173554655E+01  0.20462190278E+03  0.20482311221E+03  0.00000000000E+00 0.  1.
         14    1    5    5    0    0  0.21356701360E+02  0.70651320329E+02  0.13671823370E+03  0.15536921569E+03  0.00000000000E+00 0. -1.
         13    1    3    3    0    0 -0.15370596998E+02  0.32948465155E+02 -0.85742038405E+02  0.93131915894E+02  0.00000000000E+00 0. -1.
        -14    1    3    3    0    0  0.22311482360E+02 -0.31154225651E+02 -0.35621500393E+02  0.52319014816E+02  0.00000000000E+00 0.  1.
          5    1    4    4  501    0  0.25369647956E+02 -0.67869520635E+02  0.22818172274E+03  0.23944573887E+03  0.41800000000E+01 0. -1.
         -5    1    4    4    0  501 -0.57728359931E+02 -0.12693394662E+02  0.49357488818E+02  0.77118868708E+02  0.41800000000E+01 0. -1.
</event>
<event>
11    1  0.7882745E-009  0.1522274E+03  0.7561462E-02  0.1094624E+00
         22   -1    0    0    0    0  0.00000000000E+00  0.00000000000E+00  0.43403321071E+03  0.43403321071E+03  0.00000000000E+00 0. -1.
         22   -1    0    0    0    0 -0.00000000000E+00 -0.00000000000E+00 -0.11108196397E+04  0.11108196397E+04  0.00000000000E+00 0. -1.
         24    2    1    2    0    0  0.43028473422E+01 -0.38042690118E+02 -0.10281736209E+04  0.10318963503E+04  0.78761172613E+02 0.  0.
         25    2    1    2    0    0 -0.89987406988E+02  0.23733979439E+02  0.15217996848E+02  0.15665327809E+03  0.12509047490E+03 0.  0.
        -24    2    1    2    0    0  0.85684559646E+02  0.14308710679E+02  0.33616919511E+03  0.35630322196E+03  0.79972965926E+02 0.  0.
        -13    1    3    3    0    0  0.90968933405E+01  0.23824874116E+02 -0.30900804059E+03  0.31005861905E+03  0.00000000000E+00 0.  1.
         14    1    3    3    0    0 -0.47940459984E+01 -0.61867564234E+02 -0.71916558033E+03  0.72183773129E+03  0.00000000000E+00 0. -1.
         13    1    5    5    0    0  0.52339809692E+02  0.46942587237E+02  0.22535036436E+03  0.23606323071E+03  0.00000000000E+00 0. -1.
        -14    1    5    5    0    0  0.33344749954E+02 -0.32633876558E+02  0.11081883074E+03  0.12023999125E+03  0.00000000000E+00 0.  1.
          5    1    4    4  501    0  0.31699925944E+02  0.79189736005E+01  0.69661040047E-01  0.32940441715E+02  0.41800000000E+01 0. -1.
         -5    1    4    4    0  501 -0.12168733293E+03  0.15815005838E+02  0.15148335808E+02  0.12371283637E+03  0.41800000000E+01 0. -1.
</event>
<event>
11    1  0.7882745E-009  0.1586099E+03  0.7561462E-02  0.1088392E+00
         22   -1    0    0    0    0  0.00000000000E+00  0.00000000000E+00  0.69567236348E+03  0.69567236348E+03  0.00000000000E+00 0.  1.
         22   -1    0    0    0    0 -0.00000000000E+00 -0.00000000000E+00 -0.35462282267E+03  0.35462282267E+03  0.00000000000E+00 0.  1.
         24    2    1    2    0    0 -0.30897982333E+02 -0.15427378758E+02 -0.31821486042E+03  0.33024478445E+03  0.81291026183E+02 0.  0.
         25    2    1    2    0    0  0.22508134074E+02  0.10707675992E+03  0.34558877197E+03  0.38347278062E+03  0.12509086917E+03 0.  0.
        -24    2    1    2    0    0  0.83898482583E+01 -0.91649381165E+02  0.31367562925E+03  0.33657762107E+03  0.80137980994E+02 0.  0.
        -11    1    3    3    0    0 -0.16675769196E+02  0.22587353403E+02 -0.24439574022E+03  0.24600314561E+03  0.00000000000E+00 0.  1.
         12    1    3    3    0    0 -0.14222213137E+02 -0.38014732161E+02 -0.73819120200E+02  0.84241638843E+02  0.00000000000E+00 0. -1.
         11    1    5    5    0    0 -0.31595597801E+02 -0.56402291334E+02  0.12796071682E+03  0.14336472829E+03  0.00000000000E+00 0. -1.
        -12    1    5    5    0    0  0.39985446059E+02 -0.35247089832E+02  0.18571491243E+03  0.19321289278E+03  0.00000000000E+00 0.  1.
          5    1    4    4  501    0 -0.13788086479E+02  0.86219298565E+02  0.32515903430E+03  0.33670424524E+03  0.41800000000E+01 0. -1.
         -5    1    4    4    0  501  0.36296220554E+02  0.20857461358E+02  0.20429737672E+02  0.46768535386E+02  0.41800000000E+01 0. -1.
</event>
<event>
11    1  0.7882745E-009  0.1385852E+03  0.7561462E-02  0.1109149E+00
         22   -1    0    0    0    0  0.00000000000E+00  0.00000000000E+00  0.12846112375E+04  0.12846112375E+04  0.00000000000E+00 0. -1.
         22   -1    0    0    0    0 -0.00000000000E+00 -0.00000000000E+00 -0.38547913703E+02  0.38547913703E+02  0.00000000000E+00 0.  1.
         24    2    1    2    0    0 -0.30415354436E+02  0.60836668526E+02  0.10383693711E+03  0.14706673177E+03  0.78869005723E+02 0.  0.
         25    2    1    2    0    0  0.46475917123E+02 -0.16834443420E+02  0.30152466746E+03  0.33016232992E+03  0.12508648871E+03 0.  0.
        -24    2    1    2    0    0 -0.16060562687E+02 -0.44002225106E+02  0.84070171927E+03  0.84593008954E+03  0.81389176976E+02 0.  0.
        -11    1    3    3    0    0 -0.49303469330E+02  0.28711976888E+02  0.30240624190E+02  0.64573253412E+02  0.00000000000E+00 0.  1.
         12    1    3    3    0    0  0.18888114893E+02  0.32124691638E+02  0.73596312919E+02  0.82493478363E+02  0.00000000000E+00 0. -1.
         11    1    5    5    0    0 -0.29074607699E+02 -0.59031868126E+02  0.75888208881E+03  0.76172968892E+03  0.00000000000E+00 0. -1.
        -12    1    5    5    0    0  0.13014045012E+02  0.15029643020E+02  0.81819630457E+02  0.84200400622E+02  0.00000000000E+00 0.  1.
          5    1    4    4  501    0  0.11656460156E+02 -0.69666154136E+02  0.14745034440E+03  0.16354914417E+03  0.41800000000E+01 0. -1.
         -5    1    4    4    0  501  0.34819456967E+02  0.52831710715E+02  0.15407432305E+03  0.16661318575E+03  0.41800000000E+01 0. -1.
</event>
<event>
11    1  0.7882745E-009  0.1601993E+03  0.7561462E-02  0.1086890E+00
         22   -1    0    0    0    0  0.00000000000E+00  0.00000000000E+00  0.21256999888E+03  0.21256999888E+03  0.00000000000E+00 0. -1.
         22   -1    0    0    0    0 -0.00000000000E+00 -0.00000000000E+00 -0.71204138664E+03  0.71204138664E+03  0.00000000000E+00 0. -1.
        -24    2    1    2    0    0  0.13713441397E+02 -0.10050120222E+03 -0.60178780018E+03  0.61554599673E+03  0.80372678989E+02 0.  0.
         25    2    1    2    0    0 -0.92076377516E+01  0.87252743861E+02 -0.27750105326E+02  0.15528243731E+03  0.12507895541E+03 0.  0.
         24    2    1    2    0    0 -0.45058036450E+01  0.13248458359E+02  0.13006651774E+03  0.15378295148E+03  0.80845984519E+02 0.  0.
        -13    1    5    5    0    0  0.25877198592E+02  0.34710708969E+02  0.84627806950E+02  0.95059604635E+02  0.00000000000E+00 0.  1.
         14    1    5    5    0    0 -0.30383002237E+02 -0.21462250610E+02  0.45438710792E+02  0.58723346845E+02  0.00000000000E+00 0. -1.
         11    1    3    3    0    0  0.35190847473E+02 -0.10109181782E+03 -0.47144530340E+03  0.48344454230E+03  0.00000000000E+00 0. -1.
        -12    1    3    3    0    0 -0.21477406076E+02  0.59061559860E+00 -0.13034249677E+03  0.13210145443E+03  0.00000000000E+00 0.  1.
          5    1    4    4  501    0  0.47155559011E+02  0.76939264529E+02  0.24641168078E+01  0.90370578418E+02  0.41800000000E+01 0.  1.
         -5    1    4    4    0  501 -0.56363196763E+02  0.10313479332E+02 -0.30214222134E+02  0.64911858889E+02  0.41800000000E+01 0.  1.
</event>
<event>
11    1  0.7882745E-009  0.1534969E+03  0.7561462E-02  0.1093358E+00
         22   -1    0    0    0    0  0.00000000000E+00  0.00000000000E+00  0.47461435055E+03  0.47461435055E+03  0.00000000000E+00 0.  1.
         22   -1    0    0    0    0 -0.00000000000E+00 -0.00000000000E+00 -0.40777189060E+03  0.40777189060E+03  0.00000000000E+00 0.  1.
        -24    2    1    2    0    0 -0.43591705938E+02  0.68619093441E+02 -0.32738769725E+03  0.34681762894E+03  0.80566411281E+02 0.  0.
         25    2    1    2    0    0 -0.51349058953E+02 -0.47845830664E+02  0.25746158362E+02  0.14572460860E+03  0.12508735953E+03 0.  0.
         24    2    1    2    0    0  0.94940764891E+02 -0.20773262777E+02  0.36848399884E+03  0.38984400361E+03  0.82174281049E+02 0.  0.
        -11    1    5    5    0    0  0.95038246703E+02 -0.10176898697E+02  0.36688019049E+03  0.37912651157E+03  0.00000000000E+00 0.  1.
         12    1    5    5    0    0 -0.97481811738E-01 -0.10596364079E+02  0.16038083523E+01  0.10717492040E+02  0.00000000000E+00 0. -1.
         11    1    3    3    0    0 -0.14237742997E+02  0.53696797457E+02 -0.80881398711E+02  0.98121659384E+02  0.00000000000E+00 0. -1.
        -12    1    3    3    0    0 -0.29353962941E+02  0.14922295984E+02 -0.24650629854E+03  0.24869596956E+03  0.00000000000E+00 0.  1.
          5    1    4    4  501    0 -0.14574066665E+02 -0.44169590133E+02  0.72341241269E+02  0.86105073602E+02  0.41800000000E+01 0.  1.
         -5    1    4    4    0  501 -0.36774992289E+02 -0.36762405309E+01 -0.46595082907E+02  0.59619534998E+02  0.41800000000E+01 0.  1.
</event>
<event>
11    1  0.7882745E-009  0.1561366E+03  0.7561462E-02  0.1090768E+00
         22   -1    0    0    0    0  0.00000000000E+00  0.00000000000E+00  0.77444280760E+03  0.77444280760E+03  0.00000000000E+00 0.  1.
         22   -1    0    0    0    0 -0.00000000000E+00 -0.00000000000E+00 -0.53216863681E+02  0.53216863681E+02  0.00000000000E+00 0. -1.
         24    2    1    2    0    0  0.14397401861E+02  0.17694854640E+02  0.96196091199E+02  0.12867429422E+03  0.82358927693E+02 0.  0.
         25    2    1    2    0    0 -0.10436208690E+03 -0.77163209547E+01  0.20448346788E+03  0.26155696214E+03  0.12509024348E+03 0.  0.
        -24    2    1    2    0    0  0.89964685037E+02 -0.99785336855E+01  0.42054638484E+03  0.43742841492E+03  0.79316711307E+02 0.  0.
        -11    1    3    3    0    0 -0.25196992592E+02  0.22069254560E+02  0.77984274234E+02  0.84873361311E+02  0.00000000000E+00 0.  1.
         12    1    3    3    0    0  0.39594394453E+02 -0.43743999194E+01  0.18211816965E+02  0.43800932911E+02  0.00000000000E+00 0. -1.
         11    1    5    5    0    0  0.40139386813E+01  0.12746454146E+02  0.83596882271E+01  0.15762873605E+02  0.00000000000E+00 0. -1.
        -12    1    5    5    0    0  0.85950746356E+02 -0.22724987832E+02  0.41218669661E+03  0.42166554132E+03  0.00000000000E+00 0.  1.
          5    1    4    4  501    0  0.76461412029E+00 -0.46417802115E+02  0.34727098371E+02  0.58126076328E+02  0.41800000000E+01 0.  1.
         -5    1    4    4    0  501 -0.10512670102E+03  0.38701481161E+02  0.16975636951E+03  0.20343088581E+03  0.41800000000E+01 0.  1.
</event>
<event>
11    1  0.7882745E-009  0.2208439E+03  0.7561462E-02  0.1040690E+00
         22   -1    0    0    0    0  0.00000000000E+00  0.00000000000E+00  0.74945953820E+03  0.74945953820E+03  0.00000000000E+00 0. -1.
         22   -1    0    0    0    0 -0.00000000000E+00 -0.00000000000E+00 -0.79623171652E+03  0.79623171652E+03  0.00000000000E+00 0. -1.
        -24    2    1    2    0    0  0.28482548817E+02  0.80301527034E+01 -0.72800663087E+03  0.73265387426E+03  0.76891520615E+02 0.  0.
         25    2    1    2    0    0  0.47164255324E+02 -0.17486183090E+03  0.22509799329E+03  0.31483016221E+03  0.12509115703E+03 0.  0.
         24    2    1    2    0    0 -0.75646804141E+02  0.16683167820E+03  0.45613645926E+03  0.49820721824E+03  0.81207850688E+02 0.  0.
        -11    1    5    5    0    0 -0.81309368579E+02  0.82514213984E+02  0.25998244126E+03  0.28462374934E+03  0.00000000000E+00 0.  1.
         12    1    5    5    0    0  0.56625644381E+01  0.84317464212E+02  0.19615401801E+03  0.21358346890E+03  0.00000000000E+00 0. -1.
         11    1    3    3    0    0 -0.15333136996E+02 -0.16769528850E+02 -0.41520656929E+03  0.41582786988E+03  0.00000000000E+00 0. -1.
        -12    1    3    3    0    0  0.43815685814E+02  0.24799681553E+02 -0.31280006159E+03  0.31682600439E+03  0.00000000000E+00 0.  1.
          5    1    4    4  501    0  0.31558175045E+02 -0.16579171331E+03  0.23832867662E+03  0.29206307728E+03  0.41800000000E+01 0.  1.
         -5    1    4    4    0  501  0.15606080279E+02 -0.90701175870E+01 -0.13230683326E+02  0.22767084925E+02  0.41800000000E+01 0.  1.
</event>
<event>
11    1  0.7882745E-009  0.1876216E+03  0.7561462E-02  0.1063639E+00
         22   -1    0    0    0    0  0.00000000000E+00  0.00000000000E+00  0.12331915541E+04  0.12331915541E+04  0.00000000000E+00 0. -1.
         22   -1    0    0    0    0 -0.00000000000E+00 -0.00000000000E+00 -0.32151254911E+04  0.32151254911E+04  0.00000000000E+00 0.  1.
         24    2    1    2    0    0  0.40343489348E+02 -0.12408105412E+03 -0.28536414623E+04  0.28577031415E+04  0.78574452172E+02 0.  0.
         25    2    1    2    0    0 -0.10093556557E+02  0.25880964530E+03 -0.29537468350E+03  0.41228190151E+03  0.12508337332E+03 0.  0.
        -24    2    1    2    0    0 -0.30249932791E+02 -0.13472859117E+03  0.11670822089E+04  0.11783320022E+04  0.85548660774E+02 0.  0.
        -11    1    3    3    0    0  0.20997673939E+01 -0.96073677244E+02 -0.23103490460E+04  0.23123467030E+04  0.00000000000E+00 0.  1.
         12    1    3    3    0    0  0.38243721954E+02 -0.28007376877E+02 -0.54329241631E+03  0.54535643853E+03  0.00000000000E+00 0. -1.
         11    1    5    5    0    0 -0.42633984904E+02 -0.56987276025E+02  0.78529209529E+03  0.78851054604E+03  0.00000000000E+00 0. -1.
        -12    1    5    5    0    0  0.12384052113E+02 -0.77741315150E+02  0.38179011360E+03  0.38982145614E+03  0.00000000000E+00 0.  1.
          5    1    4    4  501    0 -0.33172085797E+02  0.29349246362E+02 -0.10453861046E+02  0.45700340796E+02  0.41800000000E+01 0. -1.
         -5    1    4    4    0  501  0.23078529240E+02  0.22946039893E+03 -0.28492082245E+03  0.36658156072E+03  0.41800000000E+01 0. -1.
</event>
<event>
11    1  0.7882745E-009  0.1491413E+03  0.7561462E-02  0.1097759E+00
         22   -1    0    0    0    0  0.00000000000E+00  0.00000000000E+00  0.19686794565E+03  0.19686794565E+03  0.00000000000E+00 0. -1.
         22   -1    0    0    0    0 -0.00000000000E+00 -0.00000000000E+00 -0.10295613079E+04  0.10295613079E+04  0.00000000000E+00 0.  1.
         24    2    1    2    0    0  0.13199178165E+02  0.78293202186E+02 -0.91523740045E+03  0.92203140056E+03  0.78602548390E+02 0.  0.
         25    2    1    2    0    0 -0.11468462226E+02 -0.13599062818E+03  0.19052955998E+02  0.18610618719E+03  0.12509005236E+03 0.  0.
        -24    2    1    2    0    0 -0.17307159387E+01  0.57697425992E+02  0.63491082211E+02  0.11829166580E+03  0.81423659540E+02 0.  0.
        -13    1    3    3    0    0  0.17491145908E+02  0.44422493759E+01 -0.49525930552E+03  0.49558798761E+03  0.00000000000E+00 0.  1.
         14    1    3    3    0    0 -0.42919677432E+01  0.73850952810E+02 -0.41997809493E+03  0.42644341294E+03  0.00000000000E+00 0. -1.
         13    1    5    5    0    0 -0.57280059089E+01  0.62653766773E+02  0.79312953922E+02  0.10123660011E+03  0.00000000000E+00 0. -1.
        -14    1    5    5    0    0  0.39972899702E+01 -0.49563407813E+01 -0.15821871711E+02  0.17055065684E+02  0.00000000000E+00 0.  1.
          5    1    4    4  501    0 -0.27930458318E+01 -0.92888620541E+02 -0.48875520479E+02  0.10508275707E+03  0.41800000000E+01 0. -1.
         -5    1    4    4    0  501 -0.86754163944E+01 -0.43102007637E+02  0.67928476476E+02  0.81023430119E+02  0.41800000000E+01 0. -1.
</event>
<event>
11    1  0.7882745E-009  0.1724177E+03  0.7561462E-02  0.1075947E+00
         22   -1    0    0    0    0  0.00000000000E+00  0.00000000000E+00  0.27827029365E+03  0.27827029365E+03  0.00000000000E+00 0.  1.
         22   -1    0    0    0    0 -0.00000000000E+00 -0.00000000000E+00 -0.11540997978E+04  0.11540997978E+04  0.00000000000E+00 0. -1.
        -24    2    1    2    0    0 -0.47267493095E+02  0.10416845901E+03 -0.96448883725E+03  0.97445561570E+03  0.78992063164E+02 0.  0.
         25    2    1    2    0    0  0.10017506317E+03 -0.15225177270E+03 -0.98006915728E+02  0.24180274534E+03  0.12509023365E+03 0.  0.
         24    2    1    2    0    0 -0.52907570077E+02  0.48083313685E+02  0.18666624883E+03  0.21611173039E+03  0.82150931421E+02 0.  0.
        -11    1    5    5    0    0  0.30932255145E+01  0.51775688218E+02  0.10367096454E+03  0.11592221023E+03  0.00000000000E+00 0.  1.
         12    1    5    5    0    0 -0.56000795592E+02 -0.36923745330E+01  0.82995284286E+02  0.10018952016E+03  0.00000000000E+00 0. -1.
         13    1    3    3    0    0 -0.67204498873E+02  0.96018989441E+02 -0.79121338453E+03  0.79984667960E+03  0.00000000000E+00 0. -1.
        -14    1    3    3    0    0  0.19937005778E+02  0.81494695712E+01 -0.17327545272E+03  0.17460893610E+03  0.00000000000E+00 0.  1.
          5    1    4    4  501    0  0.74557371903E+02 -0.10556422257E+03  0.99389143213E+00  0.12930996486E+03  0.41800000000E+01 0.  1.
         -5    1    4    4    0  501  0.25617691270E+02 -0.46687550129E+02 -0.99000807160E+02  0.11249278049E+03  0.41800000000E+01 0.  1.
</event>
<event>
11    1  0.7882745E-009  0.1434413E+03  0.7561462E-02  0.1103775E+00
         22   -1    0    0    0    0  0.00000000000E+00  0.00000000000E+00  0.45513231880E+03  0.45513231880E+03  0.00000000000E+00 0. -1.
         22   -1    0    0    0    0 -0.00000000000E+00 -0.00000000000E+00 -0.52350371527E+03  0.52350371527E+03  0.00000000000E+00 0.  1.
         24    2    1    2    0    0 -0.71363615933E+02 -0.44953058449E+01 -0.42008963105E+03  0.43480611963E+03  0.86418112130E+02 0.  0.
         25    2    1    2    0    0  0.59166805877E+02 -0.67010188079E+02 -0.21470338227E+02  0.15523867091E+03  0.12508794226E+03 0.  0.
        -24    2    1    2    0    0  0.12196810056E+02  0.71505493924E+02  0.37318857281E+03  0.38859124352E+03  0.80446540207E+02 0.  0.
        -13    1    3    3    0    0 -0.73885088280E+02 -0.81371920286E+01 -0.42301605685E+03  0.42949715309E+03  0.00000000000E+00 0.  1.
         14    1    3    3    0    0  0.25214723470E+01  0.36418861837E+01  0.29264258000E+01  0.53089665412E+01  0.00000000000E+00 0. -1.
         13    1    5    5    0    0  0.33709178351E+02  0.64078231386E+02  0.34421840681E+03  0.35175082093E+03  0.00000000000E+00 0. -1.
        -14    1    5    5    0    0 -0.21512368295E+02  0.74272625382E+01  0.28970166003E+02  0.36840422592E+02  0.00000000000E+00 0.  1.
          5    1    4    4  501    0  0.58768437550E+02  0.16016434107E+02  0.17373242822E+02  0.63478794725E+02  0.41800000000E+01 0.  1.
         -5    1    4    4    0  501  0.39836832786E+00 -0.83026622186E+02 -0.38843581050E+02  0.91759876186E+02  0.41800000000E+01 0.  1.
</event>
<event>
11    1  0.7882745E-009  0.1577904E+03  0.7561462E-02  0.1089174E+00
         22   -1    0    0    0    0  0.00000000000E+00  0.00000000000E+00  0.11081668019E+04  0.11081668019E+04  0.00000000000E+00 0. -1.
         22   -1    0    0    0    0 -0.00000000000E+00 -0.00000000000E+00 -0.74042459274E+03  0.74042459274E+03  0.00000000000E+00 0.  1.
         24    2    1    2    0    0  0.53210454889E+02  0.79629622573E+02 -0.69759192866E+03  0.70826012922E+03  0.76326158077E+02 0.  0.
         25    2    1    2    0    0 -0.47163629764E+02 -0.10223916389E+03  0.16376887804E+03  0.23483105363E+03  0.12509246071E+03 0.  0.
        -24    2    1    2    0    0 -0.60468251251E+01  0.22609541313E+02  0.90156525974E+03  0.90550021176E+03  0.81012100699E+02 0.  0.
        -11    1    3    3    0    0  0.55845034344E+02  0.93193310803E+02 -0.61702738721E+03  0.62651931942E+03  0.00000000000E+00 0.  1.
         12    1    3    3    0    0 -0.26345794548E+01 -0.13563688229E+02 -0.80564541452E+02  0.81740809799E+02  0.00000000000E+00 0. -1.
         11    1    5    5    0    0  0.81206489554E+01  0.36390570250E+02  0.84027846713E+03  0.84110529713E+03  0.00000000000E+00 0. -1.
        -12    1    5    5    0    0 -0.14167474080E+02 -0.13781028937E+02  0.61286792617E+02  0.64394914625E+02  0.00000000000E+00 0.  1.
          5    1    4    4  501    0 -0.22861737524E+02  0.23013101847E+01  0.11414990292E+03  0.11651449613E+03  0.41800000000E+01 0.  1.
         -5    1    4    4    0  501 -0.24301892240E+02 -0.10454047407E+03  0.49618975120E+02  0.11831655749E+03  0.41800000000E+01 0.  1.
</event>
<event>
11    1  0.7882745E-009  0.1375265E+03  0.7561462E-02  0.1110352E+00
         22   -1    0    0    0    0  0.00000000000E+00  0.00000000000E+00  0.15413900325E+04  0.15413900325E+04  0.00000000000E+00 0.  1.
         22   -1    0    0    0    0 -0.00000000000E+00 -0.00000000000E+00 -0.38846306781E+03  0.38846306781E+03  0.00000000000E+00 0. -1.
         24    2    1    2    0    0 -0.27698510860E+02 -0.48987443514E+02 -0.35255005963E+03  0.36502683021E+03  0.76066188962E+02 0.  0.
         25    2    1    2    0    0  0.20325967368E+02  0.88103034629E+02  0.18377614605E+03  0.23999229914E+03  0.12508933659E+03 0.  0.
        -24    2    1    2    0    0  0.73725434927E+01 -0.39115591115E+02  0.13217008783E+04  0.13248339710E+04  0.81899054368E+02 0.  0.
        -11    1    3    3    0    0  0.17071585439E+02 -0.20555737691E+02 -0.22928444629E+03  0.23083616418E+03  0.00000000000E+00 0.  1.
         12    1    3    3    0    0 -0.44770096299E+02 -0.28431705823E+02 -0.12326561334E+03  0.13419066603E+03  0.00000000000E+00 0. -1.
         11    1    5    5    0    0  0.64893831894E+01  0.21642591305E+02  0.16521612572E+03  0.16675395662E+03  0.00000000000E+00 0. -1.
        -12    1    5    5    0    0  0.88316030333E+00 -0.60758182420E+02  0.11564847526E+04  0.11580800143E+04  0.00000000000E+00 0.  1.
          5    1    4    4  501    0  0.44897780288E+02  0.46641602512E+02  0.18015553458E+03  0.19148038750E+03  0.41800000000E+01 0.  1.
         -5    1    4    4    0  501 -0.24571812920E+02  0.41461432117E+02  0.36206114790E+01  0.48511911639E+02  0.41800000000E+01 0.  1.
</event>
<event>
11    1  0.7882745E-009  0.1971504E+03  0.7561462E-02  0.1056557E+00
         22   -1    0    0    0    0  0.00000000000E+00  0.00000000000E+00  0.55099088109E+03  0.55099088109E+03  0.00000000000E+00 0.  1.
         22   -1    0    0    0    0 -0.00000000000E+00 -0.00000000000E+00 -0.47291846312E+03  0.47291846312E+03  0.00000000000E+00 0. -1.
         24    2    1    2    0    0 -0.23969370070E+01  0.44515309019E+02 -0.38006858789E+03  0.39117681510E+03  0.81116034943E+02 0.  0.
         25    2    1    2    0    0 -0.38912065563E+02  0.11182150189E+03  0.39435701346E+02  0.17669634446E+03  0.12509287140E+03 0.  0.
        -24    2    1    2    0    0  0.41309002570E+02 -0.15633681091E+03  0.41870530452E+03  0.45603618464E+03  0.80667450247E+02 0.  0.
        -11    1    3    3    0    0  0.16182280128E+02  0.37055413253E+02 -0.72952652280E+02  0.83408988222E+02  0.00000000000E+00 0.  1.
         12    1    3    3    0    0 -0.18579217135E+02  0.74598957667E+01 -0.30711593561E+03  0.30776782688E+03  0.00000000000E+00 0. -1.
         13    1    5    5    0    0  0.44505810193E+02 -0.42431016484E+02  0.20263371290E+03  0.21175830540E+03  0.00000000000E+00 0. -1.
        -14    1    5    5    0    0 -0.31968076237E+01 -0.11390579442E+03  0.21607159162E+03  0.24427787924E+03  0.00000000000E+00 0.  1.
          5    1    4    4  501    0 -0.63186067111E+02  0.12418273069E+03  0.48643588044E+02  0.14763976679E+03  0.41800000000E+01 0. -1.
         -5    1    4    4    0  501  0.24274001549E+02 -0.12361228805E+02 -0.92078866978E+01  0.29056577675E+02  0.41800000000E+01 0. -1.
</event>
<event>
11    1  0.7882745E-009  0.1564721E+03  0.7561462E-02  0.1090443E+00
         22   -1    0    0    0    0  0.00000000000E+00  0.00000000000E+00  0.89977976449E+02  0.89977976449E+02  0.00000000000E+00 0.  1.
         22   -1    0    0    0    0 -0.00000000000E+00 -0.00000000000E+00 -0.88206397657E+03  0.88206397657E+03  0.00000000000E+00 0. -1.
        -24    2    1    2    0    0  0.72495567539E+02 -0.57000089735E+02 -0.57516382887E+03  0.58834691520E+03  0.82668283225E+02 0.  0.
         25    2    1    2    0    0 -0.63222917182E+02  0.81096086583E+02 -0.24700489120E+03  0.29535224953E+03  0.12509125673E+03 0.  0.
         24    2    1    2    0    0 -0.92726503574E+01 -0.24095996848E+02  0.30082719945E+02  0.88342788285E+02  0.78948585129E+02 0.  0.
        -13    1    5    5    0    0 -0.29234655579E+02  0.18437677017E+02  0.21136067181E+02  0.40513533004E+02  0.00000000000E+00 0.  1.
         14    1    5    5    0    0  0.19962005222E+02 -0.42533673866E+02  0.89466527645E+01  0.47829255280E+02  0.00000000000E+00 0. -1.
         11    1    3    3    0    0  0.14885227361E+02 -0.40724208538E+01 -0.34318393928E+03  0.34353074212E+03  0.00000000000E+00 0. -1.
        -12    1    3    3    0    0  0.57610340179E+02 -0.52927668881E+02 -0.23197988959E+03  0.24481617308E+03  0.00000000000E+00 0.  1.
          5    1    4    4  501    0 -0.75301364384E+02  0.71885840227E+02 -0.25657272306E+03  0.27692039311E+03  0.41800000000E+01 0. -1.
         -5    1    4    4    0  501  0.12078447202E+02  0.92102463562E+01  0.95678318552E+01  0.18431856422E+02  0.41800000000E+01 0. -1.
</event>
<event>
11    1  0.7882745E-009  0.1292748E+03  0.7561462E-02  0.1120163E+00
         22   -1    0    0    0    0  0.00000000000E+00  0.00000000000E+00  0.44259125459E+03  0.44259125459E+03  0.00000000000E+00 0.  1.
         22   -1    0    0    0    0 -0.00000000000E+00 -0.00000000000E+00 -0.47863626981E+03  0.47863626981E+03  0.00000000000E+00 0.  1.
        -24    2    1    2    0    0  0.98726069412E+01 -0.71331217303E+01 -0.43511466603E+03  0.44256806236E+03  0.79958535755E+02 0.  0.
         25    2    1    2    0    0 -0.34634131326E+02  0.25188609370E+02  0.96139439272E+02  0.16349733746E+03  0.12511833790E+03 0.  0.
         24    2    1    2    0    0  0.24761524385E+02 -0.18055487640E+02  0.30293021153E+03  0.31516212458E+03  0.81371481408E+02 0.  0.
        -11    1    5    5    0    0  0.44779565964E+02  0.13352397043E+02  0.20806326187E+03  0.21324590729E+03  0.00000000000E+00 0.  1.
         12    1    5    5    0    0 -0.20018041579E+02 -0.31407884683E+02  0.94866949665E+02  0.10191621729E+03  0.00000000000E+00 0. -1.
         11    1    3    3    0    0 -0.34088159285E+02  0.66805943700E+01 -0.17833852909E+03  0.18169002148E+03  0.00000000000E+00 0. -1.
        -12    1    3    3    0    0  0.43960766226E+02 -0.13813716100E+02 -0.25677613693E+03  0.26087804089E+03  0.00000000000E+00 0.  1.
          5    1    4    4  501    0  0.29539691868E+02 -0.37758356226E-01 -0.14415609713E+02  0.33134227390E+02  0.41800000000E+01 0. -1.
         -5    1    4    4    0  501 -0.64173823194E+02  0.25226367726E+02  0.11055504898E+03  0.13036311007E+03  0.41800000000E+01 0. -1.
</event>
<event>
11    1  0.7882745E-009  0.1738732E+03  0.7561462E-02  0.1074709E+00
         22   -1    0    0    0    0  0.00000000000E+00  0.00000000000E+00  0.12579540813E+04  0.12579540813E+04  0.00000000000E+00 0. -1.
         22   -1    0    0    0    0 -0.00000000000E+00 -0.00000000000E+00 -0.13421075308E+03  0.13421075308E+03  0.00000000000E+00 0. -1.
         24    2    1    2    0    0 -0.10800577737E+03 -0.62167836461E+02 -0.52468469800E+02  0.16282041651E+03  0.90705346441E+02 0.  0.
         25    2    1    2    0    0  0.88535975778E+02  0.51351050202E+02  0.23928556558E+03  0.28875523602E+03  0.12508579084E+03 0.  0.
        -24    2    1    2    0    0  0.19469801591E+02  0.10816786260E+02  0.93692623248E+03  0.94058918190E+03  0.79882212950E+02 0.  0.
        -11    1    3    3    0    0 -0.62767437272E+02 -0.53755216256E+02  0.12113178247E+02  0.83523071925E+02  0.00000000000E+00 0.  1.
         12    1    3    3    0    0 -0.45238340097E+02 -0.84126202047E+01 -0.64581648046E+02  0.79297344582E+02  0.00000000000E+00 0. -1.
         11    1    5    5    0    0  0.17267727741E+02  0.45001031848E+02  0.59627279299E+03  0.59821777887E+03  0.00000000000E+00 0. -1.
        -12    1    5    5    0    0  0.22020738501E+01 -0.34184245588E+02  0.34065343949E+03  0.34237140303E+03  0.00000000000E+00 0.  1.
          5    1    4    4  501    0 -0.14638445081E+02 -0.25470128461E+02  0.25046048590E+02  0.38830251971E+02  0.41800000000E+01 0.  1.
         -5    1    4    4    0  501  0.10317442086E+03  0.76821178663E+02  0.21423951699E+03  0.24992498405E+03  0.41800000000E+01 0.  1.
</event>
<event>
11    1  0.7882745E-009  0.1493465E+03  0.7561462E-02  0.1097548E+00
         22   -1    0    0    0    0  0.00000000000E+00  0.00000000000E+00  0.29160580193E+04  0.29160580193E+04  0.00000000000E+00 0. -1.
         22   -1    0    0    0    0 -0.00000000000E+00 -0.00000000000E+00 -0.88962575035E+03  0.88962575035E+03  0.00000000000E+00 0.  1.
         24    2    1    2    0    0  0.34418521030E+02  0.83672911495E+02 -0.66415186474E+03  0.67535245209E+03  0.82567816956E+02 0.  0.
         25    2    1    2    0    0  0.24659162401E+02 -0.57410181936E+02 -0.19662258732E+03  0.24127144154E+03  0.12508982125E+03 0.  0.
        -24    2    1    2    0    0 -0.59077683431E+02 -0.26262729559E+02  0.28872067210E+04  0.28890598760E+04  0.80773842937E+02 0.  0.
        -13    1    3    3    0    0  0.30320462887E+02  0.45244528654E+02 -0.58223668301E+03  0.58477855030E+03  0.00000000000E+00 0.  1.
         14    1    3    3    0    0  0.40980581425E+01  0.38428382840E+02 -0.81915181730E+02  0.90573901794E+02  0.00000000000E+00 0. -1.
         13    1    5    5    0    0 -0.49155198022E+02  0.24555509420E+01  0.25531202498E+04  0.25535945789E+04  0.00000000000E+00 0. -1.
        -14    1    5    5    0    0 -0.99224854094E+01 -0.28718280501E+02  0.33408647122E+03  0.33546529717E+03  0.00000000000E+00 0.  1.
          5    1    4    4  501    0  0.24540920985E+02  0.36689031270E+02 -0.48268544940E+02  0.65541335422E+02  0.41800000000E+01 0.  1.
         -5    1    4    4    0  501  0.11824141605E+00 -0.94099213206E+02 -0.14835404238E+03  0.17573010612E+03  0.41800000000E+01 0.  1.
</event>
<event>
11    1  0.7882745E-009  0.1652137E+03  0.7561462E-02  0.1082274E+00
         22   -1    0    0    0    0  0.00000000000E+00  0.00000000000E+00  0.37004969067E+03  0.37004969067E+03  0.00000000000E+00 0.  1.
         22   -1    0    0    0    0 -0.00000000000E+00 -0.00000000000E+00 -0.20956935211E+04  0.20956935211E+04  0.00000000000E+00 0.  1.
        -24    2    1    2    0    0 -0.77605286043E+02  0.75893913379E+02 -0.19369506207E+04  0.19418080373E+04  0.84013571116E+02 0.  0.
         25    2    1    2    0    0  0.36855127572E+02 -0.10016596967E+03 -0.10382164544E+03  0.19445326002E+03  0.12506643980E+03 0.  0.
         24    2    1    2    0    0  0.40750158471E+02  0.24272056288E+02  0.31512843570E+03  0.32948191446E+03  0.83682093863E+02 0.  0.
        -13    1    5    5    0    0  0.93155196361E+01  0.52767047100E+02  0.16583172999E+03  0.17427364355E+03  0.00000000000E+00 0.  1.
         14    1    5    5    0    0  0.31434638835E+02 -0.28494990812E+02  0.14929670572E+03  0.15520827091E+03  0.00000000000E+00 0. -1.
         13    1    3    3    0    0  0.13435486615E+02  0.29434476316E+02 -0.65010812352E+03  0.65091279982E+03  0.00000000000E+00 0. -1.
        -14    1    3    3    0    0 -0.91040772657E+02  0.46459437062E+02 -0.12868424972E+04  0.12908952375E+04  0.00000000000E+00 0.  1.
          5    1    4    4  501    0  0.71634886748E+02 -0.59082719804E+02 -0.20525063122E+02  0.95189681137E+02  0.41800000000E+01 0. -1.
         -5    1    4    4    0  501 -0.34779759176E+02 -0.41083249862E+02 -0.83296582318E+02  0.99263578887E+02  0.41800000000E+01 0. -1.
</event>
<event>
11    1  0.7882745E-009  0.1426388E+03  0.7561462E-02  0.1104647E+00
         22   -1    0    0    0    0  0.00000000000E+00  0.00000000000E+00  0.10045051165E+04  0.10045051165E+04  0.00000000000E+00 0.  1.
         22   -1    0    0    0    0 -0.00000000000E+00 -0.00000000000E+00 -0.28914808729E+03  0.28914808729E+03  0.00000000000E+00 0.  1.
        -24    2    1    2    0    0 -0.98746736755E+01  0.35623762729E+01 -0.23723667120E+03  0.24910276595E+03  0.75237956763E+02 0.  0.
         25    2    1    2    0    0 -0.65593007264E+01  0.63377607046E+02  0.72189997268E+02  0.15786132101E+03  0.12509618485E+03 0.  0.
         24    2    1    2    0    0  0.16433974402E+02 -0.66939983319E+02  0.88040370315E+03  0.88668911683E+03  0.79723726112E+02 0.  0.
        -11    1    5    5    0    0 -0.58968015027E+00 -0.81514705045E+02  0.62273072113E+03  0.62804342676E+03  0.00000000000E+00 0.  1.
         12    1    5    5    0    0  0.17023654552E+02  0.14574721726E+02  0.25767298202E+03  0.25864569007E+03  0.00000000000E+00 0. -1.
         13    1    3    3    0    0  0.12653610623E+02 -0.19323001367E+02 -0.23440285290E+02  0.32908041846E+02  0.00000000000E+00 0. -1.
        -14    1    3    3    0    0 -0.22528284299E+02  0.22885377640E+02 -0.21379638591E+03  0.21619472410E+03  0.00000000000E+00 0.  1.
          5    1    4    4  501    0 -0.31392877506E+02  0.91869650030E+02  0.70018940886E+02  0.11977341039E+03  0.41800000000E+01 0. -1.
         -5    1    4    4    0  501  0.24833576779E+02 -0.28492042984E+02  0.21710563815E+01  0.38087910613E+02  0.41800000000E+01 0. -1.
</event>
<event>
11    1  0.7882745E-009  0.1431470E+03  0.7561462E-02  0.1104094E+00
         22   -1    0    0    0    0  0.00000000000E+00  0.00000000000E+00  0.10255936859E+04  0.10255936859E+04  0.00000000000E+00 0.  1.
         22   -1    0    0    0    0 -0.00000000000E+00 -0.00000000000E+00 -0.19390048477E+03  0.19390048477E+03  0.00000000000E+00 0.  1.
        -24    2    1    2    0    0 -0.39237900761E+02  0.57519606442E+02 -0.14219647705E+03  0.17700733197E+03  0.79143158298E+02 0.  0.
         25    2    1    2    0    0  0.49362275095E+02 -0.50552877938E+02  0.12723170498E+03  0.19189136807E+03  0.12506863202E+03 0.  0.
         24    2    1    2    0    0 -0.10124374334E+02 -0.69667285037E+01  0.84665797323E+03  0.85059547067E+03  0.80820126333E+02 0.  0.
        -13    1    5    5    0    0 -0.26181136782E+02 -0.21182764654E+02  0.77657034354E+03  0.77730023794E+03  0.00000000000E+00 0.  1.
         14    1    5    5    0    0  0.16056762448E+02  0.14216036151E+02  0.70087629694E+02  0.73295232726E+02  0.00000000000E+00 0. -1.
         13    1    3    3    0    0 -0.63593697529E+02  0.38640382661E+02 -0.95697594457E+02  0.12122403690E+03  0.00000000000E+00 0. -1.
        -14    1    3    3    0    0  0.24355796768E+02  0.18879223781E+02 -0.46498882593E+02  0.55783295072E+02  0.00000000000E+00 0.  1.
          5    1    4    4  501    0  0.57369146553E+02 -0.67753832793E+02  0.31634420047E+02  0.94339863081E+02  0.41800000000E+01 0.  1.
         -5    1    4    4    0  501 -0.80068714579E+01  0.17200954855E+02  0.95597284932E+02  0.97551504985E+02  0.41800000000E+01 0.  1.
</event>
<event>
11    1  0.7882745E-009  0.1404826E+03  0.7561462E-02  0.1107021E+00
         22   -1    0    0    0    0  0.00000000000E+00  0.00000000000E+00  0.16754634346E+04  0.16754634346E+04  0.00000000000E+00 0.  1.
         22   -1    0    0    0    0 -0.00000000000E+00 -0.00000000000E+00 -0.12554885122E+03  0.12554885122E+03  0.00000000000E+00 0. -1.
        -24    2    1    2    0    0 -0.46416956892E+02  0.25689245251E+02 -0.94774916631E+02  0.13403601785E+03  0.78542332850E+02 0.  0.
         25    2    1    2    0    0 -0.49978930209E+01 -0.69223362326E+02  0.59825340381E+03  0.61511876045E+03  0.12508837461E+03 0.  0.
         24    2    1    2    0    0  0.51414849912E+02  0.43534117076E+02  0.10464360962E+04  0.10518575075E+04  0.82686193273E+02 0.  0.
        -11    1    5    5    0    0  0.45088319056E+02  0.24168377619E+02  0.99801202345E+03  0.99932230333E+03  0.00000000000E+00 0.  1.
         12    1    5    5    0    0  0.63265308565E+01  0.19365739456E+02  0.48424072769E+02  0.52535204206E+02  0.00000000000E+00 0. -1.
         13    1    3    3    0    0 -0.64705695819E+02  0.39925147186E+01 -0.76541857839E+02  0.10030664607E+03  0.00000000000E+00 0. -1.
        -14    1    3    3    0    0  0.18288738928E+02  0.21696730532E+02 -0.18233058792E+02  0.33729371774E+02  0.00000000000E+00 0.  1.
          5    1    4    4  501    0  0.85621178203E+01  0.17907964506E+02  0.36743647629E+03  0.36799598036E+03  0.41800000000E+01 0. -1.
         -5    1    4    4    0  501 -0.13560010841E+02 -0.87131326832E+02  0.23081692753E+03  0.24712278010E+03  0.41800000000E+01 0. -1.
</event>
<event>
11    1  0.7882745E-009  0.1360728E+03  0.7561462E-02  0.1112025E+00
         22   -1    0    0    0    0  0.00000000000E+00  0.00000000000E+00  0.51379828755E+03  0.51379828755E+03  0.00000000000E+00 0.  1.
         22   -1    0    0    0    0 -0.00000000000E+00 -0.00000000000E+00 -0.21096983240E+03  0.21096983240E+03  0.00000000000E+00 0.  1.
         24    2    1    2    0    0  0.19629605076E+02  0.39808960785E+02 -0.15619323944E+03  0.18029396189E+03  0.78355024671E+02 0.  0.
         25    2    1    2    0    0  0.19701329637E+02 -0.73087552407E+02  0.11125848353E+03  0.18372913781E+03  0.12509201900E+03 0.  0.
        -24    2    1    2    0    0 -0.39330934713E+02  0.33278591622E+02  0.34776321106E+03  0.36074502025E+03  0.80890862178E+02 0.  0.
        -13    1    3    3    0    0  0.65553123245E+01  0.46967267624E+02 -0.15829041838E+03  0.16524149872E+03  0.00000000000E+00 0.  1.
         14    1    3    3    0    0  0.13074292752E+02 -0.71583068389E+01  0.20971789436E+01  0.15052463163E+02  0.00000000000E+00 0. -1.
         13    1    5    5    0    0 -0.12504534261E+02  0.21456541008E+02  0.20586537274E+02  0.32257588968E+02  0.00000000000E+00 0. -1.
        -14    1    5    5    0    0 -0.26826400452E+02  0.11822050614E+02  0.32717667378E+03  0.32848743128E+03  0.00000000000E+00 0.  1.
          5    1    4    4  501    0  0.38173209379E+02 -0.11674033201E+02  0.11250450551E+03  0.11944962589E+03  0.41800000000E+01 0.  1.
         -5    1    4    4    0  501 -0.18471879742E+02 -0.61413519206E+02 -0.12460219765E+01  0.64279511924E+02  0.41800000000E+01 0.  1.
</event>
<event>
11    1  0.7882745E-009  0.1324069E+03  0.7561462E-02  0.1116347E+00
         22   -1    0    0    0    0  0.00000000000E+00  0.00000000000E+00  0.57645246803E+03  0.57645246803E+03  0.00000000000E+00 0.  1.
         22   -1    0    0    0    0 -0.00000000000E+00 -0.00000000000E+00 -0.67317020766E+03  0.67317020766E+03  0.00000000000E+00 0.  1.
        -24    2    1    2    0    0 -0.43839713932E+02  0.12438677241E+01 -0.64583671366E+03  0.65299362954E+03  0.85861235653E+02 0.  0.
         25    2    1    2    0    0  0.16378203491E+02  0.53268959743E+01  0.19576571747E+03  0.23295609917E+03  0.12509079355E+03 0.  0.
         24    2    1    2    0    0  0.27461510441E+02 -0.65707636984E+01  0.35335325655E+03  0.36367294698E+03  0.81253793507E+02 0.  0.
        -13    1    5    5    0    0  0.42629917085E+02  0.14199883337E+01  0.33793222579E+03  0.34061343988E+03  0.00000000000E+00 0.  1.
         14    1    5    5    0    0 -0.15168406644E+02 -0.79907520321E+01  0.15421030762E+02  0.23059507104E+02  0.00000000000E+00 0. -1.
         13    1    3    3    0    0 -0.75735763864E+01  0.34166225780E+02 -0.12341390015E+03  0.12827969751E+03  0.00000000000E+00 0. -1.
        -14    1    3    3    0    0 -0.36266137546E+02 -0.32922358056E+02 -0.52242281351E+03  0.52471393203E+03  0.00000000000E+00 0.  1.
          5    1    4    4  501    0 -0.50891779242E+02  0.20978608522E+02  0.67335185102E+02  0.87072238760E+02  0.41800000000E+01 0.  1.
         -5    1    4    4    0  501  0.67269982733E+02 -0.15651712548E+02  0.12843053237E+03  0.14588386041E+03  0.41800000000E+01 0.  1.
</event>
<event>
11    1  0.7882745E-009  0.1329280E+03  0.7561462E-02  0.1115723E+00
         22   -1    0    0    0    0  0.00000000000E+00  0.00000000000E+00  0.34602968102E+03  0.34602968102E+03  0.00000000000E+00 0. -1.
         22   -1    0    0    0    0 -0.00000000000E+00 -0.00000000000E+00 -0.28864976274E+03  0.28864976274E+03  0.00000000000E+00 0.  1.
         24    2    1    2    0    0  0.29112552204E+02 -0.26225450578E+02 -0.22086849878E+03  0.23873448309E+03  0.81706454526E+02 0.  0.
         25    2    1    2    0    0 -0.61930973665E+02 -0.26069436492E+01  0.51229857371E+02  0.14870931988E+03  0.12509085450E+03 0.  0.
        -24    2    1    2    0    0  0.32818421461E+02  0.28832394228E+02  0.22701855969E+03  0.24723564079E+03  0.87633782795E+02 0.  0.
        -13    1    3    3    0    0  0.90983162916E+01  0.22877092020E+02 -0.13921148682E+03  0.14137177498E+03  0.00000000000E+00 0.  1.
         14    1    3    3    0    0  0.20014235912E+02 -0.49102542599E+02 -0.81657011954E+02  0.97362708108E+02  0.00000000000E+00 0. -1.
         11    1    5    5    0    0  0.17248232243E+02  0.11582137553E+02  0.22261716037E+03  0.22358454222E+03  0.00000000000E+00 0. -1.
        -12    1    5    5    0    0  0.15570189219E+02  0.17250256674E+02  0.44013993192E+01  0.23651098571E+02  0.00000000000E+00 0.  1.
          5    1    4    4  501    0 -0.97849128254E+01  0.58306340941E+02  0.19928374892E+02  0.62529884366E+02  0.41800000000E+01 0. -1.
         -5    1    4    4    0  501 -0.52146060840E+02 -0.60913284591E+02  0.31301482479E+02  0.86179435517E+02  0.41800000000E+01 0. -1.
</event>
<event>
11    1  0.7882745E-009  0.1566328E+03  0.7561462E-02  0.1090288E+00
         22   -1    0    0    0    0  0.00000000000E+00  0.00000000000E+00  0.17858265698E+04  0.17858265698E+04  0.00000000000E+00 0.  1.
         22   -1    0    0    0    0 -0.00000000000E+00 -0.00000000000E+00 -0.17721901402E+03  0.17721901402E+03  0.00000000000E+00 0. -1.
         24    2    1    2    0    0  0.64899774853E+02  0.34513162901E+02 -0.13120648291E+03  0.16664058607E+03  0.71769106016E+02 0.  0.
         25    2    1    2    0    0 -0.13562081265E+03 -0.86251310653E+02  0.37756540852E+03  0.42899316555E+03  0.12508878831E+03 0.  0.
        -24    2    1    2    0    0  0.70721037794E+02  0.51738147752E+02  0.13622486301E+04  0.13674118322E+04  0.80096737530E+02 0.  0.
        -11    1    3    3    0    0  0.93251817876E+01  0.42632815829E+02 -0.77433627576E+02  0.88884659421E+02  0.00000000000E+00 0.  1.
         12    1    3    3    0    0  0.55574593065E+02 -0.81196529275E+01 -0.53772855332E+02  0.77755926646E+02  0.00000000000E+00 0. -1.
         13    1    5    5    0    0  0.14165929082E+02  0.11203749555E+02  0.47414549942E+02  0.50737925628E+02  0.00000000000E+00 0. -1.
        -14    1    5    5    0    0  0.56555108712E+02  0.40534398197E+02  0.13148340802E+04  0.13166739065E+04  0.00000000000E+00 0.  1.
          5    1    4    4  501    0  0.94614223972E+01 -0.42805527732E+02  0.42198062809E+02  0.60991643879E+02  0.41800000000E+01 0. -1.
         -5    1    4    4    0  501 -0.14508223504E+03 -0.43445782921E+02  0.33536734571E+03  0.36800152167E+03  0.41800000000E+01 0. -1.
</event>
<event>
11    1  0.7882745E-009  0.2619844E+03  0.7561462E-02  0.1017702E+00
         22   -1    0    0    0    0  0.00000000000E+00  0.00000000000E+00  0.88050765998E+03  0.88050765998E+03  0.00000000000E+00 0.  1.
         22   -1    0    0    0    0 -0.00000000000E+00 -0.00000000000E+00 -0.14787261122E+03  0.14787261122E+03  0.00000000000E+00 0.  1.
         24    2    1    2    0    0  0.22978090524E+03  0.64707153236E+02  0.19373992640E+03  0.31779413191E+03  0.80446697246E+02 0.  0.
         25    2    1    2    0    0 -0.21640930758E+03 -0.56141245574E+02  0.11696704115E+03  0.28162540505E+03  0.12508697852E+03 0.  0.
        -24    2    1    2    0    0 -0.13371597667E+02 -0.85659076623E+01  0.42192808121E+03  0.42896073424E+03  0.75708859508E+02 0.  0.
        -11    1    3    3    0    0  0.15990094259E+03  0.88469454724E+01  0.14436671066E+03  0.21561151879E+03  0.00000000000E+00 0.  1.
         12    1    3    3    0    0  0.69879962649E+02  0.55860207764E+02  0.49373215739E+02  0.10218261312E+03  0.00000000000E+00 0. -1.
         11    1    5    5    0    0  0.13554558709E+00 -0.21506425930E+00 -0.33633421058E+01  0.33729357187E+01  0.00000000000E+00 0. -1.
        -12    1    5    5    0    0 -0.13507143254E+02 -0.83508434030E+01  0.42529142331E+03  0.42558779852E+03  0.00000000000E+00 0.  1.
          5    1    4    4  501    0 -0.20793434371E+03 -0.23549596212E+02  0.12871443948E+03  0.24571559597E+03  0.41800000000E+01 0.  1.
         -5    1    4    4    0  501 -0.84749638672E+01 -0.32591649362E+02 -0.11747398323E+02  0.35909809078E+02  0.41800000000E+01 0.  1.
</event>
<event>
11    1  0.7882745E-009  0.1608572E+03  0.7561462E-02  0.1086274E+00
         22   -1    0    0    0    0  0.00000000000E+00  0.00000000000E+00  0.24733003920E+03  0.24733003920E+03  0.00000000000E+00 0. -1.
         22   -1    0    0    0    0 -0.00000000000E+00 -0.00000000000E+00 -0.10148179561E+04  0.10148179561E+04  0.00000000000E+00 0.  1.
         24    2    1    2    0    0  0.67363930183E+01  0.40924398220E+02 -0.79132456010E+03  0.79650775014E+03  0.80683649253E+02 0.  0.
         25    2    1    2    0    0  0.93820770248E+02 -0.21352724378E+02 -0.16971235296E+03  0.23172524103E+03  0.12504410747E+03 0.  0.
        -24    2    1    2    0    0 -0.10055716327E+03 -0.19571673842E+02  0.19354899620E+03  0.23391500410E+03  0.82220567455E+02 0.  0.
        -11    1    3    3    0    0 -0.37552488669E+00  0.55828491607E+02 -0.74896552608E+03  0.75104348793E+03  0.00000000000E+00 0.  1.
         12    1    3    3    0    0  0.71119179049E+01 -0.14904093387E+02 -0.42359034018E+02  0.45464262217E+02  0.00000000000E+00 0. -1.
         13    1    5    5    0    0 -0.38344087690E+02  0.25024335470E+02  0.11709037716E+03  0.12572447196E+03  0.00000000000E+00 0. -1.
        -14    1    5    5    0    0 -0.62213075576E+02 -0.44596009312E+02  0.76458619038E+02  0.10819053214E+03  0.00000000000E+00 0.  1.
          5    1    4    4  501    0  0.25025746502E+02 -0.66650920111E+02 -0.53189127174E+02  0.88967346758E+02  0.41800000000E+01 0.  1.
         -5    1    4    4    0  501  0.68795023746E+02  0.45298195733E+02 -0.11652322579E+03  0.14275789427E+03  0.41800000000E+01 0.  1.
</event>
<event>
11    1  0.7882745E-009  0.1453463E+03  0.7561462E-02  0.1101731E+00
         22   -1    0    0    0    0  0.00000000000E+00  0.00000000000E+00  0.37836298210E+03  0.37836298210E+03  0.00000000000E+00 0.  1.
         22   -1    0    0    0    0 -0.00000000000E+00 -0.00000000000E+00 -0.11505214214E+04  0.11505214214E+04  0.00000000000E+00 0. -1.
         24    2    1    2    0    0 -0.31996941732E+02 -0.62548628420E+02 -0.87178695054E+03  0.87795608140E+03  0.76539261454E+02 0.  0.
         25    2    1    2    0    0  0.61975907022E+02  0.84412045483E+02 -0.24564570940E+03  0.29489413445E+03  0.12511726305E+03 0.  0.
        -24    2    1    2    0    0 -0.29978965289E+02 -0.21863417064E+02  0.34527422066E+03  0.35603418763E+03  0.78544942212E+02 0.  0.
        -13    1    3    3    0    0 -0.21697237388E+02 -0.67772396791E+02 -0.41740880716E+03  0.42343119887E+03  0.00000000000E+00 0.  1.
         14    1    3    3    0    0 -0.10299704344E+02  0.52237683713E+01 -0.45437814338E+03  0.45452488254E+03  0.00000000000E+00 0. -1.
         11    1    5    5    0    0  0.11986080245E+02  0.22608194790E+02  0.93084289456E+02  0.96537461821E+02  0.00000000000E+00 0. -1.
        -12    1    5    5    0    0 -0.41965045534E+02 -0.44471611854E+02  0.25218993120E+03  0.25949672581E+03  0.00000000000E+00 0.  1.
          5    1    4    4  501    0  0.71958929815E+02  0.35500028343E+02 -0.22806347034E+03  0.24180313997E+03  0.41800000000E+01 0. -1.
         -5    1    4    4    0  501 -0.99830227938E+01  0.48912017141E+02 -0.17582239056E+02  0.53090994482E+02  0.41800000000E+01 0. -1.
</event>
<event>
11    1  0.7882745E-009  0.1426092E+03  0.7561462E-02  0.1104679E+00
         22   -1    0    0    0    0  0.00000000000E+00  0.00000000000E+00  0.53700208858E+03  0.53700208858E+03  0.00000000000E+00 0.  1.
         22   -1    0    0    0    0 -0.00000000000E+00 -0.00000000000E+00 -0.13157789915E+04  0.13157789915E+04  0.00000000000E+00 0. -1.
         24    2    1    2    0    0  0.26006216634E+02  0.63263383809E+02 -0.12716824329E+04  0.12760888448E+04  0.80919407909E+02 0.  0.
         25    2    1    2    0    0  0.85842998296E+01 -0.83417343378E+02  0.11763325542E+03  0.19109587791E+03  0.12509160001E+03 0.  0.
        -24    2    1    2    0    0 -0.34590516464E+02  0.20153959569E+02  0.37527227458E+03  0.38559635739E+03  0.79073287858E+02 0.  0.
        -11    1    3    3    0    0 -0.68835291546E+01  0.32673098180E+01 -0.10096754419E+02  0.12649218825E+02  0.00000000000E+00 0.  1.
         12    1    3    3    0    0  0.32889745789E+02  0.59996073991E+02 -0.12615856785E+04  0.12634396260E+04  0.00000000000E+00 0. -1.
         11    1    5    5    0    0 -0.37150023147E+02  0.19491834789E+02  0.80182071634E+02  0.90494311726E+02  0.00000000000E+00 0. -1.
        -12    1    5    5    0    0  0.25595066829E+01  0.66212477962E+00  0.29509020294E+03  0.29510204567E+03  0.00000000000E+00 0.  1.
          5    1    4    4  501    0 -0.37031250034E+02 -0.16499313545E+02 -0.80290693004E+01  0.41538887567E+02  0.41800000000E+01 0. -1.
         -5    1    4    4    0  501  0.45615549863E+02 -0.66918029833E+02  0.12566232472E+03  0.14955699034E+03  0.41800000000E+01 0. -1.
</event>
<event>
11    1  0.7882745E-009  0.1372962E+03  0.7561462E-02  0.1110616E+00
         22   -1    0    0    0    0  0.00000000000E+00  0.00000000000E+00  0.16896919793E+04  0.16896919793E+04  0.00000000000E+00 0. -1.
         22   -1    0    0    0    0 -0.00000000000E+00 -0.00000000000E+00 -0.85681434552E+02  0.85681434552E+02  0.00000000000E+00 0.  1.
         24    2    1    2    0    0  0.13486658008E+02  0.34933114825E+01 -0.51238209564E+02  0.97034637068E+02  0.81217445799E+02 0.  0.
         25    2    1    2    0    0 -0.64480157863E+02  0.15339927290E+02  0.52972139804E+03  0.54830928647E+03  0.12508121348E+03 0.  0.
        -24    2    1    2    0    0  0.50993499855E+02 -0.18833238773E+02  0.11255273562E+04  0.11300294903E+04  0.84851584213E+02 0.  0.
        -11    1    3    3    0    0  0.40250431737E+02  0.14457872710E+02 -0.52945764068E+02  0.68061599093E+02  0.00000000000E+00 0.  1.
         12    1    3    3    0    0 -0.26763773729E+02 -0.10964561227E+02  0.17075545035E+01  0.28973037975E+02  0.00000000000E+00 0. -1.
         11    1    5    5    0    0  0.32568813353E+02  0.31841782692E+02  0.60684772572E+03  0.60855467210E+03  0.00000000000E+00 0. -1.
        -12    1    5    5    0    0  0.18424686501E+02 -0.50675021465E+02  0.51867963051E+03  0.52147481816E+03  0.00000000000E+00 0.  1.
          5    1    4    4  501    0 -0.42156533043E+02 -0.29861404188E+02  0.45579254848E+03  0.45872998200E+03  0.41800000000E+01 0.  1.
         -5    1    4    4    0  501 -0.22323624820E+02  0.45201331478E+02  0.73928849563E+02  0.89579304475E+02  0.41800000000E+01 0.  1.
</event>
<event>
11    1  0.7882745E-009  0.1264338E+03  0.7561462E-02  0.1123730E+00
         22   -1    0    0    0    0  0.00000000000E+00  0.00000000000E+00  0.13496813360E+03  0.13496813360E+03  0.00000000000E+00 0. -1.
         22   -1    0    0    0    0 -0.00000000000E+00 -0.00000000000E+00 -0.39180365479E+03  0.39180365479E+03  0.00000000000E+00 0. -1.
        -24    2    1    2    0    0  0.13497718589E+02 -0.17481680108E+02 -0.24763457493E+03  0.26134199420E+03  0.80554066856E+02 0.  0.
         25    2    1    2    0    0 -0.51976385554E+01 -0.30975201996E+01 -0.86500379721E+02  0.15220003887E+03  0.12508367624E+03 0.  0.
         24    2    1    2    0    0 -0.83000800337E+01  0.20579200307E+02  0.77299433465E+02  0.11322975531E+03  0.79708094071E+02 0.  0.
        -13    1    5    5    0    0  0.11307979774E+02 -0.35061867404E+01 -0.13092218895E+02  0.17651344074E+02  0.00000000000E+00 0.  1.
         14    1    5    5    0    0 -0.19608059808E+02  0.24085387048E+02  0.90391652360E+02  0.95578411239E+02  0.00000000000E+00 0. -1.
         13    1    3    3    0    0 -0.33892712800E+02 -0.87592792002E+01 -0.92825981981E+02  0.99207378172E+02  0.00000000000E+00 0. -1.
        -14    1    3    3    0    0  0.47390431389E+02 -0.87224009074E+01 -0.15480859295E+03  0.16213461603E+03  0.00000000000E+00 0.  1.
          5    1    4    4  501    0 -0.55621165877E+00  0.59426010624E+02 -0.58202434244E+02  0.83287189063E+02  0.41800000000E+01 0.  1.
         -5    1    4    4    0  501 -0.46414268967E+01 -0.62523530823E+02 -0.28297945477E+02  0.68912849807E+02  0.41800000000E+01 0.  1.
</event>
<event>
11    1  0.7882745E-009  0.1291184E+03  0.7561462E-02  0.1120357E+00
         22   -1    0    0    0    0  0.00000000000E+00  0.00000000000E+00  0.31297606856E+03  0.31297606856E+03  0.00000000000E+00 0.  1.
         22   -1    0    0    0    0 -0.00000000000E+00 -0.00000000000E+00 -0.25538092714E+03  0.25538092714E+03  0.00000000000E+00 0. -1.
         24    2    1    2    0    0  0.26146989198E+02  0.78640568423E+01 -0.14385585182E+03  0.16742394433E+03  0.81183511858E+02 0.  0.
         25    2    1    2    0    0 -0.54257670051E+02  0.31668039759E+01 -0.42368792450E+02  0.14281368087E+03  0.12508680771E+03 0.  0.
        -24    2    1    2    0    0  0.28110680853E+02 -0.11030860818E+02  0.24381978569E+03  0.25811937050E+03  0.79155740566E+02 0.  0.
        -11    1    3    3    0    0  0.13795699961E+02 -0.32942887084E+02 -0.32900975278E+02  0.48559544078E+02  0.00000000000E+00 0.  1.
         12    1    3    3    0    0  0.12351289237E+02  0.40806943926E+02 -0.11095487655E+03  0.11886440025E+03  0.00000000000E+00 0. -1.
         13    1    5    5    0    0  0.17656162254E+02 -0.15448543790E+01  0.43707762973E+01  0.18254597395E+02  0.00000000000E+00 0. -1.
        -14    1    5    5    0    0  0.10454518598E+02 -0.94860064391E+01  0.23944900939E+03  0.23986477310E+03  0.00000000000E+00 0.  1.
          5    1    4    4  501    0 -0.79259777134E+02 -0.31379549192E+02 -0.42343454620E+01  0.85452855191E+02  0.41800000000E+01 0. -1.
         -5    1    4    4    0  501  0.25002107083E+02  0.34546353168E+02 -0.38134446988E+02  0.57360825682E+02  0.41800000000E+01 0. -1.
</event>
<event>
11    1  0.7882745E-009  0.1409123E+03  0.7561462E-02  0.1106544E+00
         22   -1    0    0    0    0  0.00000000000E+00  0.00000000000E+00  0.70143906892E+03  0.70143906892E+03  0.00000000000E+00 0.  1.
         22   -1    0    0    0    0 -0.00000000000E+00 -0.00000000000E+00 -0.80220348089E+03  0.80220348089E+03  0.00000000000E+00 0. -1.
        -24    2    1    2    0    0 -0.15133769781E+02  0.64017812539E+02 -0.57941113057E+03  0.58857535386E+03  0.79852223774E+02 0.  0.
         25    2    1    2    0    0  0.55283954225E+02 -0.46371855750E+02 -0.19096276150E+03  0.23941557273E+03  0.12508547311E+03 0.  0.
         24    2    1    2    0    0 -0.40150184444E+02 -0.17645956789E+02  0.66960948009E+03  0.67565162322E+03  0.78770825964E+02 0.  0.
        -13    1    5    5    0    0 -0.47305166000E+02 -0.24947176601E+02  0.65805309536E+03  0.66022270232E+03  0.00000000000E+00 0.  1.
         14    1    5    5    0    0  0.71549815563E+01  0.73012198128E+01  0.11556384733E+02  0.15428920893E+02  0.00000000000E+00 0. -1.
         11    1    3    3    0    0 -0.37573803662E+02  0.21284006787E+02 -0.41456762151E+03  0.41681064343E+03  0.00000000000E+00 0. -1.
        -12    1    3    3    0    0  0.22440033881E+02  0.42733805752E+02 -0.16484350905E+03  0.17176471044E+03  0.00000000000E+00 0.  1.
          5    1    4    4  501    0  0.79650827167E+02  0.90251231076E+01 -0.13398749020E+03  0.15619163564E+03  0.41800000000E+01 0.  1.
         -5    1    4    4    0  501 -0.24366872942E+02 -0.55396978858E+02 -0.56975271306E+02  0.83223937085E+02  0.41800000000E+01 0.  1.
</event>
<event>
11    1  0.7882745E-009  0.2177774E+03  0.7561462E-02  0.1042619E+00
         22   -1    0    0    0    0  0.00000000000E+00  0.00000000000E+00  0.85298365743E+03  0.85298365743E+03  0.00000000000E+00 0.  1.
         22   -1    0    0    0    0 -0.00000000000E+00 -0.00000000000E+00 -0.49076579610E+03  0.49076579610E+03  0.00000000000E+00 0.  1.
         24    2    1    2    0    0 -0.33599198279E+02 -0.10810612922E+03 -0.35663219119E+03  0.38277690645E+03  0.80720499350E+02 0.  0.
         25    2    1    2    0    0 -0.12069553000E+03  0.19151569634E+03  0.47977538074E+02  0.26304750133E+03  0.12508585407E+03 0.  0.
        -24    2    1    2    0    0  0.15429472828E+03 -0.83409567113E+02  0.67087251445E+03  0.69792504576E+03  0.79154404686E+02 0.  0.
        -13    1    3    3    0    0 -0.36819045881E+02 -0.87407423999E+02 -0.34698568698E+03  0.35971484106E+03  0.00000000000E+00 0.  1.
         14    1    3    3    0    0  0.32198476021E+01 -0.20698705224E+02 -0.96465042149E+01  0.23062065391E+02  0.00000000000E+00 0. -1.
         11    1    5    5    0    0  0.36002902409E+02  0.94941119938E+01  0.80514602328E+02  0.88707092909E+02  0.00000000000E+00 0. -1.
        -12    1    5    5    0    0  0.11829182587E+03 -0.92903679107E+02  0.59035791213E+03  0.60921795285E+03  0.00000000000E+00 0.  1.
          5    1    4    4  501    0 -0.56954201718E+02  0.12365277483E+01  0.19304218350E+02  0.60294571400E+02  0.41800000000E+01 0. -1.
         -5    1    4    4    0  501 -0.63741328281E+02  0.19027916859E+03  0.28673319723E+02  0.20275292993E+03  0.41800000000E+01 0. -1.
</event>
<event>
11    1  0.7882745E-009  0.1566359E+03  0.7561462E-02  0.1090285E+00
         22   -1    0    0    0    0  0.00000000000E+00  0.00000000000E+00  0.43354481392E+03  0.43354481392E+03  0.00000000000E+00 0. -1.
         22   -1    0    0    0    0 -0.00000000000E+00 -0.00000000000E+00 -0.11578450701E+04  0.11578450701E+04  0.00000000000E+00 0. -1.
        -24    2    1    2    0    0  0.90359295046E+02  0.26376932692E+02 -0.92639209787E+03  0.93454437404E+03  0.79437543243E+02 0.  0.
         25    2    1    2    0    0 -0.97969787018E+02 -0.31294568801E+01 -0.19461649243E+03  0.25125582641E+03  0.12508412573E+03 0.  0.
         24    2    1    2    0    0  0.76104919715E+01 -0.23247475812E+02  0.39670833413E+03  0.40558968357E+03  0.80790620314E+02 0.  0.
        -13    1    5    5    0    0  0.16218193217E+02 -0.20729414508E+02  0.35109038567E+02  0.43879186480E+02  0.00000000000E+00 0.  1.
         14    1    5    5    0    0 -0.86077012457E+01 -0.25180613038E+01  0.36159929556E+03  0.36171049709E+03  0.00000000000E+00 0. -1.
         13    1    3    3    0    0  0.61802404482E+02 -0.21366825194E+02 -0.58582946502E+03  0.58946776036E+03  0.00000000000E+00 0. -1.
        -14    1    3    3    0    0  0.28556890564E+02  0.47743757885E+02 -0.34056263285E+03  0.34507661368E+03  0.00000000000E+00 0.  1.
          5    1    4    4  501    0 -0.83764176642E+02  0.77468188265E+01 -0.21065407253E+03  0.22686793772E+03  0.41800000000E+01 0. -1.
         -5    1    4    4    0  501 -0.14205610376E+02 -0.10876275707E+02  0.16037580101E+02  0.24387888693E+02  0.41800000000E+01 0. -1.
</event>
<event>
11    1  0.7882745E-009  0.1604843E+03  0.7561462E-02  0.1086623E+00
         22   -1    0    0    0    0  0.00000000000E+00  0.00000000000E+00  0.18702499048E+03  0.18702499048E+03  0.00000000000E+00 0.  1.
         22   -1    0    0    0    0 -0.00000000000E+00 -0.00000000000E+00 -0.61404761475E+03  0.61404761475E+03  0.00000000000E+00 0.  1.
        -24    2    1    2    0    0  0.88236083344E+02 -0.54958977357E+02 -0.47143809027E+03  0.48855673804E+03  0.75018115975E+02 0.  0.
         25    2    1    2    0    0 -0.81161442794E+02  0.23086264650E+02 -0.71785247304E+02  0.16709638550E+03  0.12509166601E+03 0.  0.
         24    2    1    2    0    0 -0.70746405503E+01  0.31872712707E+02  0.11620071331E+03  0.14541948170E+03  0.81106716923E+02 0.  0.
        -11    1    5    5    0    0  0.12160671992E+00 -0.96478492458E+01  0.99697896100E+02  0.10016369737E+03  0.00000000000E+00 0.  1.
         12    1    5    5    0    0 -0.71962472702E+01  0.41520561953E+02  0.16502817206E+02  0.45255784331E+02  0.00000000000E+00 0. -1.
         13    1    3    3    0    0  0.18394202496E+02  0.17065354079E+02 -0.59433410427E+02  0.64512814776E+02  0.00000000000E+00 0. -1.
        -14    1    3    3    0    0  0.69841880848E+02 -0.72024331436E+02 -0.41200467984E+03  0.42404392326E+03  0.00000000000E+00 0.  1.
          5    1    4    4  501    0  0.82991056420E+01  0.39493176252E+02  0.13081723444E+02  0.42628511741E+02  0.41800000000E+01 0.  1.
         -5    1    4    4    0  501 -0.89460548436E+02 -0.16406911603E+02 -0.84866970748E+02  0.12446787376E+03  0.41800000000E+01 0.  1.
</event>
<event>
11    1  0.7882745E-009  0.2130226E+03  0.7561462E-02  0.1045678E+00
         22   -1    0    0    0    0  0.00000000000E+00  0.00000000000E+00  0.62057279536E+03  0.62057279536E+03  0.00000000000E+00 0. -1.
         22   -1    0    0    0    0 -0.00000000000E+00 -0.00000000000E+00 -0.27161133643E+04  0.27161133643E+04  0.00000000000E+00 0. -1.
        -24    2    1    2    0    0 -0.17257524173E+03  0.56091712837E+01 -0.26770082007E+04  0.26848101581E+04  0.10963120707E+03 0.  0.
         25    2    1    2    0    0  0.15022107525E+03  0.78276080947E+01  0.33735630300E+03  0.38998111414E+03  0.12509337039E+03 0.  0.
         24    2    1    2    0    0  0.22354166477E+02 -0.13436779378E+02  0.24411132882E+03  0.26189488735E+03  0.91204908651E+02 0.  0.
        -11    1    5    5    0    0  0.26239109679E+02  0.28312939200E+02  0.49260479454E+02  0.62583609987E+02  0.00000000000E+00 0.  1.
         12    1    5    5    0    0 -0.38849432018E+01 -0.41749718579E+02  0.19485084936E+03  0.19931127736E+03  0.00000000000E+00 0. -1.
         11    1    3    3    0    0 -0.10153712344E+03 -0.42411535170E+02 -0.11050868572E+04  0.11105518843E+04  0.00000000000E+00 0. -1.
        -12    1    3    3    0    0 -0.71038118286E+02  0.48020706454E+02 -0.15719213435E+04  0.15742582738E+04  0.00000000000E+00 0.  1.
          5    1    4    4  501    0  0.83332418132E+02 -0.44601886458E+02  0.99212289078E+02  0.13709183379E+03  0.41800000000E+01 0.  1.
         -5    1    4    4    0  501  0.66888657116E+02  0.52429494553E+02  0.23814401393E+03  0.25288928036E+03  0.41800000000E+01 0.  1.
</event>
<event>
11    1  0.7882745E-009  0.1461092E+03  0.7561462E-02  0.1100922E+00
         22   -1    0    0    0    0  0.00000000000E+00  0.00000000000E+00  0.43549085006E+03  0.43549085006E+03  0.00000000000E+00 0. -1.
         22   -1    0    0    0    0 -0.00000000000E+00 -0.00000000000E+00 -0.14953634554E+03  0.14953634554E+03  0.00000000000E+00 0. -1.
         24    2    1    2    0    0 -0.42295950929E+02 -0.18086898895E+02 -0.66087260560E+02  0.11386814627E+03  0.80513013542E+02 0.  0.
         25    2    1    2    0    0  0.63395342648E+02  0.84928406741E+02  0.87040588768E+02  0.18562146955E+03  0.12508981623E+03 0.  0.
        -24    2    1    2    0    0 -0.21099391720E+02 -0.66841507846E+02  0.26500117631E+03  0.28553757978E+03  0.79956954177E+02 0.  0.
        -13    1    3    3    0    0  0.32495183831E+01  0.98640923882E+01  0.14096402846E+02  0.17509090826E+02  0.00000000000E+00 0.  1.
         14    1    3    3    0    0 -0.45545469312E+02 -0.27950991283E+02 -0.80183663406E+02  0.96359055442E+02  0.00000000000E+00 0. -1.
         11    1    5    5    0    0 -0.28479044547E+02 -0.29918611681E+02  0.23144399259E+03  0.23510104425E+03  0.00000000000E+00 0. -1.
        -12    1    5    5    0    0  0.73796528277E+01 -0.36922896165E+02  0.33557183720E+02  0.50436535530E+02  0.00000000000E+00 0.  1.
          5    1    4    4  501    0 -0.26175687070E+02 -0.54961144529E+01  0.43121376963E+02  0.50914628732E+02  0.41800000000E+01 0. -1.
         -5    1    4    4    0  501  0.89571029718E+02  0.90424521194E+02  0.43919211805E+02  0.13470684082E+03  0.41800000000E+01 0. -1.
</event>
<event>
11    1  0.7882745E-009  0.1337962E+03  0.7561462E-02  0.1114691E+00
         22   -1    0    0    0    0  0.00000000000E+00  0.00000000000E+00  0.38397477569E+03  0.38397477569E+03  0.00000000000E+00 0. -1.
         22   -1    0    0    0    0 -0.00000000000E+00 -0.00000000000E+00 -0.38634560798E+03  0.38634560798E+03  0.00000000000E+00 0. -1.
        -24    2    1    2    0    0  0.56381628484E+02  0.30942322065E+02 -0.34093588435E+03  0.35619179267E+03  0.80616379247E+02 0.  0.
         25    2    1    2    0    0  0.64094952946E+01 -0.47211206828E+02  0.20628279940E+03  0.24590592614E+03  0.12508857462E+03 0.  0.
         24    2    1    2    0    0 -0.62791123779E+02  0.16268884763E+02  0.13228225266E+03  0.16822266486E+03  0.81196482484E+02 0.  0.
        -13    1    5    5    0    0  0.13534962170E+02 -0.15892384658E+02  0.22365397609E+02  0.30593693815E+02  0.00000000000E+00 0.  1.
         14    1    5    5    0    0 -0.76326085949E+02  0.32161269422E+02  0.10991685505E+03  0.13762897104E+03  0.00000000000E+00 0. -1.
         13    1    3    3    0    0  0.48433796560E+02  0.33349055856E+02 -0.34269465529E+03  0.34770334905E+03  0.00000000000E+00 0. -1.
        -14    1    3    3    0    0  0.79478319241E+01 -0.24067337912E+01  0.17587709428E+01  0.84884436185E+01  0.00000000000E+00 0.  1.
          5    1    4    4  501    0 -0.19041390106E+02 -0.50546589361E+02  0.21239103613E+03  0.21919159852E+03  0.41800000000E+01 0. -1.
         -5    1    4    4    0  501  0.25450885401E+02  0.33353825327E+01 -0.61082367240E+01  0.26714327620E+02  0.41800000000E+01 0. -1.
</event>
<event>
11    1  0.7882745E-009  0.2398263E+03  0.7561462E-02  0.1029463E+00
         22   -1    0    0    0    0  0.00000000000E+00  0.00000000000E+00  0.80055068025E+03  0.80055068025E+03  0.00000000000E+00 0. -1.
         22   -1    0    0    0    0 -0.00000000000E+00 -0.00000000000E+00 -0.44493479096E+03  0.44493479096E+03  0.00000000000E+00 0.  1.
         24    2    1    2    0    0  0.41571051563E+02  0.50186262410E+02 -0.34442218973E+03  0.36120641605E+03  0.87158573617E+02 0.  0.
         25    2    1    2    0    0  0.15407839487E+03 -0.12370677919E+03  0.12163016349E+03  0.26360111728E+03  0.12509249929E+03 0.  0.
        -24    2    1    2    0    0 -0.19564944643E+03  0.73520516779E+02  0.57840791552E+03  0.62067793788E+03  0.83674449839E+02 0.  0.
        -11    1    3    3    0    0  0.48984578326E+02  0.53549346508E+02 -0.34545905078E+03  0.35299996769E+03  0.00000000000E+00 0.  1.
         12    1    3    3    0    0 -0.74135267628E+01 -0.33630840986E+01  0.10368610554E+01  0.82064483527E+01  0.00000000000E+00 0. -1.
         11    1    5    5    0    0 -0.89214803915E+02  0.39030381584E+02  0.38610679323E+03  0.39819732257E+03  0.00000000000E+00 0. -1.
        -12    1    5    5    0    0 -0.10643464252E+03  0.34490135195E+02  0.19230112229E+03  0.22248061531E+03  0.00000000000E+00 0.  1.
          5    1    4    4  501    0  0.10035134680E+03 -0.49538348918E+02  0.88397672404E+00  0.11199417232E+03  0.41800000000E+01 0.  1.
         -5    1    4    4    0  501  0.53727048071E+02 -0.74168430271E+02  0.12074618676E+03  0.15160694496E+03  0.41800000000E+01 0.  1.
</event>
<event>
11    1  0.7882745E-009  0.1921504E+03  0.7561462E-02  0.1060218E+00
         22   -1    0    0    0    0  0.00000000000E+00  0.00000000000E+00  0.20922705642E+03  0.20922705642E+03  0.00000000000E+00 0.  1.
         22   -1    0    0    0    0 -0.00000000000E+00 -0.00000000000E+00 -0.23566544698E+04  0.23566544698E+04  0.00000000000E+00 0.  1.
        -24    2    1    2    0    0 -0.13769245968E+03  0.42388787204E+02 -0.21494813260E+04  0.21557688317E+04  0.79456038950E+02 0.  0.
         25    2    1    2    0    0  0.19167161913E+03 -0.72367491631E+01 -0.11328745498E+03  0.25549861689E+03  0.12512040466E+03 0.  0.
         24    2    1    2    0    0 -0.53979159448E+02 -0.35152038041E+02  0.11534136768E+03  0.15461407756E+03  0.80327245984E+02 0.  0.
        -11    1    5    5    0    0 -0.71330148985E+02 -0.38888125915E+02  0.10860652195E+03  0.13563057584E+03  0.00000000000E+00 0.  1.
         12    1    5    5    0    0  0.17350989538E+02  0.37360878736E+01  0.67348457257E+01  0.18983501718E+02  0.00000000000E+00 0. -1.
         11    1    3    3    0    0 -0.69038222292E+01  0.19809107411E+01 -0.12568154538E+02  0.14475678818E+02  0.00000000000E+00 0. -1.
        -12    1    3    3    0    0 -0.13078863745E+03  0.40407876463E+02 -0.21369131715E+04  0.21412931529E+04  0.00000000000E+00 0.  1.
          5    1    4    4  501    0  0.79222063995E+02 -0.60240797015E+02 -0.24225636836E+02  0.10251557408E+03  0.41800000000E+01 0. -1.
         -5    1    4    4    0  501  0.11244955513E+03  0.53004047852E+02 -0.89061818140E+02  0.15298304281E+03  0.41800000000E+01 0. -1.
</event>
<event>
11    1  0.7882745E-009  0.1474948E+03  0.7561462E-02  0.1099466E+00
         22   -1    0    0    0    0  0.00000000000E+00  0.00000000000E+00  0.31349827888E+03  0.31349827888E+03  0.00000000000E+00 0. -1.
         22   -1    0    0    0    0 -0.00000000000E+00 -0.00000000000E+00 -0.10016905884E+04  0.10016905884E+04  0.00000000000E+00 0.  1.
        -24    2    1    2    0    0  0.37302230612E+02 -0.27423296125E+00 -0.88931213690E+03  0.89370119569E+03  0.80213581905E+02 0.  0.
         25    2    1    2    0    0 -0.91657066062E+02 -0.51652557269E+02 -0.30110851440E+02  0.16620306022E+03  0.12509112446E+03 0.  0.
         24    2    1    2    0    0  0.54354835450E+02  0.51926790230E+02  0.23123067877E+03  0.25528461142E+03  0.77793099597E+02 0.  0.
        -13    1    5    5    0    0  0.85805021022E+01 -0.86280230875E+01  0.27206399697E+00  0.12171352330E+02  0.00000000000E+00 0.  1.
         14    1    5    5    0    0  0.45774333348E+02  0.60554813317E+02  0.23095861477E+03  0.24311325909E+03  0.00000000000E+00 0. -1.
         13    1    3    3    0    0  0.31590227819E+02 -0.12183684407E+02 -0.13197808664E+03  0.13625197251E+03  0.00000000000E+00 0. -1.
        -14    1    3    3    0    0  0.57120027926E+01  0.11909451446E+02 -0.75733405026E+03  0.75744922317E+03  0.00000000000E+00 0.  1.
          5    1    4    4  501    0 -0.54410843079E+02  0.27372127180E+02  0.21407266590E+02  0.64695569043E+02  0.41800000000E+01 0.  1.
         -5    1    4    4    0  501 -0.37246222983E+02 -0.79024684449E+02 -0.51518118030E+02  0.10150749117E+03  0.41800000000E+01 0.  1.
</event>
<event>
11    1  0.7882745E-009  0.1571091E+03  0.7561462E-02  0.1089828E+00
         22   -1    0    0    0    0  0.00000000000E+00  0.00000000000E+00  0.17792981906E+04  0.17792981906E+04  0.00000000000E+00 0. -1.
         22   -1    0    0    0    0 -0.00000000000E+00 -0.00000000000E+00 -0.63044201501E+03  0.63044201501E+03  0.00000000000E+00 0.  1.
        -24    2    1    2    0    0  0.42409150887E+02 -0.82762489180E+02 -0.55573369485E+03  0.56898992723E+03  0.79129210787E+02 0.  0.
         25    2    1    2    0    0 -0.78956132766E+02  0.11078152302E+03  0.61033357759E+02  0.19462836003E+03  0.12509400875E+03 0.  0.
         24    2    1    2    0    0  0.36546981878E+02 -0.28019033837E+02  0.16435565127E+04  0.16461219183E+04  0.79489694841E+02 0.  0.
        -11    1    5    5    0    0 -0.16996431866E+02 -0.30001062119E+02  0.42870781325E+03  0.43009223611E+03  0.00000000000E+00 0.  1.
         12    1    5    5    0    0  0.53543413744E+02  0.19820282823E+01  0.12148486994E+04  0.12160296822E+04  0.00000000000E+00 0. -1.
         13    1    3    3    0    0  0.54642647878E+01 -0.24045719098E+02 -0.30624633399E+02  0.39318226911E+02  0.00000000000E+00 0. -1.
        -14    1    3    3    0    0  0.36944886100E+02 -0.58716770082E+02 -0.52510906145E+03  0.52967170032E+03  0.00000000000E+00 0.  1.
          5    1    4    4  501    0 -0.81009933379E+02  0.40729820548E+02 -0.14033321302E+02  0.91847341250E+02  0.41800000000E+01 0.  1.
         -5    1    4    4    0  501  0.20538006131E+01  0.70051702469E+02  0.75066679062E+02  0.10278101878E+03  0.41800000000E+01 0.  1.
</event>
<event>
11    1  0.7882745E-009  0.1715602E+03  0.7561462E-02  0.1076682E+00
         22   -1    0    0    0    0  0.00000000000E+00  0.00000000000E+00  0.17649170503E+04  0.17649170503E+04  0.00000000000E+00 0. -1.
         22   -1    0    0    0    0 -0.00000000000E+00 -0.00000000000E+00 -0.18125105032E+03  0.18125105032E+03  0.00000000000E+00 0. -1.
         24    2    1    2    0    0 -0.11230323289E+02 -0.29328915017E+02 -0.13957224620E+03  0.16424511471E+03  0.80682962133E+02 0.  0.
         25    2    1    2    0    0 -0.85473548870E+02  0.94340628446E+02  0.28115593444E+03  0.33302450264E+03  0.12510307011E+03 0.  0.
        -24    2    1    2    0    0  0.96703872159E+02 -0.65011713429E+02  0.14420823117E+04  0.14488984833E+04  0.78276811727E+02 0.  0.
        -11    1    3    3    0    0 -0.40099781989E+02 -0.13136164494E+02 -0.11647410650E+03  0.12388207626E+03  0.00000000000E+00 0.  1.
         12    1    3    3    0    0  0.28869458700E+02 -0.16192750522E+02 -0.23098139699E+02  0.40363038447E+02  0.00000000000E+00 0. -1.
         11    1    5    5    0    0  0.95895150827E+02 -0.40588978512E+02  0.85654251003E+03  0.86284901148E+03  0.00000000000E+00 0. -1.
        -12    1    5    5    0    0  0.80872133236E+00 -0.24422734918E+02  0.58553980169E+03  0.58604947178E+03  0.00000000000E+00 0.  1.
          5    1    4    4  501    0 -0.18485126604E+02  0.24190869056E+02 -0.47394297256E+01  0.31093932614E+02  0.41800000000E+01 0.  1.
         -5    1    4    4    0  501 -0.66988422266E+02  0.70149759389E+02  0.28589536417E+03  0.30193057002E+03  0.41800000000E+01 0.  1.
</event>
<event>
11    1  0.7882745E-009  0.1451681E+03  0.7561462E-02  0.1101921E+00
         22   -1    0    0    0    0  0.00000000000E+00  0.00000000000E+00  0.85528670694E+02  0.85528670694E+02  0.00000000000E+00 0. -1.
         22   -1    0    0    0    0 -0.00000000000E+00 -0.00000000000E+00 -0.18070660218E+04  0.18070660218E+04  0.00000000000E+00 0. -1.
        -24    2    1    2    0    0 -0.57595542137E+02  0.12874181284E+02 -0.15522776418E+04  0.15559782811E+04  0.89551901064E+02 0.  0.
         25    2    1    2    0    0  0.15784095866E+02  0.57393697712E+02 -0.17457105023E+03  0.22285982067E+03  0.12509306083E+03 0.  0.
         24    2    1    2    0    0  0.41811446271E+02 -0.70267878996E+02  0.53113409981E+01  0.11375659067E+03  0.78908679616E+02 0.  0.
        -13    1    5    5    0    0  0.17570862587E+02  0.15095784070E+02 -0.69255668624E+01  0.24178117898E+02  0.00000000000E+00 0.  1.
         14    1    5    5    0    0  0.24240583684E+02 -0.85363663066E+02  0.12236907860E+02  0.89578472767E+02  0.00000000000E+00 0. -1.
         13    1    3    3    0    0 -0.38157285969E+02  0.44762208836E+02 -0.12529639413E+04  0.12543437615E+04  0.00000000000E+00 0. -1.
        -14    1    3    3    0    0 -0.19438256168E+02 -0.31888027553E+02 -0.29931370048E+03  0.30163451958E+03  0.00000000000E+00 0.  1.
          5    1    4    4  501    0  0.69328742450E+02  0.33587325565E+02 -0.12010322133E+03  0.14274746632E+03  0.41800000000E+01 0.  1.
         -5    1    4    4    0  501 -0.53544646584E+02  0.23806372147E+02 -0.54467828909E+02  0.80112354345E+02  0.41800000000E+01 0.  1.
</event>
<event>
11    1  0.7882745E-009  0.1792871E+03  0.7561462E-02  0.1070221E+00
         22   -1    0    0    0    0  0.00000000000E+00  0.00000000000E+00  0.12680097322E+03  0.12680097322E+03  0.00000000000E+00 0. -1.
         22   -1    0    0    0    0 -0.00000000000E+00 -0.00000000000E+00 -0.56839852257E+03  0.56839852257E+03  0.00000000000E+00 0.  1.
         24    2    1    2    0    0 -0.48879857209E+02  0.15106215433E+03 -0.22989786265E+03  0.29310716891E+03  0.88598929473E+02 0.  0.
         25    2    1    2    0    0  0.12299644376E+03 -0.29112104729E+02 -0.12839582284E+03  0.21933675642E+03  0.12508990997E+03 0.  0.
        -24    2    1    2    0    0 -0.74116586552E+02 -0.12195004960E+03 -0.83303863860E+02  0.18275557046E+03  0.78070364403E+02 0.  0.
        -11    1    3    3    0    0 -0.14590763185E+02  0.11985857266E+03 -0.21087127770E+03  0.24299313482E+03  0.00000000000E+00 0.  1.
         12    1    3    3    0    0 -0.34289094024E+02  0.31203581673E+02 -0.19026584953E+02  0.50114034094E+02  0.00000000000E+00 0. -1.
         13    1    5    5    0    0 -0.37339396635E+02 -0.40411610117E+01 -0.90157621559E+01  0.38624415732E+02  0.00000000000E+00 0. -1.
        -14    1    5    5    0    0 -0.36777189917E+02 -0.11790888859E+03 -0.74288101704E+02  0.14413115472E+03  0.00000000000E+00 0.  1.
          5    1    4    4  501    0  0.37806336745E+02 -0.45276037649E+02 -0.11789444834E+03  0.13189318418E+03  0.41800000000E+01 0.  1.
         -5    1    4    4    0  501  0.85190107016E+02  0.16163932920E+02 -0.10501374505E+02  0.87443572248E+02  0.41800000000E+01 0.  1.
</event>
<event>
11    1  0.7882745E-009  0.1856543E+03  0.7561462E-02  0.1065159E+00
         22   -1    0    0    0    0  0.00000000000E+00  0.00000000000E+00  0.29470853348E+04  0.29470853348E+04  0.00000000000E+00 0. -1.
         22   -1    0    0    0    0 -0.00000000000E+00 -0.00000000000E+00 -0.17243162485E+03  0.17243162485E+03  0.00000000000E+00 0. -1.
         24    2    1    2    0    0 -0.18625847396E+02  0.26665751906E+02 -0.14608308450E+03  0.16894461056E+03  0.78383858959E+02 0.  0.
         25    2    1    2    0    0 -0.16255259587E+02 -0.15510997254E+03  0.81709161293E+03  0.84119529430E+03  0.12508989646E+03 0.  0.
        -24    2    1    2    0    0  0.34881106983E+02  0.12844422064E+03  0.21036451815E+04  0.21093770548E+04  0.80211595854E+02 0.  0.
        -11    1    3    3    0    0 -0.14036326829E+01  0.27202427390E+02 -0.61106554268E+01  0.27915629142E+02  0.00000000000E+00 0.  1.
         12    1    3    3    0    0 -0.17222214713E+02 -0.53667548427E+00 -0.13997242907E+03  0.14102898142E+03  0.00000000000E+00 0. -1.
         11    1    5    5    0    0 -0.25985777792E+02  0.42263280594E+02  0.61543712027E+03  0.61743363574E+03  0.00000000000E+00 0. -1.
        -12    1    5    5    0    0  0.60866884774E+02  0.86180940044E+02  0.14882080613E+04  0.14919434191E+04  0.00000000000E+00 0.  1.
          5    1    4    4  501    0 -0.20340774758E+02 -0.16887919961E+03  0.80235140619E+03  0.82019460044E+03  0.41800000000E+01 0.  1.
         -5    1    4    4    0  501  0.40855151715E+01  0.13769227061E+02  0.14740206740E+02  0.21000693866E+02  0.41800000000E+01 0.  1.
</event>
<event>
11    1  0.7882745E-009  0.1587650E+03  0.7561462E-02  0.1088245E+00
         22   -1    0    0    0    0  0.00000000000E+00  0.00000000000E+00  0.26142749609E+04  0.26142749609E+04  0.00000000000E+00 0.  1.
         22   -1    0    0    0    0 -0.00000000000E+00 -0.00000000000E+00 -0.34153519143E+03  0.34153519143E+03  0.00000000000E+00 0.  1.
         24    2    1    2    0    0 -0.64986083851E+01 -0.98252848758E+02 -0.31959877252E+03  0.34411395810E+03  0.81087524110E+02 0.  0.
         25    2    1    2    0    0 -0.78798088367E+02  0.55442350718E+02  0.82255390679E+03  0.83757090775E+03  0.12508838058E+03 0.  0.
        -24    2    1    2    0    0  0.85296696752E+02  0.42810498040E+02  0.17697846352E+04  0.17741252865E+04  0.79212448040E+02 0.  0.
        -13    1    3    3    0    0 -0.23744648221E+02 -0.10346559391E+03 -0.29575240698E+03  0.31422670745E+03  0.00000000000E+00 0.  1.
         14    1    3    3    0    0  0.17246039836E+02  0.52127451521E+01 -0.23846365540E+02  0.29887250652E+02  0.00000000000E+00 0. -1.
         13    1    5    5    0    0 -0.10668247097E+02 -0.97733629964E+01  0.18177788942E+03  0.18235276582E+03  0.00000000000E+00 0. -1.
        -14    1    5    5    0    0  0.95964943849E+02  0.52583861036E+02  0.15880067458E+04  0.15917725207E+04  0.00000000000E+00 0.  1.
          5    1    4    4  501    0 -0.46767919129E+02  0.73864672028E+02  0.27140631105E+03  0.28517027564E+03  0.41800000000E+01 0.  1.
         -5    1    4    4    0  501 -0.32030169239E+02 -0.18422321310E+02  0.55114759574E+03  0.55240063211E+03  0.41800000000E+01 0.  1.
</event>
<event>
11    1  0.7882745E-009  0.1417285E+03  0.7561462E-02  0.1105643E+00
         22   -1    0    0    0    0  0.00000000000E+00  0.00000000000E+00  0.34035678297E+03  0.34035678297E+03  0.00000000000E+00 0.  1.
         22   -1    0    0    0    0 -0.00000000000E+00 -0.00000000000E+00 -0.63232724875E+03  0.63232724875E+03  0.00000000000E+00 0.  1.
        -24    2    1    2    0    0  0.39350306763E+02  0.51616873344E+02 -0.35533165542E+03  0.36959252291E+03  0.78264291941E+02 0.  0.
         25    2    1    2    0    0 -0.32443882195E+02 -0.11626815016E+03 -0.23180002910E+03  0.28974169872E+03  0.12509240685E+03 0.  0.
         24    2    1    2    0    0 -0.69064245679E+01  0.64651276819E+02  0.29516121873E+03  0.31334981009E+03  0.82707146875E+02 0.  0.
        -11    1    5    5    0    0 -0.18053333833E+02  0.24552131415E+02  0.25032792433E+03  0.25217612837E+03  0.00000000000E+00 0.  1.
         12    1    5    5    0    0  0.11146909265E+02  0.40099145404E+02  0.44833294406E+02  0.61173681723E+02  0.00000000000E+00 0. -1.
         13    1    3    3    0    0  0.57839317612E+02  0.14208413178E+02 -0.19280156001E+03  0.20179124661E+03  0.00000000000E+00 0. -1.
        -14    1    3    3    0    0 -0.18489010848E+02  0.37408460166E+02 -0.16253009541E+03  0.16780127630E+03  0.00000000000E+00 0.  1.
          5    1    4    4  501    0 -0.65836732720E+02 -0.11851245559E+03 -0.15564655918E+03  0.20645338769E+03  0.41800000000E+01 0.  1.
         -5    1    4    4    0  501  0.33392850525E+02  0.22443054218E+01 -0.76153469926E+02  0.83288311033E+02  0.41800000000E+01 0.  1.
</event>
<event>
11    1  0.7882745E-009  0.1460575E+03  0.7561462E-02  0.1100977E+00
         22   -1    0    0    0    0  0.00000000000E+00  0.00000000000E+00  0.53255994763E+03  0.53255994763E+03  0.00000000000E+00 0.  1.
         22   -1    0    0    0    0 -0.00000000000E+00 -0.00000000000E+00 -0.13155124106E+04  0.13155124106E+04  0.00000000000E+00 0. -1.
         24    2    1    2    0    0 -0.21672516718E+02 -0.65373800246E+01 -0.12702077250E+04  0.12724883548E+04  0.72708410531E+02 0.  0.
         25    2    1    2    0    0  0.68216515054E+02 -0.50652611894E+02  0.12207039134E+03  0.19434079350E+03  0.12509190046E+03 0.  0.
        -24    2    1    2    0    0 -0.46543998337E+02  0.57189991918E+02  0.36518487076E+03  0.38124320993E+03  0.80928093536E+02 0.  0.
        -13    1    3    3    0    0  0.67093423533E+01  0.11879344164E+02 -0.50470589333E+02  0.52282066526E+02  0.00000000000E+00 0.  1.
         14    1    3    3    0    0 -0.28381859071E+02 -0.18416724189E+02 -0.12197371357E+04  0.12202062882E+04  0.00000000000E+00 0. -1.
         13    1    5    5    0    0  0.78412508551E+01  0.12091566009E+02  0.67542002963E+01  0.15915728232E+02  0.00000000000E+00 0. -1.
        -14    1    5    5    0    0 -0.54385249192E+02  0.45098425910E+02  0.35843067047E+03  0.36532748169E+03  0.00000000000E+00 0.  1.
          5    1    4    4  501    0  0.53445192295E+01  0.70441088702E+00  0.11225415993E+03  0.11246123288E+03  0.41800000000E+01 0. -1.
         -5    1    4    4    0  501  0.62871995825E+02 -0.51357022781E+02  0.98162314080E+01  0.81879560618E+02  0.41800000000E+01 0. -1.
</event>
<event>
11    1  0.7882745E-009  0.1760778E+03  0.7561462E-02  0.1072860E+00
         22   -1    0    0    0    0  0.00000000000E+00  0.00000000000E+00  0.25848483976E+03  0.25848483976E+03  0.00000000000E+00 0.  1.
         22   -1    0    0    0    0 -0.00000000000E+00 -0.00000000000E+00 -0.23402426827E+04  0.23402426827E+04  0.00000000000E+00 0.  1.
         24    2    1    2    0    0 -0.44372138630E+02 -0.11627468094E+03 -0.22515034942E+04  0.22564563284E+04  0.82695159666E+02 0.  0.
         25    2    1    2    0    0  0.22257303632E+02  0.10363966367E+03  0.13206207026E+02  0.16449347960E+03  0.12508850258E+03 0.  0.
        -24    2    1    2    0    0  0.22114834998E+02  0.12635017274E+02  0.15653944419E+03  0.17777771452E+03  0.80321906131E+02 0.  0.
        -11    1    3    3    0    0 -0.15514867589E+02 -0.66349872256E+02 -0.17994638775E+04  0.18007535264E+04  0.00000000000E+00 0.  1.
         12    1    3    3    0    0 -0.28857271041E+02 -0.49924808684E+02 -0.45203961671E+03  0.45570280193E+03  0.00000000000E+00 0. -1.
         13    1    5    5    0    0  0.44446034098E+02  0.28965489607E+02  0.76525656093E+02  0.93116193950E+02  0.00000000000E+00 0. -1.
        -14    1    5    5    0    0 -0.22331199101E+02 -0.16330472332E+02  0.80013788095E+02  0.84661520570E+02  0.00000000000E+00 0.  1.
          5    1    4    4  501    0  0.35085178577E+02  0.11758376333E+03  0.42008405277E+02  0.12976551803E+03  0.41800000000E+01 0. -1.
         -5    1    4    4    0  501 -0.12827874944E+02 -0.13944099665E+02 -0.28802198252E+02  0.34727961575E+02  0.41800000000E+01 0. -1.
</event>
<event>
11    1  0.7882745E-009  0.1356795E+03  0.7561462E-02  0.1112481E+00
         22   -1    0    0    0    0  0.00000000000E+00  0.00000000000E+00  0.34912485672E+03  0.34912485672E+03  0.00000000000E+00 0.  1.
         22   -1    0    0    0    0 -0.00000000000E+00 -0.00000000000E+00 -0.11131060955E+04  0.11131060955E+04  0.00000000000E+00 0.  1.
        -24    2    1    2    0    0 -0.12008754104E+02  0.46565023240E+02 -0.66681532330E+03  0.67317252575E+03  0.78778566050E+02 0.  0.
         25    2    1    2    0    0  0.26772830078E+02  0.45556307901E+01 -0.42645882332E+03  0.44525701071E+03  0.12509652032E+03 0.  0.
         24    2    1    2    0    0 -0.14764075973E+02 -0.51120654030E+02  0.32929290786E+03  0.34380141573E+03  0.83272414880E+02 0.  0.
        -11    1    5    5    0    0  0.12598272911E+02 -0.62658728298E+02  0.27033394136E+03  0.27778637937E+03  0.00000000000E+00 0.  1.
         12    1    5    5    0    0 -0.27362348885E+02  0.11538074268E+02  0.58958966509E+02  0.66015036364E+02  0.00000000000E+00 0. -1.
         13    1    3    3    0    0 -0.45180548089E+02  0.29129306928E+02 -0.44171463965E+03  0.44497373105E+03  0.00000000000E+00 0. -1.
        -14    1    3    3    0    0  0.33171793984E+02  0.17435716312E+02 -0.22510068366E+03  0.22819879470E+03  0.00000000000E+00 0.  1.
          5    1    4    4  501    0 -0.35185039168E+01 -0.57736001332E+02 -0.21620802037E+03  0.22385085703E+03  0.41800000000E+01 0. -1.
         -5    1    4    4    0  501  0.30291333994E+02  0.62291632123E+02 -0.21025080295E+03  0.22140615368E+03  0.41800000000E+01 0. -1.
</event>
<event>
11    1  0.7882745E-009  0.1411007E+03  0.7561462E-02  0.1106336E+00
         22   -1    0    0    0    0  0.00000000000E+00  0.00000000000E+00  0.17590667690E+04  0.17590667690E+04  0.00000000000E+00 0.  1.
         22   -1    0    0    0    0 -0.00000000000E+00 -0.00000000000E+00 -0.21183376218E+03  0.21183376218E+03  0.00000000000E+00 0. -1.
         24    2    1    2    0    0 -0.54285239180E+02 -0.50250098169E+02 -0.14187133507E+03  0.17983047148E+03  0.82094842709E+02 0.  0.
         25    2    1    2    0    0  0.40208888428E+02 -0.85062970727E+01  0.38105883813E+02  0.13706462055E+03  0.12508213312E+03 0.  0.
        -24    2    1    2    0    0  0.14076350752E+02  0.58756395242E+02  0.16509984581E+04  0.16540054392E+04  0.79294555468E+02 0.  0.
        -11    1    3    3    0    0 -0.31802606376E+02 -0.54393136466E+02 -0.38232924031E+02  0.73700580370E+02  0.00000000000E+00 0.  1.
         12    1    3    3    0    0 -0.22482632804E+02  0.41430382970E+01 -0.10363841104E+03  0.10612989111E+03  0.00000000000E+00 0. -1.
         13    1    5    5    0    0  0.21254775945E+02 -0.14620074993E+02  0.38748624776E+03  0.38834405403E+03  0.00000000000E+00 0. -1.
        -14    1    5    5    0    0 -0.71784251933E+01  0.73376470235E+02  0.12635122103E+04  0.12656613852E+04  0.00000000000E+00 0.  1.
          5    1    4    4  501    0  0.11932082296E+02  0.11206655835E+02 -0.44423824860E+02  0.47528016350E+02  0.41800000000E+01 0. -1.
         -5    1    4    4    0  501  0.28276806132E+02 -0.19712952908E+02  0.82529708673E+02  0.89536604197E+02  0.41800000000E+01 0. -1.
</event>
<event>
11    1  0.7882745E-009  0.1598430E+03  0.7561462E-02  0.1087225E+00
         22   -1    0    0    0    0  0.00000000000E+00  0.00000000000E+00  0.10089842808E+03  0.10089842808E+03  0.00000000000E+00 0.  1.
         22   -1    0    0    0    0 -0.00000000000E+00 -0.00000000000E+00 -0.39145111625E+04  0.39145111625E+04  0.00000000000E+00 0.  1.
        -24    2    1    2    0    0  0.10172664714E+03 -0.11874758920E+02 -0.32173297961E+04  0.32200181770E+04  0.82563448642E+02 0.  0.
         25    2    1    2    0    0 -0.73375367899E+02  0.53163771590E+02 -0.66223792740E+03  0.68001144388E+03  0.12508461171E+03 0.  0.
         24    2    1    2    0    0 -0.28351279237E+02 -0.41289012670E+02  0.65954989034E+02  0.11537996970E+03  0.80336163880E+02 0.  0.
        -11    1    5    5    0    0 -0.27854253020E+02 -0.45833283500E+02  0.82396678905E+02  0.98314607166E+02  0.00000000000E+00 0.  1.
         12    1    5    5    0    0 -0.49702621686E+00  0.45442708296E+01 -0.16441689871E+02  0.17065362529E+02  0.00000000000E+00 0. -1.
         11    1    3    3    0    0  0.28330246011E+02 -0.39816710240E+02 -0.86643443610E+03  0.86781138810E+03  0.00000000000E+00 0. -1.
        -12    1    3    3    0    0  0.73396401125E+02  0.27941951320E+02 -0.23508953600E+04  0.23522067889E+04  0.00000000000E+00 0.  1.
          5    1    4    4  501    0 -0.69861185111E+02  0.24135448199E+02 -0.63662683985E+03  0.64091677358E+03  0.41800000000E+01 0. -1.
         -5    1    4    4    0  501 -0.35141827883E+01  0.29028323391E+02 -0.25611087555E+02  0.39094670294E+02  0.41800000000E+01 0. -1.
</event>
<event>
11    1  0.7882745E-009  0.1336540E+03  0.7561462E-02  0.1114859E+00
         22   -1    0    0    0    0  0.00000000000E+00  0.00000000000E+00  0.49287065206E+03  0.49287065206E+03  0.00000000000E+00 0.  1.
         22   -1    0    0    0    0 -0.00000000000E+00 -0.00000000000E+00 -0.39974911521E+03  0.39974911521E+03  0.00000000000E+00 0.  1.
        -24    2    1    2    0    0  0.43244542854E+02 -0.84442325739E+01 -0.19744300705E+03  0.21656444485E+03  0.77298267727E+02 0.  0.
         25    2    1    2    0    0 -0.44386876971E+02 -0.38768304057E+02 -0.16249425506E+03  0.21337022315E+03  0.12509713407E+03 0.  0.
         24    2    1    2    0    0  0.11423341168E+01  0.47212536630E+02  0.45305879895E+03  0.46268509927E+03  0.81147379750E+02 0.  0.
        -11    1    5    5    0    0  0.25350273538E+02  0.57627953623E+02  0.37625373801E+03  0.38148459048E+03  0.00000000000E+00 0.  1.
         12    1    5    5    0    0 -0.24207939421E+02 -0.10415416993E+02  0.76805060941E+02  0.81200508794E+02  0.00000000000E+00 0. -1.
         11    1    3    3    0    0 -0.15812062757E+02 -0.23097673997E+02 -0.67870224797E+02  0.73415878982E+02  0.00000000000E+00 0. -1.
        -12    1    3    3    0    0  0.59056605610E+02  0.14653441423E+02 -0.12957278225E+03  0.14314856587E+03  0.00000000000E+00 0.  1.
          5    1    4    4  501    0 -0.38900933230E+02 -0.79052689352E+02 -0.14317397231E+03  0.16816322144E+03  0.41800000000E+01 0.  1.
         -5    1    4    4    0  501 -0.54859437410E+01  0.40284385296E+02 -0.19320282752E+02  0.45207001703E+02  0.41800000000E+01 0.  1.
</event>
<event>
11    1  0.7882745E-009  0.1378196E+03  0.7561462E-02  0.1110018E+00
         22   -1    0    0    0    0  0.00000000000E+00  0.00000000000E+00  0.41199251973E+03  0.41199251973E+03  0.00000000000E+00 0. -1.
         22   -1    0    0    0    0 -0.00000000000E+00 -0.00000000000E+00 -0.75707529104E+03  0.75707529104E+03  0.00000000000E+00 0.  1.
        -24    2    1    2    0    0  0.53440602981E+02  0.34379032378E+02 -0.51644768282E+03  0.52622995559E+03  0.78498032839E+02 0.  0.
         25    2    1    2    0    0 -0.48281945790E+02  0.15610810388E+02 -0.21020518967E+03  0.24981664794E+03  0.12508913675E+03 0.  0.
         24    2    1    2    0    0 -0.51586571906E+01 -0.49989842766E+02  0.38157010117E+03  0.39302120724E+03  0.79651309525E+02 0.  0.
        -11    1    5    5    0    0  0.18651481768E+02 -0.25401014494E+02  0.46290909165E+02  0.55999442683E+02  0.00000000000E+00 0.  1.
         12    1    5    5    0    0 -0.23810138958E+02 -0.24588828272E+02  0.33527919201E+03  0.33702176456E+03  0.00000000000E+00 0. -1.
         11    1    3    3    0    0  0.11961986342E+02  0.99915489305E+01 -0.12469881716E+02  0.19960413756E+02  0.00000000000E+00 0. -1.
        -12    1    3    3    0    0  0.41478616639E+02  0.24387483448E+02 -0.50397780110E+03  0.50626954183E+03  0.00000000000E+00 0.  1.
          5    1    4    4  501    0  0.34313214043E+02  0.35557635498E+02 -0.85920914440E+02  0.99204929507E+02  0.41800000000E+01 0.  1.
         -5    1    4    4    0  501 -0.82595159833E+02 -0.19946825110E+02 -0.12428427523E+03  0.15061171843E+03  0.41800000000E+01 0.  1.
</event>
<event>
11    1  0.7882745E-009  0.1595363E+03  0.7561462E-02  0.1087514E+00
         22   -1    0    0    0    0  0.00000000000E+00  0.00000000000E+00  0.50553797354E+03  0.50553797354E+03  0.00000000000E+00 0. -1.
         22   -1    0    0    0    0 -0.00000000000E+00 -0.00000000000E+00 -0.18154344832E+03  0.18154344832E+03  0.00000000000E+00 0. -1.
        -24    2    1    2    0    0 -0.35481841257E+02 -0.77544427274E+02 -0.26577305648E+02  0.12017078327E+03  0.80390078466E+02 0.  0.
         25    2    1    2    0    0 -0.36954352246E+02  0.14098849869E+03 -0.29898272789E+01  0.19209400489E+03  0.12509111374E+03 0.  0.
         24    2    1    2    0    0  0.72436193503E+02 -0.63444071417E+02  0.35356165815E+03  0.37481663370E+03  0.78800447080E+02 0.  0.
        -11    1    5    5    0    0 -0.59939683639E+00  0.13330013136E+02  0.86119378646E+02  0.87146978749E+02  0.00000000000E+00 0.  1.
         12    1    5    5    0    0  0.73035590340E+02 -0.76774084553E+02  0.26744227950E+03  0.28766965495E+03  0.00000000000E+00 0. -1.
         11    1    3    3    0    0 -0.48176572339E+02 -0.72063991858E+02  0.38281092583E+01  0.86768977551E+02  0.00000000000E+00 0. -1.
        -12    1    3    3    0    0  0.12694731082E+02 -0.54804354161E+01 -0.30405414906E+02  0.33401805718E+02  0.00000000000E+00 0.  1.
          5    1    4    4  501    0  0.45826069775E+02  0.36989665773E+02 -0.27849460789E+01  0.59105772727E+02  0.41800000000E+01 0.  1.
         -5    1    4    4    0  501 -0.82780422021E+02  0.10399883292E+03 -0.20488119998E+00  0.13298823217E+03  0.41800000000E+01 0.  1.
</event>
<event>
11    1  0.7882745E-009  0.1341879E+03  0.7561462E-02  0.1114228E+00
         22   -1    0    0    0    0  0.00000000000E+00  0.00000000000E+00  0.51955472746E+03  0.51955472746E+03  0.00000000000E+00 0. -1.
         22   -1    0    0    0    0 -0.00000000000E+00 -0.00000000000E+00 -0.44895564487E+03  0.44895564487E+03  0.00000000000E+00 0. -1.
         24    2    1    2    0    0 -0.24204374084E+02  0.17725949667E+02 -0.32209688438E+03  0.33344891520E+03  0.80880869802E+02 0.  0.
         25    2    1    2    0    0 -0.49712054958E+01 -0.56556997096E+02 -0.76091372050E+02  0.15703720575E+03  0.12508948911E+03 0.  0.
        -24    2    1    2    0    0  0.29175579580E+02  0.38831047429E+02  0.46878733903E+03  0.47802425138E+03  0.79915899472E+02 0.  0.
        -11    1    3    3    0    0 -0.28425698800E+02  0.16638459658E+01 -0.31831037111E+02  0.42708355848E+02  0.00000000000E+00 0.  1.
         12    1    3    3    0    0  0.42213247159E+01  0.16062103701E+02 -0.29026584727E+03  0.29074055935E+03  0.00000000000E+00 0. -1.
         11    1    5    5    0    0 -0.12008926949E+02 -0.16241341049E+02  0.18151840806E+03  0.18263879093E+03  0.00000000000E+00 0. -1.
        -12    1    5    5    0    0  0.41184506529E+02  0.55072388478E+02  0.28726893096E+03  0.29538546046E+03  0.00000000000E+00 0.  1.
          5    1    4    4  501    0  0.18396369756E+02  0.36607057712E+02 -0.24730896146E+02  0.48037409576E+02  0.41800000000E+01 0. -1.
         -5    1    4    4    0  501 -0.23367575252E+02 -0.93164054808E+02 -0.51360475904E+02  0.10899979618E+03  0.41800000000E+01 0. -1.
</event>
<event>
11    1  0.7882745E-009  0.1839904E+03  0.7561462E-02  0.1066460E+00
         22   -1    0    0    0    0  0.00000000000E+00  0.00000000000E+00  0.79555607323E+03  0.79555607323E+03  0.00000000000E+00 0.  1.
         22   -1    0    0    0    0 -0.00000000000E+00 -0.00000000000E+00 -0.42510498614E+03  0.42510498614E+03  0.00000000000E+00 0.  1.
        -24    2    1    2    0    0  0.25734796374E+01  0.69946512280E+01 -0.36909552279E+03  0.37864953688E+03  0.84192748474E+02 0.  0.
         25    2    1    2    0    0 -0.10619069024E+03  0.80241820688E+02  0.16388394732E+03  0.24539174531E+03  0.12507576903E+03 0.  0.
         24    2    1    2    0    0  0.10361721060E+03 -0.87236471916E+02  0.57566266255E+03  0.59661977718E+03  0.78872866676E+02 0.  0.
        -11    1    5    5    0    0  0.56215625422E+01 -0.43897348059E+02  0.24693484383E+03  0.25086928116E+03  0.00000000000E+00 0.  1.
         12    1    5    5    0    0  0.97995648056E+02 -0.43339123856E+02  0.32872781872E+03  0.34575049601E+03  0.00000000000E+00 0. -1.
         11    1    3    3    0    0 -0.93281247251E+01 -0.75335021386E+00 -0.77971357251E-01  0.93588208106E+01  0.00000000000E+00 0. -1.
        -12    1    3    3    0    0  0.11901604362E+02  0.77480014418E+01 -0.36901755143E+03  0.36929071607E+03  0.00000000000E+00 0.  1.
          5    1    4    4  501    0 -0.75720609097E+01  0.72622088684E+02  0.11161023038E+03  0.13343770006E+03  0.41800000000E+01 0. -1.
         -5    1    4    4    0  501 -0.98618629326E+02  0.76197320036E+01  0.52273716934E+02  0.11195404525E+03  0.41800000000E+01 0. -1.
</event>
<event>
11    1  0.7882745E-009  0.1988251E+03  0.7561462E-02  0.1055358E+00
         22   -1    0    0    0    0  0.00000000000E+00  0.00000000000E+00  0.69249340347E+03  0.69249340347E+03  0.00000000000E+00 0. -1.
         22   -1    0    0    0    0 -0.00000000000E+00 -0.00000000000E+00 -0.68675397556E+03  0.68675397556E+03  0.00000000000E+00 0.  1.
        -24    2    1    2    0    0  0.42919831958E+02  0.15091156421E+03 -0.56067809307E+03  0.58730126011E+03  0.77113123975E+02 0.  0.
         25    2    1    2    0    0 -0.29519252682E+02 -0.13747902190E+03 -0.29426587726E+02  0.19048320240E+03  0.12508420600E+03 0.  0.
         24    2    1    2    0    0 -0.13400579276E+02 -0.13432542309E+02  0.59584410871E+03  0.60146291650E+03  0.79796173643E+02 0.  0.
        -11    1    5    5    0    0 -0.12913750439E+02 -0.99288249074E+01  0.20854201523E+02  0.26462128327E+02  0.00000000000E+00 0.  1.
         12    1    5    5    0    0 -0.48682883684E+00 -0.35037174021E+01  0.57498990719E+03  0.57500078818E+03  0.00000000000E+00 0. -1.
         11    1    3    3    0    0  0.48678397529E+02  0.72087666388E+02 -0.20052572055E+03  0.21857900776E+03  0.00000000000E+00 0. -1.
        -12    1    3    3    0    0 -0.57585655710E+01  0.78823897825E+02 -0.36015237253E+03  0.36872225235E+03  0.00000000000E+00 0.  1.
          5    1    4    4  501    0 -0.18959733769E+02 -0.20387399465E+01 -0.49391115199E+02  0.53109157645E+02  0.41800000000E+01 0.  1.
         -5    1    4    4    0  501 -0.10559518914E+02 -0.13544028196E+03  0.19964527474E+02  0.13737404476E+03  0.41800000000E+01 0.  1.
</event>
<event>
11    1  0.7882745E-009  0.1406279E+03  0.7561462E-02  0.1106859E+00
         22   -1    0    0    0    0  0.00000000000E+00  0.00000000000E+00  0.19688705107E+03  0.19688705107E+03  0.00000000000E+00 0. -1.
         22   -1    0    0    0    0 -0.00000000000E+00 -0.00000000000E+00 -0.58352258827E+03  0.58352258827E+03  0.00000000000E+00 0. -1.
         24    2    1    2    0    0 -0.10033677280E+02  0.62623401565E+02 -0.45786209617E+03  0.46925631177E+03  0.80879057377E+02 0.  0.
         25    2    1    2    0    0 -0.79054087283E+01 -0.73199739131E+02 -0.59144799754E+02  0.15673884717E+03  0.12509301171E+03 0.  0.
        -24    2    1    2    0    0  0.17939086009E+02  0.10576337566E+02  0.13037135872E+03  0.15441448040E+03  0.80084148625E+02 0.  0.
        -13    1    3    3    0    0 -0.39911858338E+01  0.40584905661E+02 -0.72225799191E+02  0.82943536219E+02  0.00000000000E+00 0.  1.
         14    1    3    3    0    0 -0.60424914467E+01  0.22038495904E+02 -0.38563629698E+03  0.38631277555E+03  0.00000000000E+00 0. -1.
         13    1    5    5    0    0  0.17868896608E+02 -0.31069710636E+02  0.87924136322E+02  0.94948818492E+02  0.00000000000E+00 0. -1.
        -14    1    5    5    0    0  0.70189400434E-01  0.41646048202E+02  0.42447222394E+02  0.59465661909E+02  0.00000000000E+00 0.  1.
          5    1    4    4  501    0 -0.90357532876E+00  0.28978661617E+02  0.12324588076E+02  0.31779665648E+02  0.41800000000E+01 0.  1.
         -5    1    4    4    0  501 -0.70018333996E+01 -0.10217840075E+03 -0.71469387830E+02  0.12495918152E+03  0.41800000000E+01 0.  1.
</event>
<event>
11    1  0.7882745E-009  0.1283800E+03  0.7561462E-02  0.1121276E+00
         22   -1    0    0    0    0  0.00000000000E+00  0.00000000000E+00  0.10421591279E+04  0.10421591279E+04  0.00000000000E+00 0.  1.
         22   -1    0    0    0    0 -0.00000000000E+00 -0.00000000000E+00 -0.14000662699E+04  0.14000662699E+04  0.00000000000E+00 0.  1.
         24    2    1    2    0    0 -0.14776794139E+02  0.15133627524E+02 -0.13549612318E+04  0.13575662097E+04  0.81355355083E+02 0.  0.
         25    2    1    2    0    0 -0.93287900891E+01  0.23633396858E+01  0.52107899399E+02  0.13585252947E+03  0.12509222551E+03 0.  0.
        -24    2    1    2    0    0  0.24105584228E+02 -0.17496967210E+02  0.94494619042E+03  0.94880665860E+03  0.80147049658E+02 0.  0.
        -11    1    3    3    0    0 -0.12587254419E+02  0.20528788128E+02 -0.13490640713E+04  0.13492789699E+04  0.00000000000E+00 0.  1.
         12    1    3    3    0    0 -0.21895397199E+01 -0.53951606044E+01 -0.58971604760E+01  0.82872398186E+01  0.00000000000E+00 0. -1.
         13    1    5    5    0    0  0.52215589407E+02 -0.84308871799E+01  0.47559748705E+03  0.47852953652E+03  0.00000000000E+00 0. -1.
        -14    1    5    5    0    0 -0.28110005179E+02 -0.90660800299E+01  0.46934870337E+03  0.47027712208E+03  0.00000000000E+00 0.  1.
          5    1    4    4  501    0 -0.41782523619E+02 -0.39728576488E+02 -0.46352255614E+01  0.57992213148E+02  0.41800000000E+01 0. -1.
         -5    1    4    4    0  501  0.32453733530E+02  0.42091916174E+02  0.56743124960E+02  0.77860316320E+02  0.41800000000E+01 0. -1.
</event>
<event>
11    1  0.7882745E-009  0.1320514E+03  0.7561462E-02  0.1116774E+00
         22   -1    0    0    0    0  0.00000000000E+00  0.00000000000E+00  0.46671563732E+03  0.46671563732E+03  0.00000000000E+00 0.  1.
         22   -1    0    0    0    0 -0.00000000000E+00 -0.00000000000E+00 -0.37265790285E+03  0.37265790285E+03  0.00000000000E+00 0.  1.
        -24    2    1    2    0    0  0.15222442511E+02  0.20246160938E+02 -0.31884503253E+03  0.32991277034E+03  0.80861928459E+02 0.  0.
         25    2    1    2    0    0  0.25803515211E+01  0.21384880395E+02  0.52490175896E+02  0.13735721771E+03  0.12509122818E+03 0.  0.
         24    2    1    2    0    0 -0.17802794032E+02 -0.41631041333E+02  0.36041259111E+03  0.37210355212E+03  0.80707710871E+02 0.  0.
        -13    1    5    5    0    0 -0.23963914681E+02 -0.38994394081E+02  0.36226961307E+03  0.36514942767E+03  0.00000000000E+00 0.  1.
         14    1    5    5    0    0  0.61611206493E+01 -0.26366472518E+01 -0.18570219547E+01  0.69541244543E+01  0.00000000000E+00 0. -1.
         13    1    3    3    0    0 -0.20117441581E+02 -0.43630833712E+01 -0.22662719476E+02  0.30616120040E+02  0.00000000000E+00 0. -1.
        -14    1    3    3    0    0  0.35339884092E+02  0.24609244309E+02 -0.29618231305E+03  0.29929665030E+03  0.00000000000E+00 0.  1.
          5    1    4    4  501    0 -0.35180784627E+02 -0.23151363451E+02  0.64935322759E+02  0.77509623779E+02  0.41800000000E+01 0.  1.
         -5    1    4    4    0  501  0.37761136148E+02  0.44536243846E+02 -0.12445146863E+02  0.59847593933E+02  0.41800000000E+01 0.  1.
</event>
<event>
11    1  0.7882745E-009  0.1356473E+03  0.7561462E-02  0.1112519E+00
         22   -1    0    0    0    0  0.00000000000E+00  0.00000000000E+00  0.38238819053E+03  0.38238819053E+03  0.00000000000E+00 0.  1.
         22   -1    0    0    0    0 -0.00000000000E+00 -0.00000000000E+00 -0.21048729889E+03  0.21048729889E+03  0.00000000000E+00 0.  1.
        -24    2    1    2    0    0 -0.21263023062E+02 -0.49112145742E+02 -0.16760287865E+03  0.18895254271E+03  0.68907325142E+02 0.  0.
         25    2    1    2    0    0  0.29757364575E+02  0.23483168233E+02  0.17191600683E+03  0.21595980720E+03  0.12508623019E+03 0.  0.
         24    2    1    2    0    0 -0.84943415132E+01  0.25628977508E+02  0.16758776345E+03  0.18796313950E+03  0.80718554417E+02 0.  0.
        -11    1    5    5    0    0  0.23900296872E+02 -0.10258447818E+02  0.10871863130E+03  0.11178640675E+03  0.00000000000E+00 0.  1.
         12    1    5    5    0    0 -0.32394638386E+02  0.35887425326E+02  0.58869132151E+02  0.76176732753E+02  0.00000000000E+00 0. -1.
         11    1    3    3    0    0 -0.17038515669E+02  0.30743505890E+01 -0.48423338518E+01  0.17978065660E+02  0.00000000000E+00 0. -1.
        -12    1    3    3    0    0 -0.42245073930E+01 -0.52186496331E+02 -0.16276054480E+03  0.17097447705E+03  0.00000000000E+00 0.  1.
          5    1    4    4  501    0 -0.48147817074E+02  0.36421726047E+01  0.48158293295E+02  0.68324017178E+02  0.41800000000E+01 0. -1.
         -5    1    4    4    0  501  0.77905181649E+02  0.19840995629E+02  0.12375771354E+03  0.14763579002E+03  0.41800000000E+01 0. -1.
</event>
<event>
11    1  0.7882745E-009  0.2015685E+03  0.7561462E-02  0.1053420E+00
         22   -1    0    0    0    0  0.00000000000E+00  0.00000000000E+00  0.10856299368E+04  0.10856299368E+04  0.00000000000E+00 0. -1.
         22   -1    0    0    0    0 -0.00000000000E+00 -0.00000000000E+00 -0.64196487251E+03  0.64196487251E+03  0.00000000000E+00 0.  1.
         24    2    1    2    0    0 -0.27480042539E+02  0.14336886785E+03 -0.42669846272E+03  0.45799173868E+03  0.79844033013E+02 0.  0.
         25    2    1    2    0    0  0.58533617217E+02 -0.21480545070E+03 -0.11341208271E+03  0.27942417472E+03  0.12509197786E+03 0.  0.
        -24    2    1    2    0    0 -0.31053574677E+02  0.71436582846E+02  0.98377560973E+03  0.99017889592E+03  0.81069635204E+02 0.  0.
        -13    1    3    3    0    0 -0.39060558337E+02  0.13721141279E+03 -0.41936083212E+03  0.44296298552E+03  0.00000000000E+00 0.  1.
         14    1    3    3    0    0  0.11580515798E+02  0.61574550587E+01 -0.73376305933E+01  0.15028753164E+02  0.00000000000E+00 0. -1.
         13    1    5    5    0    0 -0.47626840420E+02  0.20796557295E+02  0.66052167223E+03  0.66256297226E+03  0.00000000000E+00 0. -1.
        -14    1    5    5    0    0  0.16573265743E+02  0.50640025550E+02  0.32325393750E+03  0.32761592366E+03  0.00000000000E+00 0.  1.
          5    1    4    4  501    0 -0.34869177810E+02 -0.52154685299E+02 -0.57988202201E+01  0.63143245686E+02  0.41800000000E+01 0.  1.
         -5    1    4    4    0  501  0.93402795027E+02 -0.16265076540E+03 -0.10761326249E+03  0.21628092904E+03  0.41800000000E+01 0.  1.
</event>
<event>
11    1  0.7882745E-009  0.1328318E+03  0.7561462E-02  0.1115838E+00
         22   -1    0    0    0    0  0.00000000000E+00  0.00000000000E+00  0.18556848950E+04  0.18556848950E+04  0.00000000000E+00 0. -1.
         22   -1    0    0    0    0 -0.00000000000E+00 -0.00000000000E+00 -0.88837335377E+03  0.88837335377E+03  0.00000000000E+00 0. -1.
         24    2    1    2    0    0  0.28687984613E+02 -0.25147150522E+02 -0.45298183490E+03  0.46147094976E+03  0.79419865771E+02 0.  0.
         25    2    1    2    0    0  0.14513329223E+02  0.36786104705E+02 -0.41999822955E+03  0.44001118939E+03  0.12508988664E+03 0.  0.
        -24    2    1    2    0    0 -0.43201313835E+02 -0.11638954183E+02  0.18402916057E+04  0.18425761096E+04  0.80073135266E+02 0.  0.
        -11    1    3    3    0    0  0.81153671729E+00 -0.24538600394E+02 -0.36101256392E+02  0.43658930520E+02  0.00000000000E+00 0.  1.
         12    1    3    3    0    0  0.27876447895E+02 -0.60855012866E+00 -0.41688057851E+03  0.41781201924E+03  0.00000000000E+00 0. -1.
         11    1    5    5    0    0 -0.43009929133E+02  0.20936884688E+01  0.17877705248E+04  0.17882890390E+04  0.00000000000E+00 0. -1.
        -12    1    5    5    0    0 -0.19138470195E+00 -0.13732642652E+02  0.52521080875E+02  0.54287070640E+02  0.00000000000E+00 0.  1.
          5    1    4    4  501    0  0.26833218750E+02 -0.35164326055E+02 -0.73522443227E+02  0.85904444084E+02  0.41800000000E+01 0. -1.
         -5    1    4    4    0  501 -0.12319889527E+02  0.71950430760E+02 -0.34647578633E+03  0.35410674531E+03  0.41800000000E+01 0. -1.
</event>
<event>
11    1  0.7882745E-009  0.1482340E+03  0.7561462E-02  0.1098697E+00
         22   -1    0    0    0    0  0.00000000000E+00  0.00000000000E+00  0.22683881768E+04  0.22683881768E+04  0.00000000000E+00 0.  1.
         22   -1    0    0    0    0 -0.00000000000E+00 -0.00000000000E+00 -0.38249913315E+02  0.38249913315E+02  0.00000000000E+00 0.  1.
         24    2    1    2    0    0 -0.17154888182E+02 -0.64303824524E+01  0.50205162276E+02  0.96536300163E+02  0.80393152214E+02 0.  0.
         25    2    1    2    0    0 -0.14779586342E+02 -0.67994553973E+02  0.37064990437E+03  0.39732912224E+03  0.12508950487E+03 0.  0.
        -24    2    1    2    0    0  0.31934474524E+02  0.74424936425E+02  0.18092831968E+04  0.18127726677E+04  0.77975487286E+02 0.  0.
        -11    1    3    3    0    0 -0.41952955286E+02  0.18403575906E+02  0.19076754331E+02  0.49625241754E+02  0.00000000000E+00 0.  1.
         12    1    3    3    0    0  0.24798067104E+02 -0.24833958358E+02  0.31128407945E+02  0.46911058409E+02  0.00000000000E+00 0. -1.
         13    1    5    5    0    0 -0.72922488130E+01 -0.99329390035E+01  0.75817555903E+02  0.76812381509E+02  0.00000000000E+00 0. -1.
        -14    1    5    5    0    0  0.39226723337E+02  0.84357875429E+02  0.17334656409E+04  0.17359602862E+04  0.00000000000E+00 0.  1.
          5    1    4    4  501    0 -0.31721180730E+02 -0.78644699191E+02  0.12665979362E+03  0.15248409011E+03  0.41800000000E+01 0.  1.
         -5    1    4    4    0  501  0.16941594388E+02  0.10650145218E+02  0.24399011075E+03  0.24484503212E+03  0.41800000000E+01 0.  1.
</event>
<event>
11    1  0.7882745E-009  0.1307972E+03  0.7561462E-02  0.1118293E+00
         22   -1    0    0    0    0  0.00000000000E+00  0.00000000000E+00  0.43342781556E+03  0.43342781556E+03  0.00000000000E+00 0. -1.
         22   -1    0    0    0    0 -0.00000000000E+00 -0.00000000000E+00 -0.40076077368E+03  0.40076077368E+03  0.00000000000E+00 0. -1.
        -24    2    1    2    0    0 -0.20324789149E+02 -0.36788424026E+02 -0.27286010378E+03  0.28824913500E+03  0.82876066506E+02 0.  0.
         25    2    1    2    0    0  0.17552345477E+02  0.13933690684E+02 -0.80463261801E+02  0.15041377086E+03  0.12509090053E+03 0.  0.
         24    2    1    2    0    0  0.27724436718E+01  0.22854733342E+02  0.38599040747E+03  0.39552568338E+03  0.83198234815E+02 0.  0.
        -13    1    5    5    0    0 -0.19453128587E+02 -0.15403206714E+02  0.42623353285E+02  0.49319704319E+02  0.00000000000E+00 0.  1.
         14    1    5    5    0    0  0.22225572259E+02  0.38257940055E+02  0.34336705418E+03  0.34620597906E+03  0.00000000000E+00 0. -1.
         11    1    3    3    0    0 -0.19328587821E+02 -0.27157169573E+02 -0.27604950658E+03  0.27805473607E+03  0.00000000000E+00 0. -1.
        -12    1    3    3    0    0 -0.99620132785E+00 -0.96312544531E+01  0.31894028013E+01  0.10194398935E+02  0.00000000000E+00 0.  1.
          5    1    4    4  501    0  0.68710341407E+02  0.24458622572E+02 -0.58543729387E+02  0.93617177296E+02  0.41800000000E+01 0.  1.
         -5    1    4    4    0  501 -0.51157995930E+02 -0.10524931888E+02 -0.21919532414E+02  0.56796593560E+02  0.41800000000E+01 0.  1.
</event>
<event>
11    1  0.7882745E-009  0.1507708E+03  0.7561462E-02  0.1096094E+00
         22   -1    0    0    0    0  0.00000000000E+00  0.00000000000E+00  0.11406776800E+03  0.11406776800E+03  0.00000000000E+00 0. -1.
         22   -1    0    0    0    0 -0.00000000000E+00 -0.00000000000E+00 -0.10101209414E+04  0.10101209414E+04  0.00000000000E+00 0.  1.
         24    2    1    2    0    0  0.50036362394E+02 -0.67499188179E+01 -0.75461617159E+03  0.76008735327E+03  0.75749714215E+02 0.  0.
         25    2    1    2    0    0 -0.83972007914E+02  0.78054820202E+02 -0.17358400722E+03  0.24273957034E+03  0.12508892188E+03 0.  0.
        -24    2    1    2    0    0  0.33935645519E+02 -0.71304901385E+02  0.32147005394E+02  0.12136178581E+03  0.86366869238E+02 0.  0.
        -11    1    3    3    0    0  0.67900380150E+02  0.51252933952E+01 -0.62626412926E+03  0.62995514908E+03  0.00000000000E+00 0.  1.
         12    1    3    3    0    0 -0.17864017756E+02 -0.11875212213E+02 -0.12835204233E+03  0.13013220419E+03  0.00000000000E+00 0. -1.
         11    1    5    5    0    0  0.26449724721E+02 -0.21289163047E+01  0.43408489859E+02  0.50876489800E+02  0.00000000000E+00 0. -1.
        -12    1    5    5    0    0  0.74859207980E+01 -0.69175985080E+02 -0.11261484465E+02  0.70485296015E+02  0.00000000000E+00 0.  1.
          5    1    4    4  501    0 -0.11714393869E+03  0.60579131848E+02 -0.13410651438E+03  0.18813442850E+03  0.41800000000E+01 0. -1.
         -5    1    4    4    0  501  0.33171930776E+02  0.17475688354E+02 -0.39477492841E+02  0.54605141845E+02  0.41800000000E+01 0. -1.
</event>
<event>
11    1  0.7882745E-009  0.1377386E+03  0.7561462E-02  0.1110110E+00
         22   -1    0    0    0    0  0.00000000000E+00  0.00000000000E+00  0.25032352627E+03  0.25032352627E+03  0.00000000000E+00 0. -1.
         22   -1    0    0    0    0 -0.00000000000E+00 -0.00000000000E+00 -0.58620706121E+03  0.58620706121E+03  0.00000000000E+00 0.  1.
        -24    2    1    2    0    0  0.12902428172E+02  0.56698685046E+02 -0.40446115725E+03  0.41583874036E+03  0.77148018279E+02 0.  0.
         25    2    1    2    0    0 -0.59576993496E+02 -0.39416742666E+02 -0.13406396535E+03  0.19678548910E+03  0.12509310197E+03 0.  0.
         24    2    1    2    0    0  0.46674565323E+02 -0.17281942380E+02  0.20264158765E+03  0.22390635801E+03  0.81198913362E+02 0.  0.
        -11    1    5    5    0    0  0.17510895982E+01 -0.22280427790E+02  0.74631040927E+01  0.23562294031E+02  0.00000000000E+00 0.  1.
         12    1    5    5    0    0  0.44923475725E+02  0.49984854100E+01  0.19517848356E+03  0.20034406398E+03  0.00000000000E+00 0. -1.
         13    1    3    3    0    0 -0.29016533181E+02  0.41166909979E+02 -0.25078664060E+03  0.25579408276E+03  0.00000000000E+00 0. -1.
        -14    1    3    3    0    0  0.41918961353E+02  0.15531775067E+02 -0.15367451665E+03  0.16004465760E+03  0.00000000000E+00 0.  1.
          5    1    4    4  501    0  0.83620791622E+01  0.16774559087E+02  0.14442812199E+02  0.24028679212E+02  0.41800000000E+01 0.  1.
         -5    1    4    4    0  501 -0.67939072658E+02 -0.56191301753E+02 -0.14850677755E+03  0.17275680989E+03  0.41800000000E+01 0.  1.
</event>
<event>
11    1  0.7882745E-009  0.1371528E+03  0.7561462E-02  0.1110780E+00
         22   -1    0    0    0    0  0.00000000000E+00  0.00000000000E+00  0.31021470502E+02  0.31021470502E+02  0.00000000000E+00 0. -1.
         22   -1    0    0    0    0 -0.00000000000E+00 -0.00000000000E+00 -0.98797476461E+03  0.98797476461E+03  0.00000000000E+00 0. -1.
        -24    2    1    2    0    0  0.13538496138E+02 -0.79298804943E+01 -0.40700623375E+03  0.41524698025E+03  0.80807217564E+02 0.  0.
         25    2    1    2    0    0 -0.36471851905E+02  0.55074448489E+02 -0.39813782425E+03  0.42252083108E+03  0.12508690875E+03 0.  0.
         24    2    1    2    0    0  0.22933355768E+02 -0.47144567994E+02 -0.15180923611E+03  0.18122842379E+03  0.83959206296E+02 0.  0.
        -11    1    5    5    0    0  0.46486231755E+02 -0.55582808523E+02 -0.97917047958E+02  0.12181201348E+03  0.00000000000E+00 0.  1.
         12    1    5    5    0    0 -0.23552875987E+02  0.84382405287E+01 -0.53892188153E+02  0.59416410313E+02  0.00000000000E+00 0. -1.
         11    1    3    3    0    0  0.13265266456E+02 -0.98491143184E+01 -0.41072292318E+03  0.41105509603E+03  0.00000000000E+00 0. -1.
        -12    1    3    3    0    0  0.27322968125E+00  0.19192338242E+01  0.37166894322E+01  0.41918842143E+01  0.00000000000E+00 0.  1.
          5    1    4    4  501    0 -0.26003182300E+02  0.15619608174E+02 -0.37330380889E+03  0.37455753066E+03  0.41800000000E+01 0.  1.
         -5    1    4    4    0  501 -0.10468669605E+02  0.39454840315E+02 -0.24834015364E+02  0.47963300414E+02  0.41800000000E+01 0.  1.
</event>
<event>
11    1  0.7882745E-009  0.1345839E+03  0.7561462E-02  0.1113762E+00
         22   -1    0    0    0    0  0.00000000000E+00  0.00000000000E+00  0.14172881864E+04  0.14172881864E+04  0.00000000000E+00 0.  1.
         22   -1    0    0    0    0 -0.00000000000E+00 -0.00000000000E+00 -0.16804571136E+03  0.16804571136E+03  0.00000000000E+00 0.  1.
         24    2    1    2    0    0  0.56384207568E+02  0.67748175560E+01 -0.74443444407E+02  0.12266398055E+03  0.79243603485E+02 0.  0.
         25    2    1    2    0    0 -0.75171478633E+02 -0.51848053448E+02  0.21382450901E+02  0.15634160893E+03  0.12508604091E+03 0.  0.
        -24    2    1    2    0    0  0.18787271065E+02  0.45073235892E+02  0.13023034686E+04  0.13063283083E+04  0.90081999581E+02 0.  0.
        -11    1    3    3    0    0  0.55072356656E+02 -0.27385825051E+02 -0.58721340218E+02  0.85036131605E+02  0.00000000000E+00 0.  1.
         12    1    3    3    0    0  0.13118509122E+01  0.34160642607E+02 -0.15722104189E+02  0.37627848945E+02  0.00000000000E+00 0. -1.
         11    1    5    5    0    0 -0.12053434912E+02 -0.20007870200E+02  0.15322576835E+03  0.15499592333E+03  0.00000000000E+00 0. -1.
        -12    1    5    5    0    0  0.30840705977E+02  0.65081106092E+02  0.11490777002E+04  0.11513323850E+04  0.00000000000E+00 0.  1.
          5    1    4    4  501    0 -0.38929098994E+02 -0.92217615018E+02  0.18296337959E+02  0.10184199355E+03  0.41800000000E+01 0. -1.
         -5    1    4    4    0  501 -0.36242379639E+02  0.40369561571E+02  0.30861129418E+01  0.54499615379E+02  0.41800000000E+01 0. -1.
</event>
<event>
11    1  0.7882745E-009  0.1799117E+03  0.7561462E-02  0.1069714E+00
         22   -1    0    0    0    0  0.00000000000E+00  0.00000000000E+00  0.15489748911E+03  0.15489748911E+03  0.00000000000E+00 0. -1.
         22   -1    0    0    0    0 -0.00000000000E+00 -0.00000000000E+00 -0.76670549341E+03  0.76670549341E+03  0.00000000000E+00 0. -1.
         24    2    1    2    0    0  0.75182170836E+02 -0.86010973719E+02 -0.47365691857E+03  0.49404636475E+03  0.81735473328E+02 0.  0.
         25    2    1    2    0    0 -0.11291720191E+03 -0.49774346500E+02 -0.18881705265E+03  0.25793007575E+03  0.12509302359E+03 0.  0.
        -24    2    1    2    0    0  0.37735031073E+02  0.13578532022E+03  0.50665966926E+02  0.16962654201E+03  0.79652606950E+02 0.  0.
        -13    1    3    3    0    0  0.37933105350E+02 -0.96242624750E+01 -0.59200380712E+02  0.70966414494E+02  0.00000000000E+00 0.  1.
         14    1    3    3    0    0  0.37249065487E+02 -0.76386711244E+02 -0.41445653786E+03  0.42307995025E+03  0.00000000000E+00 0. -1.
         13    1    5    5    0    0  0.31817464145E+02  0.13832929628E+03  0.63322297140E+02  0.15542541153E+03  0.00000000000E+00 0. -1.
        -14    1    5    5    0    0  0.59175669279E+01 -0.25439760612E+01 -0.12656330214E+02  0.14201130484E+02  0.00000000000E+00 0.  1.
          5    1    4    4  501    0 -0.52057597704E+02  0.37747312349E+01  0.46948842862E-01  0.52361404477E+02  0.41800000000E+01 0. -1.
         -5    1    4    4    0  501 -0.60859604205E+02 -0.53549077734E+02 -0.18886400149E+03  0.20556867128E+03  0.41800000000E+01 0. -1.
</event>
<event>
11    1  0.7882745E-009  0.1425564E+03  0.7561462E-02  0.1104737E+00
         22   -1    0    0    0    0  0.00000000000E+00  0.00000000000E+00  0.88582435399E+03  0.88582435399E+03  0.00000000000E+00 0. -1.
         22   -1    0    0    0    0 -0.00000000000E+00 -0.00000000000E+00 -0.93762304277E+03  0.93762304277E+03  0.00000000000E+00 0. -1.
        -24    2    1    2    0    0  0.16170852071E+02 -0.66400101720E+02 -0.90903413988E+03  0.91537806448E+03  0.83087083776E+02 0.  0.
         25    2    1    2    0    0 -0.36964554212E+02  0.63895606625E+02  0.20762463985E+03  0.25338544686E+03  0.12508863574E+03 0.  0.
         24    2    1    2    0    0  0.20793702141E+02  0.25044950944E+01  0.64961081124E+03  0.65468388542E+03  0.78601101803E+02 0.  0.
        -13    1    5    5    0    0  0.14222281687E+02  0.16485643039E+02  0.46179240388E+02  0.51054597889E+02  0.00000000000E+00 0.  1.
         14    1    5    5    0    0  0.65714204537E+01 -0.13981147944E+02  0.60343157086E+03  0.60362928754E+03  0.00000000000E+00 0. -1.
         11    1    3    3    0    0  0.24264961427E+02 -0.82365379793E+02 -0.82513977604E+03  0.82959537977E+03  0.00000000000E+00 0. -1.
        -12    1    3    3    0    0 -0.80941093565E+01  0.15965278073E+02 -0.83894363843E+02  0.85782684703E+02  0.00000000000E+00 0.  1.
          5    1    4    4  501    0 -0.20097816794E+02  0.41462261078E+01  0.18650044469E+03  0.18767259176E+03  0.41800000000E+01 0.  1.
         -5    1    4    4    0  501 -0.16866737418E+02  0.59749380517E+02  0.21124195167E+02  0.65712855096E+02  0.41800000000E+01 0.  1.
</event>
<event>
11    1  0.7882745E-009  0.1332360E+03  0.7561462E-02  0.1115356E+00
         22   -1    0    0    0    0  0.00000000000E+00  0.00000000000E+00  0.13185716392E+04  0.13185716392E+04  0.00000000000E+00 0. -1.
         22   -1    0    0    0    0 -0.00000000000E+00 -0.00000000000E+00 -0.15922913965E+03  0.15922913965E+03  0.00000000000E+00 0.  1.
        -24    2    1    2    0    0 -0.32455774913E+02 -0.21362058995E+02 -0.59068096164E+02  0.10799740363E+03  0.81637517828E+02 0.  0.
         25    2    1    2    0    0  0.69901293402E+02  0.86799418461E+01 -0.45115460114E+01  0.14361996431E+03  0.12507920647E+03 0.  0.
         24    2    1    2    0    0 -0.37445518489E+02  0.12682117149E+02  0.12229221417E+04  0.12261834109E+04  0.80151041813E+02 0.  0.
        -11    1    5    5    0    0 -0.33345997651E+02  0.87226518108E+01  0.18139612808E+03  0.18464180322E+03  0.00000000000E+00 0.  1.
         12    1    5    5    0    0 -0.40995208378E+01  0.39594653380E+01  0.10415260136E+04  0.10415416077E+04  0.00000000000E+00 0. -1.
         11    1    3    3    0    0 -0.47362769655E+02 -0.30972676587E+02 -0.12207692892E+02  0.57892714654E+02  0.00000000000E+00 0. -1.
        -12    1    3    3    0    0  0.14906994742E+02  0.96106175917E+01 -0.46860403272E+02  0.50104688978E+02  0.00000000000E+00 0.  1.
          5    1    4    4  501    0 -0.35168880044E+02 -0.97088136197E+01 -0.32084546484E+01  0.36862959278E+02  0.41800000000E+01 0. -1.
         -5    1    4    4    0  501  0.10507017345E+03  0.18388755466E+02 -0.13030913630E+01  0.10675700503E+03  0.41800000000E+01 0. -1.
</event>
<event>
11    1  0.7882745E-009  0.2887391E+03  0.7561462E-02  0.1005073E+00
         22   -1    0    0    0    0  0.00000000000E+00  0.00000000000E+00  0.16550307066E+04  0.16550307066E+04  0.00000000000E+00 0. -1.
         22   -1    0    0    0    0 -0.00000000000E+00 -0.00000000000E+00 -0.15669280211E+04  0.15669280211E+04  0.00000000000E+00 0. -1.
        -24    2    1    2    0    0  0.39398660416E+02 -0.70074980745E+02 -0.14851190789E+04  0.14894185984E+04  0.79538201041E+02 0.  0.
         25    2    1    2    0    0 -0.28864627226E+03  0.11862845888E+02  0.31137258652E+03  0.44278452154E+03  0.12509135573E+03 0.  0.
         24    2    1    2    0    0  0.24924761184E+03  0.58212134857E+02  0.12618491778E+04  0.12897556077E+04  0.75453001642E+02 0.  0.
        -11    1    5    5    0    0  0.18520412411E+03  0.74784516263E+02  0.89834115002E+03  0.92027719372E+03  0.00000000000E+00 0.  1.
         12    1    5    5    0    0  0.64043487732E+02 -0.16572381406E+02  0.36350802779E+03  0.36947841400E+03  0.00000000000E+00 0. -1.
         11    1    3    3    0    0 -0.13688868452E+02 -0.43476382827E+02 -0.93366608693E+03  0.93477801796E+03  0.00000000000E+00 0. -1.
        -12    1    3    3    0    0  0.53087528868E+02 -0.26598597918E+02 -0.55145299198E+03  0.55464058047E+03  0.00000000000E+00 0.  1.
          5    1    4    4  501    0 -0.16313677135E+03  0.64012426537E+02  0.20774803480E+03  0.27182331629E+03  0.41800000000E+01 0. -1.
         -5    1    4    4    0  501 -0.12550950091E+03 -0.52149580649E+02  0.10362455173E+03  0.17096120525E+03  0.41800000000E+01 0. -1.
</event>
<event>
11    1  0.7882745E-009  0.1354724E+03  0.7561462E-02  0.1112722E+00
         22   -1    0    0    0    0  0.00000000000E+00  0.00000000000E+00  0.97205111699E+03  0.97205111699E+03  0.00000000000E+00 0. -1.
         22   -1    0    0    0    0 -0.00000000000E+00 -0.00000000000E+00 -0.82441578308E+03  0.82441578308E+03  0.00000000000E+00 0.  1.
         24    2    1    2    0    0 -0.71454941020E+01  0.10679376005E+02 -0.59663109742E+03  0.60214628859E+03  0.80289347360E+02 0.  0.
         25    2    1    2    0    0 -0.44125606111E+02 -0.10934538036E+01 -0.20173379841E+03  0.24143581259E+03  0.12508581625E+03 0.  0.
        -24    2    1    2    0    0  0.51271100213E+02 -0.95859222014E+01  0.94600022973E+03  0.95288479889E+03  0.10174669366E+03 0.  0.
        -11    1    3    3    0    0 -0.42326729509E+02 -0.37898945976E+01 -0.27311313117E+03  0.27639952560E+03  0.00000000000E+00 0.  1.
         12    1    3    3    0    0  0.35181235407E+02  0.14469270603E+02 -0.32351796624E+03  0.32574676299E+03  0.00000000000E+00 0. -1.
         13    1    5    5    0    0  0.82126818501E+02 -0.13349030580E+02  0.67620406201E+03  0.68130385616E+03  0.00000000000E+00 0. -1.
        -14    1    5    5    0    0 -0.30855718288E+02  0.37631083781E+01  0.26979616772E+03  0.27158094273E+03  0.00000000000E+00 0.  1.
          5    1    4    4  501    0 -0.98561948785E+01 -0.43035487812E+02 -0.14773252369E+02  0.46743119004E+02  0.41800000000E+01 0. -1.
         -5    1    4    4    0  501 -0.34269411233E+02  0.41942034008E+02 -0.18696054604E+03  0.19469269359E+03  0.41800000000E+01 0. -1.
</event>
<event>
11    1  0.7882745E-009  0.1519946E+03  0.7561462E-02  0.1094858E+00
         22   -1    0    0    0    0  0.00000000000E+00  0.00000000000E+00  0.39352241148E+04  0.39352241148E+04  0.00000000000E+00 0. -1.
         22   -1    0    0    0    0 -0.00000000000E+00 -0.00000000000E+00 -0.80313998182E+02  0.80313998182E+02  0.00000000000E+00 0.  1.
         24    2    1    2    0    0 -0.70328224987E+02  0.49549646297E+02 -0.24818639041E+02  0.12362272514E+03  0.85237237457E+02 0.  0.
         25    2    1    2    0    0  0.90880645670E+02 -0.32667572071E+02  0.11160105940E+04  0.11271444429E+04  0.12509391368E+03 0.  0.
        -24    2    1    2    0    0 -0.20552420683E+02 -0.16882074226E+02  0.27637181617E+04  0.27647709450E+04  0.71504506372E+02 0.  0.
        -11    1    3    3    0    0 -0.67495614396E+02  0.62990344708E+02 -0.42165819526E+02  0.10149580201E+03  0.00000000000E+00 0.  1.
         12    1    3    3    0    0 -0.28326105912E+01 -0.13440698410E+02  0.17347180485E+02  0.22126923132E+02  0.00000000000E+00 0. -1.
         11    1    5    5    0    0 -0.29879133613E+02 -0.40388959137E+02  0.16451401965E+04  0.16459071350E+04  0.00000000000E+00 0. -1.
        -12    1    5    5    0    0  0.93267129306E+01  0.23506884911E+02  0.11185779652E+04  0.11188638100E+04  0.00000000000E+00 0.  1.
          5    1    4    4  501    0 -0.13602529444E+02 -0.13774787704E+02  0.30000258658E+02  0.35948038933E+02  0.41800000000E+01 0. -1.
         -5    1    4    4    0  501  0.10448317511E+03 -0.18892784368E+02  0.10860103353E+04  0.10911964040E+04  0.41800000000E+01 0. -1.
</event>
<event>
11    1  0.7882745E-009  0.1370050E+03  0.7561462E-02  0.1110950E+00
         22   -1    0    0    0    0  0.00000000000E+00  0.00000000000E+00  0.27402344470E+04  0.27402344470E+04  0.00000000000E+00 0.  1.
         22   -1    0    0    0    0 -0.00000000000E+00 -0.00000000000E+00 -0.14136483820E+04  0.14136483820E+04  0.00000000000E+00 0.  1.
        -24    2    1    2    0    0  0.11920176894E+02 -0.98957413870E+00 -0.24473351094E+03  0.25763221705E+03  0.79604007505E+02 0.  0.
         25    2    1    2    0    0 -0.66485585446E+02  0.12910554562E+02 -0.11572273020E+04  0.11659382150E+04  0.12509946938E+03 0.  0.
         24    2    1    2    0    0  0.54565408552E+02 -0.11920980423E+02  0.27285468780E+04  0.27303123970E+04  0.80735532269E+02 0.  0.
        -13    1    5    5    0    0  0.75520809687E+02 -0.43770660192E+01  0.21862217018E+04  0.21875300869E+04  0.00000000000E+00 0.  1.
         14    1    5    5    0    0 -0.20955401135E+02 -0.75439144040E+01  0.54232517615E+03  0.54278231011E+03  0.00000000000E+00 0. -1.
         13    1    3    3    0    0  0.29918626581E+01 -0.86359221988E+01  0.30005337327E+01  0.96194385008E+01  0.00000000000E+00 0. -1.
        -14    1    3    3    0    0  0.89283142359E+01  0.76463480601E+01 -0.24773404467E+03  0.24801277855E+03  0.00000000000E+00 0.  1.
          5    1    4    4  501    0 -0.37037117789E+01  0.61762453963E+02 -0.45482000240E+03  0.45902834900E+03  0.41800000000E+01 0.  1.
         -5    1    4    4    0  501 -0.62781873667E+02 -0.48851899401E+02 -0.70240729957E+03  0.70690986598E+03  0.41800000000E+01 0.  1.
</event>
<event>
11    1  0.7882745E-009  0.2050354E+03  0.7561462E-02  0.1051019E+00
         22   -1    0    0    0    0  0.00000000000E+00  0.00000000000E+00  0.24457582182E+04  0.24457582182E+04  0.00000000000E+00 0. -1.
         22   -1    0    0    0    0 -0.00000000000E+00 -0.00000000000E+00 -0.34597846453E+03  0.34597846453E+03  0.00000000000E+00 0.  1.
         24    2    1    2    0    0  0.75599377804E+02 -0.76605383080E+02 -0.28010986404E+03  0.31066948618E+03  0.80438442753E+02 0.  0.
         25    2    1    2    0    0 -0.12226942700E+02  0.22278098207E+03  0.30224145787E+03  0.39595220534E+03  0.12508951178E+03 0.  0.
        -24    2    1    2    0    0 -0.63372435104E+02 -0.14617559899E+03  0.20776481598E+04  0.20851149912E+04  0.75493570699E+02 0.  0.
        -11    1    3    3    0    0  0.78789431440E+02 -0.89835779442E+02 -0.26246899315E+03  0.28838899796E+03  0.00000000000E+00 0.  1.
         12    1    3    3    0    0 -0.31900536362E+01  0.13230396362E+02 -0.17640870882E+02  0.22280488226E+02  0.00000000000E+00 0. -1.
         13    1    5    5    0    0 -0.45619672375E+02 -0.49962928542E+02  0.12260266560E+04  0.12278920188E+04  0.00000000000E+00 0. -1.
        -14    1    5    5    0    0 -0.17752762729E+02 -0.96212670448E+02  0.85162150385E+03  0.85722297237E+03  0.00000000000E+00 0.  1.
          5    1    4    4  501    0  0.31196588697E+02  0.18922073931E+02  0.95629346627E+02  0.10243884207E+03  0.41800000000E+01 0. -1.
         -5    1    4    4    0  501 -0.43423531396E+02  0.20385890814E+03  0.20661211125E+03  0.29351336327E+03  0.41800000000E+01 0. -1.
</event>
<event>
11    1  0.7882745E-009  0.1378336E+03  0.7561462E-02  0.1110002E+00
         22   -1    0    0    0    0  0.00000000000E+00  0.00000000000E+00  0.58610401699E+03  0.58610401699E+03  0.00000000000E+00 0.  1.
         22   -1    0    0    0    0 -0.00000000000E+00 -0.00000000000E+00 -0.26470904331E+03  0.26470904331E+03  0.00000000000E+00 0.  1.
        -24    2    1    2    0    0  0.42591897083E+02 -0.76137779105E+01 -0.10904156856E+03  0.14074725793E+03  0.77766880037E+02 0.  0.
         25    2    1    2    0    0  0.15071324963E+02 -0.60516464464E+01 -0.10597724200E+03  0.16474939968E+03  0.12508965429E+03 0.  0.
         24    2    1    2    0    0 -0.57663222046E+02  0.13665424357E+02  0.53641378424E+03  0.54531640269E+03  0.78220458452E+02 0.  0.
        -11    1    5    5    0    0 -0.39428236270E+02 -0.28841276756E+02  0.20788133434E+03  0.21354403346E+03  0.00000000000E+00 0.  1.
         12    1    5    5    0    0 -0.18234985776E+02  0.42506701113E+02  0.32853244990E+03  0.33177236923E+03  0.00000000000E+00 0. -1.
         11    1    3    3    0    0 -0.62272378507E+00 -0.33436536615E+02 -0.68063792922E+02  0.75835807325E+02  0.00000000000E+00 0. -1.
        -12    1    3    3    0    0  0.43214620868E+02  0.25822758705E+02 -0.40977775637E+02  0.64911450608E+02  0.00000000000E+00 0.  1.
          5    1    4    4  501    0 -0.27633788213E+02  0.43615831763E+02 -0.17694186790E+02  0.54740512215E+02  0.41800000000E+01 0.  1.
         -5    1    4    4    0  501  0.42705113177E+02 -0.49667478210E+02 -0.88283055210E+02  0.11000888746E+03  0.41800000000E+01 0.  1.
</event>
<event>
11    1  0.7882745E-009  0.1369749E+03  0.7561462E-02  0.1110984E+00
         22   -1    0    0    0    0  0.00000000000E+00  0.00000000000E+00  0.60464361159E+02  0.60464361159E+02  0.00000000000E+00 0. -1.
         22   -1    0    0    0    0 -0.00000000000E+00 -0.00000000000E+00 -0.10412039063E+04  0.10412039063E+04  0.00000000000E+00 0. -1.
         24    2    1    2    0    0 -0.46881005405E+02  0.37537954872E+02 -0.57814239707E+03  0.58613283670E+03  0.75472804631E+02 0.  0.
         25    2    1    2    0    0  0.94871684866E+02 -0.18298460663E+02 -0.38578826918E+03  0.41691218362E+03  0.12509080689E+03 0.  0.
        -24    2    1    2    0    0 -0.47990679461E+02 -0.19239494209E+02 -0.16808878930E+02  0.98623247174E+02  0.82284524788E+02 0.  0.
        -13    1    3    3    0    0  0.17418073214E+02  0.11199949591E+02 -0.62774362880E+02  0.66101806180E+02  0.00000000000E+00 0.  1.
         14    1    3    3    0    0 -0.64299078619E+02  0.26338005280E+02 -0.51536803419E+03  0.52003103051E+03  0.00000000000E+00 0. -1.
         11    1    5    5    0    0  0.47823145038E+01  0.42706023003E+01  0.25961349401E+02  0.26741358207E+02  0.00000000000E+00 0. -1.
        -12    1    5    5    0    0 -0.52772993965E+02 -0.23510096509E+02 -0.42770228331E+02  0.71881888967E+02  0.00000000000E+00 0.  1.
          5    1    4    4  501    0  0.23614210618E+02 -0.45099831107E+02 -0.46212135057E+02  0.68881489063E+02  0.41800000000E+01 0.  1.
         -5    1    4    4    0  501  0.71257474248E+02  0.26801370444E+02 -0.33957613412E+03  0.34803069456E+03  0.41800000000E+01 0.  1.
</event>
<event>
11    1  0.7882745E-009  0.1443948E+03  0.7561462E-02  0.1102748E+00
         22   -1    0    0    0    0  0.00000000000E+00  0.00000000000E+00  0.29879099692E+04  0.29879099692E+04  0.00000000000E+00 0. -1.
         22   -1    0    0    0    0 -0.00000000000E+00 -0.00000000000E+00 -0.40035508707E+03  0.40035508707E+03  0.00000000000E+00 0.  1.
        -24    2    1    2    0    0  0.10025510505E+02 -0.77742113049E+02 -0.23340495214E+03  0.25902245014E+03  0.80438864942E+02 0.  0.
         25    2    1    2    0    0  0.19874077264E+02  0.58206252226E+02 -0.12181949542E+03  0.18512262830E+03  0.12508977296E+03 0.  0.
         24    2    1    2    0    0 -0.29899587769E+02  0.19535860823E+02  0.29427793297E+04  0.29441199778E+04  0.81342642326E+02 0.  0.
        -13    1    5    5    0    0  0.11922672078E+02  0.23645052663E+02  0.35008390915E+03  0.35108400999E+03  0.00000000000E+00 0.  1.
         14    1    5    5    0    0 -0.41822259847E+02 -0.41091918393E+01  0.25926954205E+04  0.25930359678E+04  0.00000000000E+00 0. -1.
         13    1    3    3    0    0 -0.53061078476E+01  0.12384398091E+02 -0.77301268031E+01  0.15533285453E+02  0.00000000000E+00 0. -1.
        -14    1    3    3    0    0  0.15331618352E+02 -0.90126511139E+02 -0.22567482534E+03  0.24348916469E+03  0.00000000000E+00 0.  1.
          5    1    4    4  501    0  0.65000668448E+01  0.92928071499E+02 -0.54274065580E+02  0.10789357690E+03  0.41800000000E+01 0. -1.
         -5    1    4    4    0  501  0.13374010420E+02 -0.34721819273E+02 -0.67545429838E+02  0.77229051402E+02  0.41800000000E+01 0. -1.
</event>
<event>
11    1  0.7882745E-009  0.1404040E+03  0.7561462E-02  0.1107108E+00
         22   -1    0    0    0    0  0.00000000000E+00  0.00000000000E+00  0.52766559120E+03  0.52766559120E+03  0.00000000000E+00 0.  1.
         22   -1    0    0    0    0 -0.00000000000E+00 -0.00000000000E+00 -0.16917276895E+03  0.16917276895E+03  0.00000000000E+00 0.  1.
        -24    2    1    2    0    0  0.24426758087E+02 -0.53633953811E+02 -0.35652435467E+02  0.10601429587E+03  0.80589498464E+02 0.  0.
         25    2    1    2    0    0 -0.45028318199E+02  0.56912877146E+02 -0.39106915304E+02  0.14980815969E+03  0.12508600586E+03 0.  0.
         24    2    1    2    0    0  0.20601560111E+02 -0.32789233352E+01  0.43325217302E+03  0.44101590458E+03  0.79701988982E+02 0.  0.
        -11    1    5    5    0    0  0.62212423924E+01  0.12328402669E+02  0.40710950725E+03  0.40734364394E+03  0.00000000000E+00 0.  1.
         12    1    5    5    0    0  0.14380317719E+02 -0.15607326005E+02  0.26142665776E+02  0.33672260640E+02  0.00000000000E+00 0. -1.
         13    1    3    3    0    0 -0.23275670032E+02 -0.38273933594E+02 -0.49659697572E+00  0.44798408641E+02  0.00000000000E+00 0. -1.
        -14    1    3    3    0    0  0.47702428119E+02 -0.15360020216E+02 -0.35155838491E+02  0.61215887232E+02  0.00000000000E+00 0.  1.
          5    1    4    4  501    0 -0.14082098415E+02 -0.24355934528E+02  0.27979218879E+02  0.39897695819E+02  0.41800000000E+01 0.  1.
         -5    1    4    4    0  501 -0.30946219783E+02  0.81268811674E+02 -0.67086134183E+02  0.10991046388E+03  0.41800000000E+01 0.  1.
</event>
<event>
11    1  0.7882745E-009  0.1837896E+03  0.7561462E-02  0.1066618E+00
         22   -1    0    0    0    0  0.00000000000E+00  0.00000000000E+00  0.27783827412E+03  0.27783827412E+03  0.00000000000E+00 0.  1.
         22   -1    0    0    0    0 -0.00000000000E+00 -0.00000000000E+00 -0.90604987944E+03  0.90604987944E+03  0.00000000000E+00 0.  1.
        -24    2    1    2    0    0 -0.69508051816E+02 -0.11579491113E+03 -0.75190983869E+03  0.76819067422E+03  0.80676364155E+02 0.  0.
         25    2    1    2    0    0  0.53266230981E+02  0.12148841448E+03 -0.77664303821E+02  0.19817881002E+03  0.12508545253E+03 0.  0.
         24    2    1    2    0    0  0.16241820834E+02 -0.56935033529E+01  0.20136253719E+03  0.21751866933E+03  0.80444312386E+02 0.  0.
        -11    1    5    5    0    0  0.16987821840E+02  0.10900406200E+02  0.19981965360E+03  0.20083649796E+03  0.00000000000E+00 0.  1.
         12    1    5    5    0    0 -0.74600100594E+00 -0.16593909552E+02  0.15428835913E+01  0.16682171367E+02  0.00000000000E+00 0. -1.
         13    1    3    3    0    0  0.78350618651E+01 -0.29997174374E+02 -0.69892231940E+02  0.76460072917E+02  0.00000000000E+00 0. -1.
        -14    1    3    3    0    0 -0.77343113681E+02 -0.85797736752E+02 -0.68201760675E+03  0.69173060130E+03  0.00000000000E+00 0.  1.
          5    1    4    4  501    0  0.29204656701E+02 -0.21880196311E+02 -0.12341825969E+02  0.38748522964E+02  0.41800000000E+01 0.  1.
         -5    1    4    4    0  501  0.24061574281E+02  0.14336861079E+03 -0.65322477851E+02  0.15943028705E+03  0.41800000000E+01 0.  1.
</event>
<event>
11    1  0.7882745E-009  0.1290288E+03  0.7561462E-02  0.1120468E+00
         22   -1    0    0    0    0  0.00000000000E+00  0.00000000000E+00  0.28188125759E+03  0.28188125759E+03  0.00000000000E+00 0.  1.
         22   -1    0    0    0    0 -0.00000000000E+00 -0.00000000000E+00 -0.13235556826E+04  0.13235556826E+04  0.00000000000E+00 0.  1.
        -24    2    1    2    0    0 -0.17926500837E+02  0.27839949055E+02 -0.11230443419E+04  0.11251453145E+04  0.60224269904E+02 0.  0.
         25    2    1    2    0    0 -0.23295464211E+01 -0.51673654200E+02 -0.16841500535E+03  0.21606966030E+03  0.12508753235E+03 0.  0.
         24    2    1    2    0    0  0.20256047258E+02  0.23833705145E+02  0.24978492218E+03  0.26422196545E+03  0.80264479836E+02 0.  0.
        -11    1    5    5    0    0  0.38690040160E+02  0.15060757385E+02  0.23591620586E+03  0.23954164942E+03  0.00000000000E+00 0.  1.
         12    1    5    5    0    0 -0.18433992901E+02  0.87729477601E+01  0.13868716325E+02  0.24680316027E+02  0.00000000000E+00 0. -1.
         11    1    3    3    0    0  0.26016770081E+01  0.16648150193E+02 -0.76239236612E+02  0.78079131830E+02  0.00000000000E+00 0. -1.
        -12    1    3    3    0    0 -0.20528177845E+02  0.11191798862E+02 -0.10468051053E+04  0.10470661826E+04  0.00000000000E+00 0.  1.
          5    1    4    4  501    0 -0.54164350571E+02 -0.33064786789E+02 -0.14041439042E+03  0.15414516027E+03  0.41800000000E+01 0.  1.
         -5    1    4    4    0  501  0.51834804150E+02 -0.18608867411E+02 -0.28000614934E+02  0.61924500032E+02  0.41800000000E+01 0.  1.
</event>
<event>
11    1  0.7882745E-009  0.2452819E+03  0.7561462E-02  0.1026443E+00
         22   -1    0    0    0    0  0.00000000000E+00  0.00000000000E+00  0.89050115062E+03  0.89050115062E+03  0.00000000000E+00 0.  1.
         22   -1    0    0    0    0 -0.00000000000E+00 -0.00000000000E+00 -0.21195504698E+04  0.21195504698E+04  0.00000000000E+00 0. -1.
         24    2    1    2    0    0 -0.16718345560E+03 -0.12797707582E+03 -0.17861247647E+04  0.18002283280E+04  0.79069071509E+02 0.  0.
         25    2    1    2    0    0  0.19770519281E+03  0.92814361476E+02 -0.27482805281E+03  0.37266712698E+03  0.12509388456E+03 0.  0.
        -24    2    1    2    0    0 -0.30521737209E+02  0.35162714339E+02  0.83190349838E+03  0.83715616541E+03  0.81234363123E+02 0.  0.
        -13    1    3    3    0    0 -0.35225683504E+02 -0.71960549162E+02 -0.54643668014E+03  0.55227910953E+03  0.00000000000E+00 0.  1.
         14    1    3    3    0    0 -0.13195777210E+03 -0.56016526653E+02 -0.12396880846E+04  0.12479492185E+04  0.00000000000E+00 0. -1.
         13    1    5    5    0    0 -0.35719959106E+02  0.45283001784E+02  0.32192130297E+03  0.32704707771E+03  0.00000000000E+00 0. -1.
        -14    1    5    5    0    0  0.51982218976E+01 -0.10120287444E+02  0.50998219541E+03  0.51010908771E+03  0.00000000000E+00 0.  1.
          5    1    4    4  501    0  0.34743753734E+00 -0.41948618026E+01 -0.75810465577E+02  0.76042203213E+02  0.41800000000E+01 0.  1.
         -5    1    4    4    0  501  0.19735775527E+03  0.97009223278E+02 -0.19901758724E+03  0.29662492376E+03  0.41800000000E+01 0.  1.
</event>
<event>
11    1  0.7882745E-009  0.1430352E+03  0.7561462E-02  0.1104216E+00
         22   -1    0    0    0    0  0.00000000000E+00  0.00000000000E+00  0.11377827605E+03  0.11377827605E+03  0.00000000000E+00 0. -1.
         22   -1    0    0    0    0 -0.00000000000E+00 -0.00000000000E+00 -0.10929985935E+04  0.10929985935E+04  0.00000000000E+00 0.  1.
        -24    2    1    2    0    0  0.57508081713E+02  0.38863285457E+02 -0.93892305488E+03  0.94497707377E+03  0.81164231941E+02 0.  0.
         25    2    1    2    0    0 -0.79577950628E+02 -0.34233552976E+01 -0.73844027718E+02  0.16566696511E+03  0.12509289872E+03 0.  0.
         24    2    1    2    0    0  0.22069868915E+02 -0.35439930160E+02  0.33546765181E+02  0.96132830647E+02  0.79831496983E+02 0.  0.
        -13    1    5    5    0    0  0.88498806102E+01 -0.57723286874E+02  0.66314266120E+01  0.58773072518E+02  0.00000000000E+00 0.  1.
         14    1    5    5    0    0  0.13219988305E+02  0.22283356714E+02  0.26915338569E+02  0.37359758129E+02  0.00000000000E+00 0. -1.
         13    1    3    3    0    0  0.10628505788E+02  0.52722774944E+02 -0.36023030264E+03  0.36422318305E+03  0.00000000000E+00 0. -1.
        -14    1    3    3    0    0  0.46879575925E+02 -0.13859489487E+02 -0.57869275224E+03  0.58075389072E+03  0.00000000000E+00 0.  1.
          5    1    4    4  501    0 -0.42790531325E+02  0.51235969201E+02 -0.36466002655E+00  0.66886168136E+02  0.41800000000E+01 0.  1.
         -5    1    4    4    0  501 -0.36787419303E+02 -0.54659324499E+02 -0.73479367691E+02  0.98780796970E+02  0.41800000000E+01 0.  1.
</event>
<event>
11    1  0.7882745E-009  0.1565273E+03  0.7561462E-02  0.1090390E+00
         22   -1    0    0    0    0  0.00000000000E+00  0.00000000000E+00  0.36940596302E+04  0.36940596302E+04  0.00000000000E+00 0.  1.
         22   -1    0    0    0    0 -0.00000000000E+00 -0.00000000000E+00 -0.71778701235E+02  0.71778701235E+02  0.00000000000E+00 0. -1.
         24    2    1    2    0    0  0.52749499130E+02  0.36126807092E+02 -0.99745398572E+01  0.10237222761E+03  0.79327962858E+02 0.  0.
         25    2    1    2    0    0 -0.14260433693E+03 -0.38476268111E+02  0.63632145692E+03  0.66510804259E+03  0.12508913488E+03 0.  0.
        -24    2    1    2    0    0  0.89854837802E+02  0.23494610194E+01  0.29959340119E+04  0.29983580612E+04  0.80318415352E+02 0.  0.
        -13    1    3    3    0    0  0.60716465616E+01  0.40157592672E+02  0.21476912912E+02  0.45942952990E+02  0.00000000000E+00 0.  1.
         14    1    3    3    0    0  0.46677852568E+02 -0.40307855799E+01 -0.31451452769E+02  0.56429274620E+02  0.00000000000E+00 0. -1.
         13    1    5    5    0    0 -0.11074842167E+02 -0.13264544342E+02  0.59903691739E+03  0.59928609917E+03  0.00000000000E+00 0. -1.
        -14    1    5    5    0    0  0.10092967997E+03  0.15614005362E+02  0.23968970945E+04  0.23990719621E+04  0.00000000000E+00 0.  1.
          5    1    4    4  501    0  0.16379294119E+02 -0.12375954149E+02  0.23657080724E+02  0.31600243438E+02  0.41800000000E+01 0.  1.
         -5    1    4    4    0  501 -0.15898363105E+03 -0.26100313962E+02  0.61266437620E+03  0.63350779916E+03  0.41800000000E+01 0.  1.
</event>
<event>
11    1  0.7882745E-009  0.1479446E+03  0.7561462E-02  0.1098998E+00
         22   -1    0    0    0    0  0.00000000000E+00  0.00000000000E+00  0.25638154991E+04  0.25638154991E+04  0.00000000000E+00 0.  1.
         22   -1    0    0    0    0 -0.00000000000E+00 -0.00000000000E+00 -0.16360240854E+03  0.16360240854E+03  0.00000000000E+00 0.  1.
         24    2    1    2    0    0  0.76254065639E+02  0.16119720402E+01 -0.11447257244E+03  0.15960157367E+03  0.80940790073E+02 0.  0.
         25    2    1    2    0    0 -0.11528235080E+03  0.40882575301E+02  0.27473009134E+03  0.32570779812E+03  0.12509013272E+03 0.  0.
        -24    2    1    2    0    0  0.39028285157E+02 -0.42494547341E+02  0.22399555716E+04  0.22421085358E+04  0.79503018046E+02 0.  0.
        -11    1    3    3    0    0  0.82519237633E+02  0.15335966276E+02 -0.11731691787E+03  0.14424935238E+03  0.00000000000E+00 0.  1.
         12    1    3    3    0    0 -0.62651719944E+01 -0.13723994235E+02  0.28443454320E+01  0.15352221299E+02  0.00000000000E+00 0. -1.
         13    1    5    5    0    0 -0.14532631293E+02  0.27234819128E+01  0.10874820312E+03  0.10974874217E+03  0.00000000000E+00 0. -1.
        -14    1    5    5    0    0  0.53560916451E+02 -0.45218029254E+02  0.21312073685E+04  0.21323597936E+04  0.00000000000E+00 0.  1.
          5    1    4    4  501    0 -0.87036875646E+02 -0.34914843693E+02  0.15253460978E+03  0.17910539806E+03  0.41800000000E+01 0. -1.
         -5    1    4    4    0  501 -0.28245475150E+02  0.75797418994E+02  0.12219548155E+03  0.14660240006E+03  0.41800000000E+01 0. -1.
</event>
<event>
11    1  0.7882745E-009  0.1834994E+03  0.7561462E-02  0.1066847E+00
         22   -1    0    0    0    0  0.00000000000E+00  0.00000000000E+00  0.20172621863E+04  0.20172621863E+04  0.00000000000E+00 0.  1.
         22   -1    0    0    0    0 -0.00000000000E+00 -0.00000000000E+00 -0.46874352723E+03  0.46874352723E+03  0.00000000000E+00 0. -1.
         24    2    1    2    0    0 -0.51090077821E+01 -0.13495145459E+03 -0.41772848065E+03  0.44646054273E+03  0.81190736018E+02 0.  0.
         25    2    1    2    0    0  0.51660234005E+02  0.11920449352E+03  0.19417260429E+03  0.26500836199E+03  0.12509172880E+03 0.  0.
        -24    2    1    2    0    0 -0.46551226223E+02  0.15746961075E+02  0.17720745354E+04  0.17745368088E+04  0.79484233075E+02 0.  0.
        -13    1    3    3    0    0  0.32127519490E+02 -0.34861644836E+02 -0.89270011266E+02  0.10107742924E+03  0.00000000000E+00 0.  1.
         14    1    3    3    0    0 -0.37236527273E+02 -0.10008980976E+03 -0.32845846938E+03  0.34538311350E+03  0.00000000000E+00 0. -1.
         11    1    5    5    0    0  0.22485126599E+02  0.16802267277E+01  0.35960696055E+03  0.36031315568E+03  0.00000000000E+00 0. -1.
        -12    1    5    5    0    0 -0.69036352821E+02  0.14066734347E+02  0.14124675749E+04  0.14142236531E+04  0.00000000000E+00 0.  1.
          5    1    4    4  501    0  0.22187263365E+02  0.21215268958E+01 -0.12293917348E+02  0.25795122326E+02  0.41800000000E+01 0. -1.
         -5    1    4    4    0  501  0.29472970639E+02  0.11708296662E+03  0.20646652164E+03  0.23921323966E+03  0.41800000000E+01 0. -1.
</event>
<event>
11    1  0.7882745E-009  0.1584227E+03  0.7561462E-02  0.1088570E+00
         22   -1    0    0    0    0  0.00000000000E+00  0.00000000000E+00  0.36488657629E+03  0.36488657629E+03  0.00000000000E+00 0.  1.
         22   -1    0    0    0    0 -0.00000000000E+00 -0.00000000000E+00 -0.56252233287E+03  0.56252233287E+03  0.00000000000E+00 0.  1.
        -24    2    1    2    0    0  0.65218064176E+02 -0.57708751760E+02 -0.46746530487E+03  0.48222305052E+03  0.80197027847E+02 0.  0.
         25    2    1    2    0    0  0.34954599313E+02  0.67600750641E+01 -0.12918531270E+02  0.13070012556E+03  0.12509241282E+03 0.  0.
         24    2    1    2    0    0 -0.10017266349E+03  0.50948676696E+02  0.28274807956E+03  0.31448573307E+03  0.79526534207E+02 0.  0.
        -11    1    5    5    0    0 -0.28664960191E+02  0.57472978641E+02  0.15789564675E+03  0.17045779091E+03  0.00000000000E+00 0.  1.
         12    1    5    5    0    0 -0.71507703299E+02 -0.65243019444E+01  0.12485243280E+03  0.14402794216E+03  0.00000000000E+00 0. -1.
         11    1    3    3    0    0  0.46396139263E+02 -0.90967862378E+01 -0.94865745972E+02  0.10599463674E+03  0.00000000000E+00 0. -1.
        -12    1    3    3    0    0  0.18821924913E+02 -0.48611965523E+02 -0.37259955890E+03  0.37622841379E+03  0.00000000000E+00 0.  1.
          5    1    4    4  501    0 -0.31786872621E+02 -0.15401593888E+02 -0.41515587813E+02  0.54668371082E+02  0.41800000000E+01 0.  1.
         -5    1    4    4    0  501  0.66741471935E+02  0.22161668952E+02  0.28597056542E+02  0.76031754482E+02  0.41800000000E+01 0.  1.
</event>
<event>
11    1  0.7882745E-009  0.1436637E+03  0.7561462E-02  0.1103535E+00
         22   -1    0    0    0    0  0.00000000000E+00  0.00000000000E+00  0.15217776925E+04  0.15217776925E+04  0.00000000000E+00 0. -1.
         22   -1    0    0    0    0 -0.00000000000E+00 -0.00000000000E+00 -0.23685249177E+03  0.23685249177E+03  0.00000000000E+00 0. -1.
        -24    2    1    2    0    0  0.46446749855E+02  0.32508672295E+02 -0.19331904250E+03  0.21727895848E+03  0.81386603683E+02 0.  0.
         25    2    1    2    0    0  0.25325540754E+02 -0.12832913842E+02  0.11098177767E+03  0.16961899727E+03  0.12509029766E+03 0.  0.
         24    2    1    2    0    0 -0.71772290609E+02 -0.19675758453E+02  0.13672624656E+04  0.13717322285E+04  0.81879544807E+02 0.  0.
        -13    1    5    5    0    0  0.62961808387E+01  0.49253985484E+01  0.61113193625E+03  0.61118421523E+03  0.00000000000E+00 0.  1.
         14    1    5    5    0    0 -0.78068471447E+02 -0.24601157001E+02  0.75613052934E+03  0.76054801331E+03  0.00000000000E+00 0. -1.
         11    1    3    3    0    0  0.25347408622E+02 -0.24386854503E+02 -0.99612697258E+02  0.10564042432E+03  0.00000000000E+00 0. -1.
        -12    1    3    3    0    0  0.21099341233E+02  0.56895526798E+02 -0.93706345241E+02  0.11163853416E+03  0.00000000000E+00 0.  1.
          5    1    4    4  501    0  0.64102387582E+02  0.27017223370E+02  0.43792861170E+02  0.82306339621E+02  0.41800000000E+01 0.  1.
         -5    1    4    4    0  501 -0.38776846829E+02 -0.39850137212E+02  0.67188916495E+02  0.87312657648E+02  0.41800000000E+01 0.  1.
</event>
<event>
11    1  0.7882745E-009  0.1295749E+03  0.7561462E-02  0.1119792E+00
         22   -1    0    0    0    0  0.00000000000E+00  0.00000000000E+00  0.19648612523E+03  0.19648612523E+03  0.00000000000E+00 0. -1.
         22   -1    0    0    0    0 -0.00000000000E+00 -0.00000000000E+00 -0.49078182123E+03  0.49078182123E+03  0.00000000000E+00 0.  1.
         24    2    1    2    0    0  0.14232388444E+01  0.19187345627E+02 -0.40392225314E+03  0.41193302356E+03  0.78520376210E+02 0.  0.
         25    2    1    2    0    0 -0.23747083046E+02 -0.40896592634E+02 -0.22825699744E+01  0.13375062561E+03  0.12509022537E+03 0.  0.
        -24    2    1    2    0    0  0.22323844202E+02  0.21709247007E+02  0.11190912711E+03  0.14158429729E+03  0.80949460048E+02 0.  0.
        -13    1    3    3    0    0 -0.20623696655E+02  0.21218948048E+02 -0.37147551252E+03  0.37265216626E+03  0.00000000000E+00 0.  1.
         14    1    3    3    0    0  0.22046935499E+02 -0.20316024210E+01 -0.32446740619E+02  0.39280857299E+02  0.00000000000E+00 0. -1.
         11    1    5    5    0    0 -0.77686298851E+01  0.28040127488E+02  0.10644668461E+03  0.11035169698E+03  0.00000000000E+00 0. -1.
        -12    1    5    5    0    0  0.30092474087E+02 -0.63308804813E+01  0.54624424989E+01  0.31232600314E+02  0.00000000000E+00 0.  1.
          5    1    4    4  501    0 -0.33561583927E+02 -0.48911512397E+02 -0.54008638503E+02  0.80331322618E+02  0.41800000000E+01 0.  1.
         -5    1    4    4    0  501  0.98145008805E+01  0.80149197624E+01  0.51726068528E+02  0.53419302988E+02  0.41800000000E+01 0.  1.
</event>
<event>
11    1  0.7882745E-009  0.2196039E+03  0.7561462E-02  0.1041466E+00
         22   -1    0    0    0    0  0.00000000000E+00  0.00000000000E+00  0.37001005104E+04  0.37001005104E+04  0.00000000000E+00 0. -1.
         22   -1    0    0    0    0 -0.00000000000E+00 -0.00000000000E+00 -0.60182835303E+03  0.60182835303E+03  0.00000000000E+00 0. -1.
         24    2    1    2    0    0  0.16612806139E+03  0.10153100183E+03 -0.56849853221E+03  0.60639731265E+03  0.81363643914E+02 0.  0.
         25    2    1    2    0    0  0.38610216569E+02 -0.18203945795E+03  0.16236780656E+04  0.16390872253E+04  0.12508940145E+03 0.  0.
        -24    2    1    2    0    0 -0.20473827796E+03  0.80508456119E+02  0.20430926240E+04  0.20564443255E+04  0.79601631360E+02 0.  0.
        -11    1    3    3    0    0  0.25646652249E+02 -0.13845612925E+02 -0.84523763839E+02  0.89407597117E+02  0.00000000000E+00 0.  1.
         12    1    3    3    0    0  0.14048140914E+03  0.11537661476E+03 -0.48397476837E+03  0.51698971553E+03  0.00000000000E+00 0. -1.
         13    1    5    5    0    0 -0.14744016798E+03  0.72324100663E+02  0.11745329273E+04  0.11859582523E+04  0.00000000000E+00 0. -1.
        -14    1    5    5    0    0 -0.57298109975E+02  0.81843554555E+01  0.86855969666E+03  0.87048607327E+03  0.00000000000E+00 0.  1.
          5    1    4    4  501    0  0.60687058667E+02 -0.10630871539E+03  0.60047413086E+03  0.61283857278E+03  0.41800000000E+01 0. -1.
         -5    1    4    4    0  501 -0.22076842098E+02 -0.75730742563E+02  0.10232039347E+04  0.10262486525E+04  0.41800000000E+01 0. -1.
</event>
<event>
11    1  0.7882745E-009  0.1987903E+03  0.7561462E-02  0.1055382E+00
         22   -1    0    0    0    0  0.00000000000E+00  0.00000000000E+00  0.48772524621E+03  0.48772524621E+03  0.00000000000E+00 0. -1.
         22   -1    0    0    0    0 -0.00000000000E+00 -0.00000000000E+00 -0.33595997367E+04  0.33595997367E+04  0.00000000000E+00 0.  1.
        -24    2    1    2    0    0  0.35026069705E+02  0.62343735615E+02 -0.31454796174E+04  0.31472602484E+04  0.78047940062E+02 0.  0.
         25    2    1    2    0    0 -0.85475389065E+02 -0.20219004512E+03 -0.11402527936E+03  0.27719341029E+03  0.12509023099E+03 0.  0.
         24    2    1    2    0    0  0.50449319360E+02  0.13984630951E+03  0.38763040627E+03  0.42287132419E+03  0.80378484984E+02 0.  0.
        -11    1    5    5    0    0 -0.13788207395E+02 -0.13590004693E+01  0.30029842735E+02  0.33071936746E+02  0.00000000000E+00 0.  1.
         12    1    5    5    0    0  0.64237526755E+02  0.14120530998E+03  0.35760056354E+03  0.38979938744E+03  0.00000000000E+00 0. -1.
         11    1    3    3    0    0 -0.10793276393E+02  0.35343976016E+02 -0.21827406159E+04  0.21830534322E+04  0.00000000000E+00 0. -1.
        -12    1    3    3    0    0  0.45819346098E+02  0.26999759599E+02 -0.96273900151E+03  0.96420681626E+03  0.00000000000E+00 0.  1.
          5    1    4    4  501    0 -0.10565655272E+03 -0.13711924139E+03 -0.11682528064E+03  0.20887941998E+03  0.41800000000E+01 0.  1.
         -5    1    4    4    0  501  0.20181163658E+02 -0.65070803732E+02  0.28000012791E+01  0.68313990310E+02  0.41800000000E+01 0.  1.
</event>
<event>
11    1  0.7882745E-009  0.1715748E+03  0.7561462E-02  0.1076669E+00
         22   -1    0    0    0    0  0.00000000000E+00  0.00000000000E+00  0.19071741983E+04  0.19071741983E+04  0.00000000000E+00 0.  1.
         22   -1    0    0    0    0 -0.00000000000E+00 -0.00000000000E+00 -0.11959049332E+03  0.11959049332E+03  0.00000000000E+00 0. -1.
         24    2    1    2    0    0 -0.93884778764E+02 -0.63892687412E+02 -0.54177375791E+02  0.14859022759E+03  0.79039486954E+02 0.  0.
         25    2    1    2    0    0  0.14162135256E+03  0.11616002022E+03  0.77756323821E+03  0.80857964557E+03  0.12508675397E+03 0.  0.
        -24    2    1    2    0    0 -0.47736573800E+02 -0.52267332809E+02  0.10641978425E+04  0.10695948184E+04  0.80655892601E+02 0.  0.
        -13    1    3    3    0    0 -0.34471761493E+02 -0.55551879610E+02  0.33588519285E+01  0.65464460243E+02  0.00000000000E+00 0.  1.
         14    1    3    3    0    0 -0.59413017271E+02 -0.83408078022E+01 -0.57536227719E+02  0.83125767342E+02  0.00000000000E+00 0. -1.
         13    1    5    5    0    0  0.11282848045E+02 -0.49739744332E+01  0.27452963921E+02  0.30094988116E+02  0.00000000000E+00 0. -1.
        -14    1    5    5    0    0 -0.59019421845E+02 -0.47293358376E+02  0.10367448786E+04  0.10394998303E+04  0.00000000000E+00 0.  1.
          5    1    4    4  501    0  0.73541322421E+02  0.25778933203E+02  0.53769713229E+03  0.54333098382E+03  0.41800000000E+01 0. -1.
         -5    1    4    4    0  501  0.68080030143E+02  0.90381087018E+02  0.23986610592E+03  0.26524866176E+03  0.41800000000E+01 0. -1.
</event>
<event>
11    1  0.7882745E-009  0.1306236E+03  0.7561462E-02  0.1118505E+00
         22   -1    0    0    0    0  0.00000000000E+00  0.00000000000E+00  0.22278874522E+03  0.22278874522E+03  0.00000000000E+00 0.  1.
         22   -1    0    0    0    0 -0.00000000000E+00 -0.00000000000E+00 -0.27798673662E+04  0.27798673662E+04  0.00000000000E+00 0. -1.
         24    2    1    2    0    0 -0.19546603882E+02  0.29144288924E+01 -0.22296573868E+04  0.22313495883E+04  0.84607087419E+02 0.  0.
         25    2    1    2    0    0 -0.89258143848E+01 -0.27831307042E+02 -0.53241270254E+03  0.54769045988E+03  0.12508917699E+03 0.  0.
        -24    2    1    2    0    0  0.28472418267E+02  0.24916878150E+02  0.20499146837E+03  0.22361606319E+03  0.80938941156E+02 0.  0.
        -11    1    3    3    0    0 -0.33928039670E+01 -0.41389134726E+01 -0.80164859760E+01  0.96387639714E+01  0.00000000000E+00 0.  1.
         12    1    3    3    0    0 -0.16153799915E+02  0.70533423650E+01 -0.22216409008E+04  0.22217108244E+04  0.00000000000E+00 0. -1.
         13    1    5    5    0    0  0.42674130455E+02  0.42797848365E+02  0.10594645331E+03  0.12197289947E+03  0.00000000000E+00 0. -1.
        -14    1    5    5    0    0 -0.14201712189E+02 -0.17880970215E+02  0.99045015056E+02  0.10164316373E+03  0.00000000000E+00 0.  1.
          5    1    4    4  501    0 -0.13429097586E+02  0.27346193520E+02 -0.32642400064E+02  0.44845887704E+02  0.41800000000E+01 0. -1.
         -5    1    4    4    0  501  0.45032832010E+01 -0.55177500562E+02 -0.49977030248E+03  0.50284457217E+03  0.41800000000E+01 0. -1.
</event>
<event>
11    1  0.7882745E-009  0.1650541E+03  0.7561462E-02  0.1082418E+00
         22   -1    0    0    0    0  0.00000000000E+00  0.00000000000E+00  0.37324838520E+03  0.37324838520E+03  0.00000000000E+00 0. -1.
         22   -1    0    0    0    0 -0.00000000000E+00 -0.00000000000E+00 -0.11177853880E+04  0.11177853880E+04  0.00000000000E+00 0.  1.
         24    2    1    2    0    0  0.30841135467E+01  0.78785277808E+01 -0.93746854033E+03  0.94049592776E+03  0.74924916260E+02 0.  0.
         25    2    1    2    0    0  0.67569440157E+02  0.74179681962E+02 -0.12642360587E+03  0.20420229328E+03  0.12508954393E+03 0.  0.
        -24    2    1    2    0    0 -0.70653553704E+02 -0.82058209742E+02  0.31935514343E+03  0.34633555213E+03  0.78962855795E+02 0.  0.
        -11    1    3    3    0    0 -0.35045963602E+02 -0.18502397171E+00 -0.53424543050E+03  0.53539371850E+03  0.00000000000E+00 0.  1.
         12    1    3    3    0    0  0.38130077149E+02  0.80635517526E+01 -0.40322310983E+03  0.40510220926E+03  0.00000000000E+00 0. -1.
         11    1    5    5    0    0  0.59889803694E+01 -0.78778775458E+01  0.11853226574E+03  0.11894463780E+03  0.00000000000E+00 0. -1.
        -12    1    5    5    0    0 -0.76642534074E+02 -0.74180332197E+02  0.20082287769E+03  0.22739091433E+03  0.00000000000E+00 0.  1.
          5    1    4    4  501    0  0.63162517790E+02  0.75476057361E+02 -0.15020401821E+03  0.17962421433E+03  0.41800000000E+01 0. -1.
         -5    1    4    4    0  501  0.44069223674E+01 -0.12963753993E+01  0.23780412337E+02  0.24578078949E+02  0.41800000000E+01 0. -1.
</event>
<event>
11    1  0.7882745E-009  0.1331051E+03  0.7561462E-02  0.1115512E+00
         22   -1    0    0    0    0  0.00000000000E+00  0.00000000000E+00  0.35750698493E+03  0.35750698493E+03  0.00000000000E+00 0.  1.
         22   -1    0    0    0    0 -0.00000000000E+00 -0.00000000000E+00 -0.27485301318E+04  0.27485301318E+04  0.00000000000E+00 0.  1.
         24    2    1    2    0    0 -0.43345707404E+02 -0.18884946452E+02 -0.23167029664E+04  0.23185273124E+04  0.78871872440E+02 0.  0.
         25    2    1    2    0    0 -0.21508439179E+01  0.26099778223E+02 -0.41506091851E+03  0.43429143775E+03  0.12509061625E+03 0.  0.
        -24    2    1    2    0    0  0.45496551322E+02 -0.72148317707E+01  0.34074073806E+03  0.35321836657E+03  0.80851554892E+02 0.  0.
        -11    1    3    3    0    0  0.11783611459E+02 -0.28477769164E+02 -0.12285408259E+04  0.12289273363E+04  0.00000000000E+00 0.  1.
         12    1    3    3    0    0 -0.55129318863E+02  0.95928227120E+01 -0.10881621404E+04  0.10895999761E+04  0.00000000000E+00 0. -1.
         11    1    5    5    0    0  0.61759363112E+02  0.10066141552E+02  0.17632603219E+03  0.18710001541E+03  0.00000000000E+00 0. -1.
        -12    1    5    5    0    0 -0.16262811790E+02 -0.17280973322E+02  0.16441470587E+03  0.16611835116E+03  0.00000000000E+00 0.  1.
          5    1    4    4  501    0  0.48509538372E+02  0.14233971408E+02 -0.76891581997E+02  0.92117148442E+02  0.41800000000E+01 0.  1.
         -5    1    4    4    0  501 -0.50660382290E+02  0.11865806815E+02 -0.33816933651E+03  0.34217428931E+03  0.41800000000E+01 0.  1.
</event>
<event>
11    1  0.7882745E-009  0.2669208E+03  0.7561462E-02  0.1015252E+00
         22   -1    0    0    0    0  0.00000000000E+00  0.00000000000E+00  0.68623569845E+03  0.68623569845E+03  0.00000000000E+00 0.  1.
         22   -1    0    0    0    0 -0.00000000000E+00 -0.00000000000E+00 -0.41782505566E+03  0.41782505566E+03  0.00000000000E+00 0.  1.
         24    2    1    2    0    0  0.54905436956E+02 -0.19947386256E+03 -0.16938666615E+03  0.27869993417E+03  0.78596321705E+02 0.  0.
         25    2    1    2    0    0 -0.10148980186E+03  0.30604096241E+03 -0.19799683783E+02  0.34641187317E+03  0.12509159779E+03 0.  0.
        -24    2    1    2    0    0  0.46584364906E+02 -0.10656709985E+03  0.45759699272E+03  0.47894894677E+03  0.80439020651E+02 0.  0.
        -11    1    3    3    0    0  0.60561485256E+02 -0.91280455506E+02 -0.10959679029E+03  0.15495570817E+03  0.00000000000E+00 0.  1.
         12    1    3    3    0    0 -0.56560483000E+01 -0.10819340706E+03 -0.59789875864E+02  0.12374422600E+03  0.00000000000E+00 0. -1.
         11    1    5    5    0    0 -0.15852172649E+02 -0.61284277245E+02  0.17855837110E+03  0.18944694747E+03  0.00000000000E+00 0. -1.
        -12    1    5    5    0    0  0.62436537555E+02 -0.45282822601E+02  0.27903862162E+03  0.28950199930E+03  0.00000000000E+00 0.  1.
          5    1    4    4  501    0 -0.89165414192E+02  0.22217854559E+03  0.39778035055E+02  0.24272111915E+03  0.41800000000E+01 0. -1.
         -5    1    4    4    0  501 -0.12324387670E+02  0.83862416820E+02 -0.59577718838E+02  0.10369075402E+03  0.41800000000E+01 0. -1.
</event>
<event>
11    1  0.7882745E-009  0.3357396E+03  0.7561462E-02  0.9861059E-01
         22   -1    0    0    0    0  0.00000000000E+00  0.00000000000E+00  0.29845675133E+03  0.29845675133E+03  0.00000000000E+00 0. -1.
         22   -1    0    0    0    0 -0.00000000000E+00 -0.00000000000E+00 -0.13575929086E+04  0.13575929086E+04  0.00000000000E+00 0. -1.
        -24    2    1    2    0    0 -0.18735513443E+03  0.23498154441E+03 -0.88033438221E+03  0.93361052922E+03  0.79509264686E+02 0.  0.
         25    2    1    2    0    0  0.20190480146E+03 -0.27759360586E+03 -0.36374525870E+03  0.51553979786E+03  0.12508761364E+03 0.  0.
         24    2    1    2    0    0 -0.14549667031E+02  0.42612061445E+02  0.18494348368E+03  0.20689933280E+03  0.81091067126E+02 0.  0.
        -13    1    5    5    0    0 -0.13360294821E+02 -0.95031835243E+01  0.18145165812E+01  0.16495467415E+02  0.00000000000E+00 0.  1.
         14    1    5    5    0    0 -0.11893722102E+01  0.52115244969E+02  0.18312896710E+03  0.19040386539E+03  0.00000000000E+00 0. -1.
         13    1    3    3    0    0 -0.29116543775E+02  0.80026395505E+02 -0.31882072665E+03  0.32999795885E+03  0.00000000000E+00 0. -1.
        -14    1    3    3    0    0 -0.15823859065E+03  0.15495514891E+03 -0.56151365555E+03  0.60361257038E+03  0.00000000000E+00 0.  1.
          5    1    4    4  501    0  0.15015356545E+03 -0.20278566257E+03 -0.17845206643E+03  0.30908045971E+03  0.41800000000E+01 0.  1.
         -5    1    4    4    0  501  0.51751236004E+02 -0.74807943285E+02 -0.18529319227E+03  0.20645933815E+03  0.41800000000E+01 0.  1.
</event>
<event>
11    1  0.7882745E-009  0.1738025E+03  0.7561462E-02  0.1074769E+00
         22   -1    0    0    0    0  0.00000000000E+00  0.00000000000E+00  0.19256225002E+03  0.19256225002E+03  0.00000000000E+00 0. -1.
         22   -1    0    0    0    0 -0.00000000000E+00 -0.00000000000E+00 -0.17647190148E+04  0.17647190148E+04  0.00000000000E+00 0. -1.
         24    2    1    2    0    0 -0.51999419464E+02  0.10616376099E+03 -0.12825191440E+04  0.12904498830E+04  0.80192655791E+02 0.  0.
         25    2    1    2    0    0  0.14724940009E+02 -0.13822464821E+03 -0.44659323458E+03  0.48416605168E+03  0.12509344984E+03 0.  0.
        -24    2    1    2    0    0  0.37274479455E+02  0.32060887222E+02  0.15695561378E+03  0.18266533015E+03  0.79462386276E+02 0.  0.
        -11    1    3    3    0    0 -0.37589882507E+02  0.25256376858E+02 -0.21210655524E+03  0.21688723940E+03  0.00000000000E+00 0.  1.
         12    1    3    3    0    0 -0.14409536957E+02  0.80907384131E+02 -0.10704125888E+04  0.10735626436E+04  0.00000000000E+00 0. -1.
         11    1    5    5    0    0  0.68259445587E+01  0.79615858450E+01  0.13983395844E+03  0.14022666045E+03  0.00000000000E+00 0. -1.
        -12    1    5    5    0    0  0.30448534896E+02  0.24099301377E+02  0.17121655344E+02  0.42438669700E+02  0.00000000000E+00 0.  1.
          5    1    4    4  501    0 -0.27295177800E+02 -0.45847881306E+02 -0.30643420579E+03  0.31107306189E+03  0.41800000000E+01 0.  1.
         -5    1    4    4    0  501  0.42020117809E+02 -0.92376766906E+02 -0.14015902879E+03  0.17309298979E+03  0.41800000000E+01 0.  1.
</event>
<event>
11    1  0.7882745E-009  0.1557556E+03  0.7561462E-02  0.1091139E+00
         22   -1    0    0    0    0  0.00000000000E+00  0.00000000000E+00  0.16316436064E+03  0.16316436064E+03  0.00000000000E+00 0. -1.
         22   -1    0    0    0    0 -0.00000000000E+00 -0.00000000000E+00 -0.10013120145E+04  0.10013120145E+04  0.00000000000E+00 0.  1.
         24    2    1    2    0    0  0.20639683400E+02 -0.19644343072E+02 -0.41327099949E+03  0.42191158870E+03  0.80028575623E+02 0.  0.
         25    2    1    2    0    0 -0.88408879424E+02  0.81187441599E+02 -0.54453909262E+03  0.57147055878E+03  0.12509294754E+03 0.  0.
        -24    2    1    2    0    0  0.67769196023E+02 -0.61543098527E+02  0.11966243824E+03  0.17109422766E+03  0.81079705891E+02 0.  0.
        -13    1    3    3    0    0  0.35521935308E+02 -0.25395780260E+02 -0.39599471249E+03  0.39839498724E+03  0.00000000000E+00 0.  1.
         14    1    3    3    0    0 -0.14882251908E+02  0.57514371885E+01 -0.17276287003E+02  0.23516601459E+02  0.00000000000E+00 0. -1.
         13    1    5    5    0    0  0.46496026298E+02 -0.14840665625E+02  0.10792764441E+03  0.11845042104E+03  0.00000000000E+00 0. -1.
        -14    1    5    5    0    0  0.21273169725E+02 -0.46702432903E+02  0.11734793836E+02  0.52643806621E+02  0.00000000000E+00 0.  1.
          5    1    4    4  501    0 -0.58949748783E+02 -0.22202868539E+02 -0.25161017251E+03  0.25940931279E+03  0.41800000000E+01 0.  1.
         -5    1    4    4    0  501 -0.29459130641E+02  0.10339031014E+03 -0.29292892012E+03  0.31206124599E+03  0.41800000000E+01 0.  1.
</event>
<event>
11    1  0.7882745E-009  0.1334019E+03  0.7561462E-02  0.1115158E+00
         22   -1    0    0    0    0  0.00000000000E+00  0.00000000000E+00  0.27766568528E+04  0.27766568528E+04  0.00000000000E+00 0. -1.
         22   -1    0    0    0    0 -0.00000000000E+00 -0.00000000000E+00 -0.31181916061E+02  0.31181916061E+02  0.00000000000E+00 0. -1.
         24    2    1    2    0    0 -0.45481773939E+02 -0.17671856191E+02  0.70495411900E+02  0.11696532007E+03  0.79563790378E+02 0.  0.
         25    2    1    2    0    0  0.14106771649E+02  0.41705848714E+02  0.62630092801E+03  0.64018661503E+03  0.12509065038E+03 0.  0.
        -24    2    1    2    0    0  0.31375002291E+02 -0.24033992523E+02  0.20486785969E+04  0.20506868338E+04  0.81672966643E+02 0.  0.
        -11    1    3    3    0    0 -0.54160783540E+02 -0.17414006950E+02  0.83674349829E+02  0.10118317514E+03  0.00000000000E+00 0.  1.
         12    1    3    3    0    0  0.86790096004E+01 -0.25784924095E+00 -0.13178937929E+02  0.15782144937E+02  0.00000000000E+00 0. -1.
         13    1    5    5    0    0  0.27052888189E+02  0.18731178696E+02  0.14877335839E+04  0.14880974203E+04  0.00000000000E+00 0. -1.
        -14    1    5    5    0    0  0.43221141015E+01 -0.42765171219E+02  0.56094501299E+03  0.56258941346E+03  0.00000000000E+00 0.  1.
          5    1    4    4  501    0 -0.61906003367E+01  0.45032650946E+02  0.70490471031E+02  0.83980010061E+02  0.41800000000E+01 0.  1.
         -5    1    4    4    0  501  0.20297371985E+02 -0.33268022312E+01  0.55581045698E+03  0.55620660497E+03  0.41800000000E+01 0.  1.
</event>
<event>
11    1  0.7882745E-009  0.1916763E+03  0.7561462E-02  0.1060571E+00
         22   -1    0    0    0    0  0.00000000000E+00  0.00000000000E+00  0.16798244510E+04  0.16798244510E+04  0.00000000000E+00 0.  1.
         22   -1    0    0    0    0 -0.00000000000E+00 -0.00000000000E+00 -0.12168022654E+03  0.12168022654E+03  0.00000000000E+00 0. -1.
        -24    2    1    2    0    0 -0.69489092210E+02 -0.33617394924E+01 -0.68741244907E+02  0.12692728817E+03  0.80902054993E+02 0.  0.
         25    2    1    2    0    0 -0.68828011902E+00 -0.13347042536E+03  0.46544555247E+03  0.50010195258E+03  0.12509025738E+03 0.  0.
         24    2    1    2    0    0  0.70177372329E+02  0.13683216486E+03  0.11614399169E+04  0.11744754368E+04  0.82474032970E+02 0.  0.
        -13    1    5    5    0    0  0.56590577354E+02  0.28385998238E+02  0.34611303417E+03  0.35185578120E+03  0.00000000000E+00 0.  1.
         14    1    5    5    0    0  0.13586794976E+02  0.10844616662E+03  0.81532688274E+03  0.82261965560E+03  0.00000000000E+00 0. -1.
         11    1    3    3    0    0 -0.62745511977E+02 -0.54465956773E+01 -0.86969851577E+02  0.10737979214E+03  0.00000000000E+00 0. -1.
        -12    1    3    3    0    0 -0.67435802333E+01  0.20848561849E+01  0.18228606671E+02  0.19547496024E+02  0.00000000000E+00 0.  1.
          5    1    4    4  501    0  0.54556898353E+02 -0.25426996302E+02  0.12888384899E+03  0.14230778696E+03  0.41800000000E+01 0.  1.
         -5    1    4    4    0  501 -0.55245178472E+02 -0.10804342906E+03  0.33656170347E+03  0.35779416562E+03  0.41800000000E+01 0.  1.
</event>
<event>
11    1  0.7882745E-009  0.2216841E+03  0.7561462E-02  0.1040168E+00
         22   -1    0    0    0    0  0.00000000000E+00  0.00000000000E+00  0.14005934538E+03  0.14005934538E+03  0.00000000000E+00 0.  1.
         22   -1    0    0    0    0 -0.00000000000E+00 -0.00000000000E+00 -0.10223665638E+04  0.10223665638E+04  0.00000000000E+00 0. -1.
         24    2    1    2    0    0 -0.49154397670E+02  0.19768156547E+03 -0.48740279381E+03  0.53491055461E+03  0.84105064574E+02 0.  0.
         25    2    1    2    0    0 -0.12502989353E+03 -0.15803224625E+03 -0.35536339559E+03  0.42724489311E+03  0.12509352754E+03 0.  0.
        -24    2    1    2    0    0  0.17418429120E+03 -0.39649319213E+02 -0.39541028989E+02  0.20027046142E+03  0.81440339672E+02 0.  0.
        -11    1    3    3    0    0 -0.35701837775E+01  0.11559057060E+03 -0.18413327328E+03  0.21743732098E+03  0.00000000000E+00 0.  1.
         12    1    3    3    0    0 -0.45584213892E+02  0.82090994865E+02 -0.30326952053E+03  0.31747323363E+03  0.00000000000E+00 0. -1.
         13    1    5    5    0    0  0.10713408591E+02  0.18682994118E+02  0.25098168763E+01  0.21682494635E+02  0.00000000000E+00 0. -1.
        -14    1    5    5    0    0  0.16347088261E+03 -0.58332313331E+02 -0.42050845865E+02  0.17858796678E+03  0.00000000000E+00 0.  1.
          5    1    4    4  501    0 -0.45148996644E+02 -0.66704018383E+01 -0.16489398006E+03  0.17114445132E+03  0.41800000000E+01 0.  1.
         -5    1    4    4    0  501 -0.79880896890E+02 -0.15136184441E+03 -0.19046941553E+03  0.25610044179E+03  0.41800000000E+01 0.  1.
</event>
<event>
11    1  0.7882745E-009  0.1986960E+03  0.7561462E-02  0.1055450E+00
         22   -1    0    0    0    0  0.00000000000E+00  0.00000000000E+00  0.95719921428E+03  0.95719921428E+03  0.00000000000E+00 0.  1.
         22   -1    0    0    0    0 -0.00000000000E+00 -0.00000000000E+00 -0.21748637279E+03  0.21748637279E+03  0.00000000000E+00 0.  1.
         24    2    1    2    0    0 -0.45319015719E+02  0.12554846697E+03 -0.13243346834E+02  0.15732452164E+03  0.82215498096E+02 0.  0.
         25    2    1    2    0    0 -0.57795032874E+02 -0.20202084084E+03 -0.50656505306E+01  0.24457099880E+03  0.12504649806E+03 0.  0.
        -24    2    1    2    0    0  0.10311404859E+03  0.76472373868E+02  0.75802183885E+03  0.77279006663E+03  0.78274184267E+02 0.  0.
        -13    1    3    3    0    0 -0.17427545386E+02  0.12080902853E+03 -0.28269452912E+02  0.12529047322E+03  0.00000000000E+00 0.  1.
         14    1    3    3    0    0 -0.27891470333E+02  0.47394384492E+01  0.15026106078E+02  0.32034048417E+02  0.00000000000E+00 0. -1.
         11    1    5    5    0    0 -0.62531279194E+01  0.22582609412E+02  0.21367894039E+03  0.21495991585E+03  0.00000000000E+00 0. -1.
        -12    1    5    5    0    0  0.10936717651E+03  0.53889764456E+02  0.54434289847E+03  0.55783015078E+03  0.00000000000E+00 0.  1.
          5    1    4    4  501    0 -0.97001523187E+02 -0.13208293729E+03  0.23216504101E+01  0.16394529662E+03  0.41800000000E+01 0.  1.
         -5    1    4    4    0  501  0.39206490313E+02 -0.69937903556E+02 -0.73873009406E+01  0.80625702178E+02  0.41800000000E+01 0.  1.
</event>
<event>
11    1  0.7882745E-009  0.1668629E+03  0.7561462E-02  0.1080794E+00
         22   -1    0    0    0    0  0.00000000000E+00  0.00000000000E+00  0.59027940134E+03  0.59027940134E+03  0.00000000000E+00 0.  1.
         22   -1    0    0    0    0 -0.00000000000E+00 -0.00000000000E+00 -0.40431186630E+03  0.40431186630E+03  0.00000000000E+00 0.  1.
        -24    2    1    2    0    0 -0.66028576343E+02 -0.44238679672E+02 -0.14112074526E+03  0.18249707963E+03  0.84102827878E+02 0.  0.
         25    2    1    2    0    0 -0.28709709885E+02  0.10320867780E+03 -0.20459251277E+03  0.26264708819E+03  0.12509643496E+03 0.  0.
         24    2    1    2    0    0  0.94738286227E+02 -0.58969998127E+02  0.53168079307E+03  0.54944709981E+03  0.82187871500E+02 0.  0.
        -11    1    5    5    0    0  0.89333024372E+02 -0.29679926769E+02  0.48516341674E+03  0.49421131942E+03  0.00000000000E+00 0.  1.
         12    1    5    5    0    0  0.54052618556E+01 -0.29290071357E+02  0.46517376328E+02  0.55235780399E+02  0.00000000000E+00 0. -1.
         13    1    3    3    0    0 -0.13919407260E+02 -0.19283471566E+02  0.59237756711E+01  0.24509045113E+02  0.00000000000E+00 0. -1.
        -14    1    3    3    0    0 -0.52109169082E+02 -0.24955208106E+02 -0.14704452093E+03  0.15798803452E+03  0.00000000000E+00 0.  1.
          5    1    4    4  501    0 -0.13505060065E+02  0.35826730149E+02  0.77721492203E+01  0.39291474190E+02  0.41800000000E+01 0.  1.
         -5    1    4    4    0  501 -0.15204649820E+02  0.67381947650E+02 -0.21236466199E+03  0.22335561400E+03  0.41800000000E+01 0.  1.
</event>
<event>
11    1  0.7882745E-009  0.1382810E+03  0.7561462E-02  0.1109493E+00
         22   -1    0    0    0    0  0.00000000000E+00  0.00000000000E+00  0.71568629387E+03  0.71568629387E+03  0.00000000000E+00 0. -1.
         22   -1    0    0    0    0 -0.00000000000E+00 -0.00000000000E+00 -0.29103281146E+03  0.29103281146E+03  0.00000000000E+00 0.  1.
        -24    2    1    2    0    0  0.51985401421E+02  0.50234505542E+01 -0.17941412118E+03  0.20344669409E+03  0.80457525703E+02 0.  0.
         25    2    1    2    0    0 -0.97135002214E+02  0.18653184587E+02 -0.29861627629E+02  0.16224276100E+03  0.12509135359E+03 0.  0.
         24    2    1    2    0    0  0.45149600793E+02 -0.23676635141E+02  0.63392923122E+03  0.64102965023E+03  0.80334754452E+02 0.  0.
        -13    1    5    5    0    0  0.32780422340E+02  0.24105558408E+02  0.18654810064E+03  0.19093409305E+03  0.00000000000E+00 0.  1.
         14    1    5    5    0    0  0.12369178454E+02 -0.47782193549E+02  0.44738113058E+03  0.45009555718E+03  0.00000000000E+00 0. -1.
         13    1    3    3    0    0  0.70391219842E+02  0.11655888546E+01 -0.10305775316E+03  0.12480858510E+03  0.00000000000E+00 0. -1.
        -14    1    3    3    0    0 -0.18405818422E+02  0.38578616996E+01 -0.76356368026E+02  0.78638108998E+02  0.00000000000E+00 0.  1.
          5    1    4    4  501    0  0.29036921579E+02  0.33751405465E-01 -0.17206299740E+02  0.34009897157E+02  0.41800000000E+01 0.  1.
         -5    1    4    4    0  501 -0.12617192379E+03  0.18619433181E+02 -0.12655327889E+02  0.12823286384E+03  0.41800000000E+01 0.  1.
</event>
<event>
11    1  0.7882745E-009  0.1495377E+03  0.7561462E-02  0.1097352E+00
         22   -1    0    0    0    0  0.00000000000E+00  0.00000000000E+00  0.64866327012E+03  0.64866327012E+03  0.00000000000E+00 0.  1.
         22   -1    0    0    0    0 -0.00000000000E+00 -0.00000000000E+00 -0.12925961922E+04  0.12925961922E+04  0.00000000000E+00 0.  1.
        -24    2    1    2    0    0 -0.77877650522E+02  0.28080927779E+02 -0.11298697325E+04  0.11356980015E+04  0.79692352874E+02 0.  0.
         25    2    1    2    0    0  0.44161550527E+02 -0.80980281480E+02 -0.11564110954E+03  0.19372245688E+03  0.12508986989E+03 0.  0.
         24    2    1    2    0    0  0.33716099995E+02  0.52899353701E+02  0.60157791999E+03  0.61183900397E+03  0.92281395358E+02 0.  0.
        -13    1    5    5    0    0 -0.96821823700E+01  0.53147693789E+02  0.47427427601E+03  0.47734108444E+03  0.00000000000E+00 0.  1.
         14    1    5    5    0    0  0.43398282365E+02 -0.24834008784E+00  0.12730364398E+03  0.13449791952E+03  0.00000000000E+00 0. -1.
         11    1    3    3    0    0 -0.27543314619E+02  0.50957593841E+02 -0.48052766774E+03  0.48400635328E+03  0.00000000000E+00 0. -1.
        -12    1    3    3    0    0 -0.50334335902E+02 -0.22876666062E+02 -0.64934206478E+03  0.65169164819E+03  0.00000000000E+00 0.  1.
          5    1    4    4  501    0  0.23617546618E+02 -0.86363579548E+02 -0.13673802239E+03  0.16349683651E+03  0.41800000000E+01 0.  1.
         -5    1    4    4    0  501  0.20544003909E+02  0.53832980683E+01  0.21096912854E+02  0.30225620368E+02  0.41800000000E+01 0.  1.
</event>
<event>
11    1  0.7882745E-009  0.1286004E+03  0.7561462E-02  0.1121001E+00
         22   -1    0    0    0    0  0.00000000000E+00  0.00000000000E+00  0.20776982905E+04  0.20776982905E+04  0.00000000000E+00 0.  1.
         22   -1    0    0    0    0 -0.00000000000E+00 -0.00000000000E+00 -0.53334438972E+02  0.53334438972E+02  0.00000000000E+00 0. -1.
        -24    2    1    2    0    0 -0.23694217748E+00 -0.29425242931E+02 -0.10023046743E+02  0.86591472496E+02  0.80819060746E+02 0.  0.
         25    2    1    2    0    0 -0.13310087593E+01  0.41971759166E+02  0.11173819660E+04  0.11251459862E+04  0.12509049604E+03 0.  0.
         24    2    1    2    0    0  0.15679509367E+01 -0.12546516235E+02  0.91700493230E+03  0.91929527079E+03  0.63607196899E+02 0.  0.
        -13    1    5    5    0    0 -0.26771790504E+02 -0.20647554401E+02  0.38816929402E+03  0.38963887267E+03  0.00000000000E+00 0.  1.
         14    1    5    5    0    0  0.28339741441E+02  0.81010381655E+01  0.52883563827E+03  0.52965639812E+03  0.00000000000E+00 0. -1.
         13    1    3    3    0    0 -0.20326211024E+02 -0.49524245468E+02  0.61644603225E+01  0.53886977228E+02  0.00000000000E+00 0. -1.
        -14    1    3    3    0    0  0.20089268846E+02  0.20099002537E+02 -0.16187507065E+02  0.32704495268E+02  0.00000000000E+00 0.  1.
          5    1    4    4  501    0 -0.49982727099E+02  0.82388325060E+01  0.83747810793E+03  0.83901919229E+03  0.41800000000E+01 0.  1.
         -5    1    4    4    0  501  0.48651718339E+02  0.33732926660E+02  0.27990385805E+03  0.28612679390E+03  0.41800000000E+01 0.  1.
</event>
<event>
11    1  0.7882745E-009  0.2024513E+03  0.7561462E-02  0.1052804E+00
         22   -1    0    0    0    0  0.00000000000E+00  0.00000000000E+00  0.11772643778E+04  0.11772643778E+04  0.00000000000E+00 0. -1.
         22   -1    0    0    0    0 -0.00000000000E+00 -0.00000000000E+00 -0.92607727780E+03  0.92607727780E+03  0.00000000000E+00 0. -1.
        -24    2    1    2    0    0  0.10317931903E+03 -0.12068898072E+03 -0.88378639411E+03  0.90151762122E+03  0.80273463952E+02 0.  0.
         25    2    1    2    0    0 -0.10384235168E+03  0.14244183374E+03  0.34400840443E+03  0.40628167773E+03  0.12510039706E+03 0.  0.
         24    2    1    2    0    0  0.66303264355E+00 -0.21752853024E+02  0.79096508967E+03  0.79554235663E+03  0.82390787644E+02 0.  0.
        -13    1    5    5    0    0 -0.70003505017E+01 -0.20498542145E+02  0.49443806195E+02  0.53980414117E+02  0.00000000000E+00 0.  1.
         14    1    5    5    0    0  0.76633831452E+01 -0.12543108798E+01  0.74152128348E+03  0.74156194251E+03  0.00000000000E+00 0. -1.
         11    1    3    3    0    0  0.79709565181E+02 -0.33016023475E+02 -0.47566652034E+03  0.48342766900E+03  0.00000000000E+00 0. -1.
        -12    1    3    3    0    0  0.23469753853E+02 -0.87672957244E+02 -0.40811987378E+03  0.41808995222E+03  0.00000000000E+00 0.  1.
          5    1    4    4  501    0 -0.18153786521E+02  0.24737191518E+02  0.19670601107E+03  0.19912864134E+03  0.41800000000E+01 0.  1.
         -5    1    4    4    0  501 -0.85688565157E+02  0.11770464223E+03  0.14730239335E+03  0.20715303639E+03  0.41800000000E+01 0.  1.
</event>
<event>
11    1  0.7882745E-009  0.1734969E+03  0.7561462E-02  0.1075028E+00
         22   -1    0    0    0    0  0.00000000000E+00  0.00000000000E+00  0.60717758778E+03  0.60717758778E+03  0.00000000000E+00 0. -1.
         22   -1    0    0    0    0 -0.00000000000E+00 -0.00000000000E+00 -0.57157256925E+03  0.57157256925E+03  0.00000000000E+00 0.  1.
         24    2    1    2    0    0  0.11333457202E+03 -0.44229079153E+02 -0.52319292450E+03  0.54328576312E+03  0.81410364838E+02 0.  0.
         25    2    1    2    0    0 -0.50533820287E+02  0.99935246670E+02  0.22487991518E+03  0.28063757255E+03  0.12508297389E+03 0.  0.
        -24    2    1    2    0    0 -0.62800751729E+02 -0.55706167517E+02  0.33391802785E+03  0.35482682135E+03  0.85753788919E+02 0.  0.
        -13    1    3    3    0    0  0.63090509011E+02 -0.66257196898E+02 -0.32135110319E+03  0.33412117561E+03  0.00000000000E+00 0.  1.
         14    1    3    3    0    0  0.50244063005E+02  0.22028117745E+02 -0.20184182131E+03  0.20916458751E+03  0.00000000000E+00 0. -1.
         11    1    5    5    0    0 -0.83718941716E+02 -0.43398029827E+02  0.28543100436E+03  0.30060457156E+03  0.00000000000E+00 0. -1.
        -12    1    5    5    0    0  0.20918189987E+02 -0.12308137690E+02  0.48487023491E+02  0.54222249795E+02  0.00000000000E+00 0.  1.
          5    1    4    4  501    0 -0.32887076281E+02  0.28382258788E+02  0.19693011918E+03  0.20170784973E+03  0.41800000000E+01 0. -1.
         -5    1    4    4    0  501 -0.17646744006E+02  0.71552987882E+02  0.27949795999E+02  0.78929722825E+02  0.41800000000E+01 0. -1.
</event>
<event>
11    1  0.7882745E-009  0.1780362E+03  0.7561462E-02  0.1071243E+00
         22   -1    0    0    0    0  0.00000000000E+00  0.00000000000E+00  0.25300915047E+03  0.25300915047E+03  0.00000000000E+00 0.  1.
         22   -1    0    0    0    0 -0.00000000000E+00 -0.00000000000E+00 -0.13308202632E+04  0.13308202632E+04  0.00000000000E+00 0.  1.
         24    2    1    2    0    0 -0.87255142596E+01  0.12295674157E+03 -0.78983724626E+03  0.80350716904E+03  0.81156640092E+02 0.  0.
         25    2    1    2    0    0 -0.86428543937E+02 -0.13374715686E+03 -0.49705704840E+03  0.53672088514E+03  0.12508158939E+03 0.  0.
        -24    2    1    2    0    0  0.95154058196E+02  0.10790415286E+02  0.20908318195E+03  0.24360135946E+03  0.80343745894E+02 0.  0.
        -11    1    3    3    0    0  0.99382574090E+01  0.93190837083E+02 -0.71158088179E+03  0.71772602880E+03  0.00000000000E+00 0.  1.
         12    1    3    3    0    0 -0.18663771669E+02  0.29765904491E+02 -0.78256364461E+02  0.85781140245E+02  0.00000000000E+00 0. -1.
         11    1    5    5    0    0  0.37957337501E+02  0.42922225988E+02  0.75523658848E+02  0.94799261599E+02  0.00000000000E+00 0. -1.
        -12    1    5    5    0    0  0.57196720695E+02 -0.32131810702E+02  0.13355952310E+03  0.14880209786E+03  0.00000000000E+00 0.  1.
          5    1    4    4  501    0  0.54246090032E+01 -0.18917496757E+02 -0.19400238492E+01  0.20212227955E+02  0.41800000000E+01 0.  1.
         -5    1    4    4    0  501 -0.91853152940E+02 -0.11482966010E+03 -0.49511702455E+03  0.51650865719E+03  0.41800000000E+01 0.  1.
</event>
<event>
11    1  0.7882745E-009  0.2413323E+03  0.7561462E-02  0.1028621E+00
         22   -1    0    0    0    0  0.00000000000E+00  0.00000000000E+00  0.71849830691E+03  0.71849830691E+03  0.00000000000E+00 0.  1.
         22   -1    0    0    0    0 -0.00000000000E+00 -0.00000000000E+00 -0.43949433320E+03  0.43949433320E+03  0.00000000000E+00 0.  1.
        -24    2    1    2    0    0 -0.10673452574E+02  0.68430116321E+01 -0.35927507384E+03  0.36823016343E+03  0.79712766730E+02 0.  0.
         25    2    1    2    0    0 -0.11617610182E+02 -0.20952410499E+03  0.30225148436E+03  0.38863712797E+03  0.12509011952E+03 0.  0.
         24    2    1    2    0    0  0.22291062756E+02  0.20268109336E+03  0.33602756320E+03  0.40112534871E+03  0.80065629727E+02 0.  0.
        -11    1    5    5    0    0 -0.21685899505E+02  0.91141209685E+02  0.19266327636E+03  0.21423383580E+03  0.00000000000E+00 0.  1.
         12    1    5    5    0    0  0.43976962261E+02  0.11153988367E+03  0.14336428684E+03  0.18689151291E+03  0.00000000000E+00 0. -1.
         13    1    3    3    0    0  0.27472386654E+02 -0.20072200923E+02 -0.15356405229E+03  0.15728809057E+03  0.00000000000E+00 0. -1.
        -14    1    3    3    0    0 -0.38145839228E+02  0.26915212555E+02 -0.20571102155E+03  0.21094207287E+03  0.00000000000E+00 0.  1.
          5    1    4    4  501    0 -0.15550044086E+02 -0.20648817199E+03  0.31344796920E+03  0.37569438489E+03  0.41800000000E+01 0.  1.
         -5    1    4    4    0  501  0.39324339041E+01 -0.30359329984E+01 -0.11196484842E+02  0.12942743079E+02  0.41800000000E+01 0.  1.
</event>
<event>
11    1  0.7882745E-009  0.1292440E+03  0.7561462E-02  0.1120201E+00
         22   -1    0    0    0    0  0.00000000000E+00  0.00000000000E+00  0.19555140662E+03  0.19555140662E+03  0.00000000000E+00 0. -1.
         22   -1    0    0    0    0 -0.00000000000E+00 -0.00000000000E+00 -0.13791476298E+04  0.13791476298E+04  0.00000000000E+00 0.  1.
        -24    2    1    2    0    0 -0.17009184932E+02 -0.27964112235E+02 -0.12856958789E+04  0.12885246811E+04  0.78807721939E+02 0.  0.
         25    2    1    2    0    0  0.44566682634E+01  0.25411356671E+02 -0.29724225295E+02  0.13113799505E+03  0.12509214699E+03 0.  0.
         24    2    1    2    0    0  0.12552516668E+02  0.25527555638E+01  0.13182388095E+03  0.15503636025E+03  0.80589423459E+02 0.  0.
        -13    1    5    5    0    0  0.87616585155E+01  0.11527892294E+02 -0.68517437044E+01  0.16018906095E+02  0.00000000000E+00 0.  1.
         14    1    5    5    0    0  0.37908581526E+01 -0.89751367305E+01  0.13867562466E+03  0.13901745415E+03  0.00000000000E+00 0. -1.
         13    1    3    3    0    0 -0.16492639577E+02 -0.15156423396E+02 -0.89507869862E+02  0.92267996063E+02  0.00000000000E+00 0. -1.
        -14    1    3    3    0    0 -0.51654535422E+00 -0.12807688839E+02 -0.11961880090E+04  0.11962566851E+04  0.00000000000E+00 0.  1.
          5    1    4    4  501    0  0.20230158850E+02  0.63703644303E+02 -0.51201054516E+02  0.84299667900E+02  0.41800000000E+01 0.  1.
         -5    1    4    4    0  501 -0.15773490586E+02 -0.38292287632E+02  0.21476829220E+02  0.46838327155E+02  0.41800000000E+01 0.  1.
</event>
<event>
11    1  0.1232155E-008  0.1762239E+03  0.7561462E-02  0.1072739E+00
         22   -1    0    0    0    0  0.00000000000E+00  0.00000000000E+00  0.22869714528E+04  0.22869714528E+04  0.00000000000E+00 0. -1.
         22   -1    0    0    0    0 -0.00000000000E+00 -0.00000000000E+00 -0.40894565875E+03  0.40894565875E+03  0.00000000000E+00 0.  1.
        -24    2    1    2    0    0 -0.28512612103E+02  0.10346043340E+03 -0.25321029411E+03  0.28551989159E+03  0.76740635444E+02 0.  0.
         25    2    1    2    0    0 -0.95124100451E+02 -0.11724050330E+03 -0.67187959366E+02  0.20725528386E+03  0.12508637297E+03 0.  0.
         24    2    1    2    0    0  0.12363671255E+03  0.13780069907E+02  0.21984240475E+04  0.22031419361E+04  0.72733560658E+02 0.  0.
        -13    1    5    5    0    0  0.25242513148E+02  0.22575197986E+02  0.25913160759E+03  0.26133506096E+03  0.00000000000E+00 0.  1.
         14    1    5    5    0    0  0.98394199406E+02 -0.87951280785E+01  0.19392924399E+04  0.19418068751E+04  0.00000000000E+00 0. -1.
         11    1    3    3    0    0  0.26761853948E+01  0.19803339454E+02 -0.34468477897E+01  0.20278436367E+02  0.00000000000E+00 0. -1.
        -12    1    3    3    0    0 -0.31188797498E+02  0.83657093941E+02 -0.24976344632E+03  0.26524145523E+03  0.00000000000E+00 0.  1.
          5    1    4    4  501    0 -0.10936495693E+03 -0.13180232971E+03 -0.45601562186E+02  0.17728373528E+03  0.41800000000E+01 0. -1.
         -5    1    4    4    0  501  0.14240856477E+02  0.14561826404E+02 -0.21586397180E+02  0.29971548586E+02  0.41800000000E+01 0. -1.
</event>
<event>
11    1  0.7882745E-009  0.2223219E+03  0.7561462E-02  0.1039773E+00
         22   -1    0    0    0    0  0.00000000000E+00  0.00000000000E+00  0.33405771861E+03  0.33405771861E+03  0.00000000000E+00 0.  1.
         22   -1    0    0    0    0 -0.00000000000E+00 -0.00000000000E+00 -0.72893709867E+03  0.72893709867E+03  0.00000000000E+00 0. -1.
        -24    2    1    2    0    0  0.12578509524E+03  0.12671458761E+03 -0.58593734018E+03  0.61719504411E+03  0.75688037080E+02 0.  0.
         25    2    1    2    0    0 -0.19737709788E+03 -0.15023931774E+03  0.80544364260E+02  0.28924490741E+03  0.12508257468E+03 0.  0.
         24    2    1    2    0    0  0.71592002634E+02  0.23524730122E+02  0.11051359586E+03  0.15655486575E+03  0.81347054977E+02 0.  0.
        -11    1    5    5    0    0  0.68047851660E+02  0.23873600906E+02  0.12354159360E+03  0.14304888774E+03  0.00000000000E+00 0.  1.
         12    1    5    5    0    0  0.35441509738E+01 -0.34887078456E+00 -0.13027997739E+02  0.13505978011E+02  0.00000000000E+00 0. -1.
         11    1    3    3    0    0  0.23574887342E+02  0.54287838594E+02 -0.28756427006E+03  0.29359181553E+03  0.00000000000E+00 0. -1.
        -12    1    3    3    0    0  0.10221020790E+03  0.72426749021E+02 -0.29837307012E+03  0.32360322857E+03  0.00000000000E+00 0.  1.
          5    1    4    4  501    0 -0.10807662216E+03 -0.14351709632E+03  0.86407589829E+02  0.19940275117E+03  0.41800000000E+01 0. -1.
         -5    1    4    4    0  501 -0.89300475715E+02 -0.67222214126E+01 -0.58632255692E+01  0.89842156240E+02  0.41800000000E+01 0. -1.
</event>
<event>
11    1  0.7882745E-009  0.1343711E+03  0.7561462E-02  0.1114012E+00
         22   -1    0    0    0    0  0.00000000000E+00  0.00000000000E+00  0.14290438665E+04  0.14290438665E+04  0.00000000000E+00 0.  1.
         22   -1    0    0    0    0 -0.00000000000E+00 -0.00000000000E+00 -0.49342393754E+03  0.49342393754E+03  0.00000000000E+00 0. -1.
         24    2    1    2    0    0 -0.87215742385E+01  0.57840860013E+02 -0.33007996584E+03  0.34662953737E+03  0.88190823695E+02 0.  0.
         25    2    1    2    0    0  0.21453685644E+02 -0.14897733203E+02 -0.12697250990E+03  0.18014332715E+03  0.12508955579E+03 0.  0.
        -24    2    1    2    0    0 -0.12732111406E+02 -0.42943126809E+02  0.13926724047E+04  0.13956949395E+04  0.80135626378E+02 0.  0.
        -11    1    3    3    0    0  0.30086470445E+02  0.53981648117E+02 -0.14736466786E+03  0.15979849615E+03  0.00000000000E+00 0.  1.
         12    1    3    3    0    0 -0.38808044683E+02  0.38592118954E+01 -0.18271529798E+03  0.18683104122E+03  0.00000000000E+00 0. -1.
         11    1    5    5    0    0  0.42580967967E+01 -0.49417107177E+01  0.76770539240E+01  0.10074177391E+02  0.00000000000E+00 0. -1.
        -12    1    5    5    0    0 -0.16990208202E+02 -0.38001416092E+02  0.13849953508E+04  0.13856207621E+04  0.00000000000E+00 0.  1.
          5    1    4    4  501    0 -0.19455835215E+02 -0.30121955469E+02  0.90572264038E+01  0.37220524920E+02  0.41800000000E+01 0.  1.
         -5    1    4    4    0  501  0.40909520859E+02  0.15224222266E+02 -0.13602973630E+03  0.14292280223E+03  0.41800000000E+01 0.  1.
</event>
<event>
11    1  0.7882745E-009  0.1441298E+03  0.7561462E-02  0.1103032E+00
         22   -1    0    0    0    0  0.00000000000E+00  0.00000000000E+00  0.19040320761E+03  0.19040320761E+03  0.00000000000E+00 0.  1.
         22   -1    0    0    0    0 -0.00000000000E+00 -0.00000000000E+00 -0.45745833257E+03  0.45745833257E+03  0.00000000000E+00 0. -1.
         24    2    1    2    0    0  0.69569970796E+01  0.74016610515E+02 -0.37507566024E+03  0.39073190383E+03  0.80391612287E+02 0.  0.
         25    2    1    2    0    0  0.19453154652E+02 -0.44219841455E+02  0.27424511231E+02  0.13688015210E+03  0.12510096969E+03 0.  0.
        -24    2    1    2    0    0 -0.26410151732E+02 -0.29796769060E+02  0.80596024057E+02  0.12024948425E+03  0.79867864678E+02 0.  0.
        -11    1    3    3    0    0 -0.13149128288E+02  0.83341298901E+02 -0.32834375611E+03  0.33901075773E+03  0.00000000000E+00 0.  1.
         12    1    3    3    0    0  0.20106125368E+02 -0.93246883858E+01 -0.46731904128E+02  0.51721146103E+02  0.00000000000E+00 0. -1.
         11    1    5    5    0    0 -0.14161133550E+02 -0.16179079052E+02 -0.12834553907E+02  0.25040488741E+02  0.00000000000E+00 0. -1.
        -12    1    5    5    0    0 -0.12249018182E+02 -0.13617690008E+02  0.93430577964E+02  0.95208995511E+02  0.00000000000E+00 0.  1.
          5    1    4    4  501    0  0.16723055320E+02  0.37227475849E+02 -0.16488813943E+02  0.44214238912E+02  0.41800000000E+01 0. -1.
         -5    1    4    4    0  501  0.27300993317E+01 -0.81447317304E+02  0.43913325174E+02  0.92665913184E+02  0.41800000000E+01 0. -1.
</event>
<event>
11    1  0.7882745E-009  0.1662977E+03  0.7561462E-02  0.1081299E+00
         22   -1    0    0    0    0  0.00000000000E+00  0.00000000000E+00  0.57291359561E+03  0.57291359561E+03  0.00000000000E+00 0.  1.
         22   -1    0    0    0    0 -0.00000000000E+00 -0.00000000000E+00 -0.10528616333E+04  0.10528616333E+04  0.00000000000E+00 0. -1.
         24    2    1    2    0    0 -0.33674385832E+02  0.10518372036E+03 -0.10160860137E+04  0.10254310048E+04  0.82948049348E+02 0.  0.
         25    2    1    2    0    0  0.22230787278E+02 -0.69782904085E+02  0.16841659505E+03  0.22220851083E+03  0.12509440910E+03 0.  0.
        -24    2    1    2    0    0  0.11443598554E+02 -0.35400816279E+02  0.36772138102E+03  0.37813571332E+03  0.79896369679E+02 0.  0.
        -13    1    3    3    0    0 -0.16581805865E+02  0.10962845287E+03 -0.68860939259E+03  0.69747849395E+03  0.00000000000E+00 0.  1.
         14    1    3    3    0    0 -0.17092579967E+02 -0.44447325050E+01 -0.32747662116E+03  0.32795251081E+03  0.00000000000E+00 0. -1.
         11    1    5    5    0    0  0.16884717640E+02 -0.32099024981E+02  0.58380414725E+02  0.68729279917E+02  0.00000000000E+00 0. -1.
        -12    1    5    5    0    0 -0.54411190867E+01 -0.33017912983E+01  0.30934096629E+03  0.30940643340E+03  0.00000000000E+00 0.  1.
          5    1    4    4  501    0  0.39837489056E+02 -0.28565786213E+02  0.17019042536E+03  0.17715892007E+03  0.41800000000E+01 0.  1.
         -5    1    4    4    0  501 -0.17606701778E+02 -0.41217117872E+02 -0.17738303099E+01  0.45049590754E+02  0.41800000000E+01 0.  1.
</event>
<event>
11    1  0.7882745E-009  0.1341998E+03  0.7561462E-02  0.1114214E+00
         22   -1    0    0    0    0  0.00000000000E+00  0.00000000000E+00  0.42907609653E+03  0.42907609653E+03  0.00000000000E+00 0. -1.
         22   -1    0    0    0    0 -0.00000000000E+00 -0.00000000000E+00 -0.21399442670E+03  0.21399442670E+03  0.00000000000E+00 0. -1.
        -24    2    1    2    0    0  0.12278399440E+02  0.50175153884E+02 -0.15758355559E+03  0.18182798417E+03  0.74568986020E+02 0.  0.
         25    2    1    2    0    0 -0.19752635776E+02  0.62600838765E+01  0.73511614022E+02  0.14656269670E+03  0.12508921375E+03 0.  0.
         24    2    1    2    0    0  0.74742363363E+01 -0.56435237760E+02  0.29915361140E+03  0.31467984237E+03  0.79307753152E+02 0.  0.
        -11    1    5    5    0    0 -0.17807584562E+02  0.52317252227E+01  0.18441815824E+02  0.26164510078E+02  0.00000000000E+00 0.  1.
         12    1    5    5    0    0  0.25281820899E+02 -0.61666962983E+02  0.28071179557E+03  0.28851533229E+03  0.00000000000E+00 0. -1.
         11    1    3    3    0    0  0.30313577819E+02  0.26023847963E+02 -0.14274652038E+03  0.14823198961E+03  0.00000000000E+00 0. -1.
        -12    1    3    3    0    0 -0.18035178379E+02  0.24151305921E+02 -0.14837035208E+02  0.33595994562E+02  0.00000000000E+00 0.  1.
          5    1    4    4  501    0  0.21787188285E+02 -0.48378169559E+02  0.12582572567E+02  0.54689326159E+02  0.41800000000E+01 0. -1.
         -5    1    4    4    0  501 -0.41539824062E+02  0.54638253436E+02  0.60929041455E+02  0.91873370539E+02  0.41800000000E+01 0. -1.
</event>
<event>
11    1  0.7882745E-009  0.1525585E+03  0.7561462E-02  0.1094293E+00
         22   -1    0    0    0    0  0.00000000000E+00  0.00000000000E+00  0.21669688490E+03  0.21669688490E+03  0.00000000000E+00 0.  1.
         22   -1    0    0    0    0 -0.00000000000E+00 -0.00000000000E+00 -0.15148831652E+04  0.15148831652E+04  0.00000000000E+00 0. -1.
        -24    2    1    2    0    0 -0.68524320788E+01  0.68202456394E+02 -0.13404631260E+04  0.13445514425E+04  0.79237986924E+02 0.  0.
         25    2    1    2    0    0  0.53544375445E+01 -0.14594500631E+03 -0.85748787390E+02  0.21054425266E+03  0.12508961957E+03 0.  0.
         24    2    1    2    0    0  0.14979945344E+01  0.77742549912E+02  0.12802563303E+03  0.17648435495E+03  0.93327470642E+02 0.  0.
        -13    1    5    5    0    0  0.17919293994E+02 -0.71442657985E+01  0.69376848036E+02  0.72008948572E+02  0.00000000000E+00 0.  1.
         14    1    5    5    0    0 -0.16421299460E+02  0.84886815711E+02  0.58648784994E+02  0.10447540638E+03  0.00000000000E+00 0. -1.
         13    1    3    3    0    0 -0.33975649872E+02  0.22859770657E+02 -0.89992253000E+03  0.90085374723E+03  0.00000000000E+00 0. -1.
        -14    1    3    3    0    0  0.27123217793E+02  0.45342685736E+02 -0.44054059597E+03  0.44369769528E+03  0.00000000000E+00 0.  1.
          5    1    4    4  501    0 -0.28736380403E+02 -0.33478549229E+02 -0.81622461767E+02  0.92877830950E+02  0.41800000000E+01 0. -1.
         -5    1    4    4    0  501  0.34090817948E+02 -0.11246645708E+03 -0.41263256227E+01  0.11766642171E+03  0.41800000000E+01 0. -1.
</event>
<event>
11    1  0.7882745E-009  0.1828157E+03  0.7561462E-02  0.1067388E+00
         22   -1    0    0    0    0  0.00000000000E+00  0.00000000000E+00  0.71878942668E+03  0.71878942668E+03  0.00000000000E+00 0. -1.
         22   -1    0    0    0    0 -0.00000000000E+00 -0.00000000000E+00 -0.79308838040E+03  0.79308838040E+03  0.00000000000E+00 0. -1.
        -24    2    1    2    0    0 -0.37794406171E+02  0.41398096034E+02 -0.71675406112E+03  0.72390109816E+03  0.84582482174E+02 0.  0.
         25    2    1    2    0    0  0.94272094121E+02 -0.15346640213E+03  0.13088960973E+03  0.25538299715E+03  0.12509684642E+03 0.  0.
         24    2    1    2    0    0 -0.56477687950E+02  0.11206830610E+03  0.51156549767E+03  0.53259371177E+03  0.78789396109E+02 0.  0.
        -11    1    5    5    0    0 -0.26026995729E+02  0.26432659507E+02  0.50529720387E+02  0.62684468871E+02  0.00000000000E+00 0.  1.
         12    1    5    5    0    0 -0.30450692222E+02  0.85635646594E+02  0.46103577729E+03  0.46990924290E+03  0.00000000000E+00 0. -1.
         13    1    3    3    0    0 -0.36535257387E+02  0.48585911973E+02 -0.71319698296E+03  0.71578303443E+03  0.00000000000E+00 0. -1.
        -14    1    3    3    0    0 -0.12591487837E+01 -0.71878159391E+01 -0.35570781560E+01  0.81180637249E+01  0.00000000000E+00 0.  1.
          5    1    4    4  501    0  0.70361821139E+02 -0.16732530013E+03  0.82342892029E+02  0.19936490716E+03  0.41800000000E+01 0. -1.
         -5    1    4    4    0  501  0.23910272982E+02  0.13858897994E+02  0.48546717696E+02  0.56018089995E+02  0.41800000000E+01 0. -1.
</event>
<event>
11    1  0.1034699E-008  0.1500775E+03  0.7561462E-02  0.1096800E+00
         22   -1    0    0    0    0  0.00000000000E+00  0.00000000000E+00  0.21061684915E+03  0.21061684915E+03  0.00000000000E+00 0.  1.
         22   -1    0    0    0    0 -0.00000000000E+00 -0.00000000000E+00 -0.18429287760E+04  0.18429287760E+04  0.00000000000E+00 0. -1.
         24    2    1    2    0    0  0.28669514635E+02 -0.98808190849E+02 -0.13939096254E+04  0.14000942647E+04  0.81822409664E+02 0.  0.
         25    2    1    2    0    0 -0.45108281738E+02  0.65344937460E+00 -0.41466047771E+03  0.43546073055E+03  0.12509017546E+03 0.  0.
        -24    2    1    2    0    0  0.16438767103E+02  0.98154741474E+02  0.17625817618E+03  0.21799062996E+03  0.80922084388E+02 0.  0.
        -11    1    3    3    0    0 -0.93928575957E+01 -0.44904751779E+02 -0.24288318025E+03  0.24717787472E+03  0.00000000000E+00 0.  1.
         12    1    3    3    0    0  0.38062372230E+02 -0.53903439069E+02 -0.11510264451E+04  0.11529163900E+04  0.00000000000E+00 0. -1.
         13    1    5    5    0    0  0.28785238576E+02  0.95375522381E-01  0.49427103206E+02  0.57198230634E+02  0.00000000000E+00 0. -1.
        -14    1    5    5    0    0 -0.12346471473E+02  0.98059365952E+02  0.12683107297E+03  0.16079239932E+03  0.00000000000E+00 0.  1.
          5    1    4    4  501    0 -0.81754647272E+02 -0.27605220246E+02 -0.26066713602E+03  0.27461008492E+03  0.41800000000E+01 0. -1.
         -5    1    4    4    0  501  0.36646365534E+02  0.28258669620E+02 -0.15399334169E+03  0.16085064563E+03  0.41800000000E+01 0. -1.
</event>
<event>
11    1  0.7882745E-009  0.1725871E+03  0.7561462E-02  0.1075802E+00
         22   -1    0    0    0    0  0.00000000000E+00  0.00000000000E+00  0.18210139086E+04  0.18210139086E+04  0.00000000000E+00 0.  1.
         22   -1    0    0    0    0 -0.00000000000E+00 -0.00000000000E+00 -0.11107173253E+04  0.11107173253E+04  0.00000000000E+00 0. -1.
        -24    2    1    2    0    0  0.11101179424E+02  0.11497913974E+03 -0.96240631070E+03  0.97273696958E+03  0.81534448835E+02 0.  0.
         25    2    1    2    0    0  0.87476345572E+01 -0.17356337303E+03 -0.60373956556E+02  0.22247285368E+03  0.12509352671E+03 0.  0.
         24    2    1    2    0    0 -0.19848813982E+02  0.58584233285E+02  0.17330768506E+04  0.17365214106E+04  0.90139624129E+02 0.  0.
        -11    1    5    5    0    0  0.17114823056E+00  0.77867727533E+02  0.10521823069E+04  0.10550597231E+04  0.00000000000E+00 0.  1.
         12    1    5    5    0    0 -0.20019962212E+02 -0.19283494248E+02  0.68089454361E+03  0.68146168752E+03  0.00000000000E+00 0. -1.
         13    1    3    3    0    0 -0.22685226519E+02  0.81184307553E+02 -0.42959083998E+03  0.43778282411E+03  0.00000000000E+00 0. -1.
        -14    1    3    3    0    0  0.33786405943E+02  0.33794832192E+02 -0.53281547073E+03  0.53495414547E+03  0.00000000000E+00 0.  1.
          5    1    4    4  501    0 -0.27739376847E+02 -0.41113584994E+02  0.29870199588E+02  0.58047404096E+02  0.41800000000E+01 0.  1.
         -5    1    4    4    0  501  0.36487011404E+02 -0.13244978804E+03 -0.90244156144E+02  0.16442544958E+03  0.41800000000E+01 0.  1.
</event>
<event>
11    1  0.7882745E-009  0.1362042E+03  0.7561462E-02  0.1111873E+00
         22   -1    0    0    0    0  0.00000000000E+00  0.00000000000E+00  0.19282436360E+04  0.19282436360E+04  0.00000000000E+00 0.  1.
         22   -1    0    0    0    0 -0.00000000000E+00 -0.00000000000E+00 -0.12954339970E+04  0.12954339970E+04  0.00000000000E+00 0.  1.
        -24    2    1    2    0    0 -0.63045104904E+02 -0.14002635553E+02 -0.71241208781E+03  0.72063202607E+03  0.87228292858E+02 0.  0.
         25    2    1    2    0    0  0.30136655319E+02  0.21490738095E+02 -0.57054937296E+03  0.58527157288E+03  0.12508460026E+03 0.  0.
         24    2    1    2    0    0  0.32908449585E+02 -0.74881025421E+01  0.19157710998E+04  0.19177740340E+04  0.80865944191E+02 0.  0.
        -11    1    5    5    0    0  0.16452268795E+02  0.31504770525E+02  0.13305094555E+04  0.13309840867E+04  0.00000000000E+00 0.  1.
         12    1    5    5    0    0  0.16456180790E+02 -0.38992873067E+02  0.58526164426E+03  0.58678994732E+03  0.00000000000E+00 0. -1.
         13    1    3    3    0    0 -0.59908010018E+02 -0.41374385180E+02 -0.36884384713E+03  0.37596089288E+03  0.00000000000E+00 0. -1.
        -14    1    3    3    0    0 -0.31370948858E+01  0.27371749627E+02 -0.34356824069E+03  0.34467113318E+03  0.00000000000E+00 0.  1.
          5    1    4    4  501    0 -0.48587650156E+02  0.43887705652E+00 -0.20363543488E+03  0.20939392327E+03  0.41800000000E+01 0.  1.
         -5    1    4    4    0  501  0.78724305476E+02  0.21051861039E+02 -0.36691393807E+03  0.37587764961E+03  0.41800000000E+01 0.  1.
</event>
<event>
11    1  0.9067398E-009  0.1890150E+03  0.7561462E-02  0.1062575E+00
         22   -1    0    0    0    0  0.00000000000E+00  0.00000000000E+00  0.66145088443E+03  0.66145088443E+03  0.00000000000E+00 0.  1.
         22   -1    0    0    0    0 -0.00000000000E+00 -0.00000000000E+00 -0.70186476236E+03  0.70186476236E+03  0.00000000000E+00 0.  1.
         24    2    1    2    0    0  0.46620349458E+02  0.98126337151E+00 -0.41624900855E+03  0.42678439736E+03  0.81897892855E+02 0.  0.
         25    2    1    2    0    0  0.29736662522E+02 -0.12147433297E+03 -0.24015746246E+03  0.29826760657E+03  0.12509066986E+03 0.  0.
        -24    2    1    2    0    0 -0.76357011980E+02  0.12049306960E+03  0.61599259308E+03  0.63826364286E+03  0.87089781131E+02 0.  0.
        -13    1    3    3    0    0 -0.22655580778E+02 -0.87207085233E+01 -0.10397913701E+03  0.10677540461E+03  0.00000000000E+00 0.  1.
         14    1    3    3    0    0  0.69275930236E+02  0.97019718948E+01 -0.31226987154E+03  0.32000899275E+03  0.00000000000E+00 0. -1.
         13    1    5    5    0    0 -0.55164346776E+02  0.64808389081E+02  0.19085017524E+03  0.20896655675E+03  0.00000000000E+00 0. -1.
        -14    1    5    5    0    0 -0.21192665205E+02  0.55684680517E+02  0.42514241784E+03  0.42929708612E+03  0.00000000000E+00 0.  1.
          5    1    4    4  501    0 -0.20473010403E+02 -0.47289263660E+01  0.50873484099E+01  0.22019546166E+02  0.41800000000E+01 0. -1.
         -5    1    4    4    0  501  0.50209672925E+02 -0.11674540660E+03 -0.24524481087E+03  0.27624806040E+03  0.41800000000E+01 0. -1.
</event>
<event>
11    1  0.7882745E-009  0.1350218E+03  0.7561462E-02  0.1113248E+00
         22   -1    0    0    0    0  0.00000000000E+00  0.00000000000E+00  0.18565527576E+03  0.18565527576E+03  0.00000000000E+00 0. -1.
         22   -1    0    0    0    0 -0.00000000000E+00 -0.00000000000E+00 -0.15813955487E+04  0.15813955487E+04  0.00000000000E+00 0.  1.
         24    2    1    2    0    0  0.27035653351E+02  0.24683485560E+02 -0.77807182950E+03  0.78306174414E+03  0.80310162850E+02 0.  0.
         25    2    1    2    0    0 -0.26348028537E+02 -0.75112822074E+02 -0.78128921703E+03  0.79523422899E+03  0.12509389934E+03 0.  0.
        -24    2    1    2    0    0 -0.68762481382E+00  0.50429336514E+02  0.16362077358E+03  0.18875485135E+03  0.79454676076E+02 0.  0.
        -13    1    3    3    0    0  0.31836858634E+02  0.43217237472E+02 -0.71820307344E+03  0.72020619956E+03  0.00000000000E+00 0.  1.
         14    1    3    3    0    0 -0.48012052835E+01 -0.18533751912E+02 -0.59868756055E+02  0.62855544574E+02  0.00000000000E+00 0. -1.
         11    1    5    5    0    0 -0.38231915628E+02  0.39385287252E+02  0.99448348619E+02  0.11359073143E+03  0.00000000000E+00 0. -1.
        -12    1    5    5    0    0  0.37544290814E+02  0.11044049262E+02  0.64172424962E+02  0.75164119913E+02  0.00000000000E+00 0.  1.
          5    1    4    4  501    0  0.33377447781E+02 -0.10784138733E+02 -0.68729535697E+02  0.77275954512E+02  0.41800000000E+01 0. -1.
         -5    1    4    4    0  501 -0.59725476318E+02 -0.64328683341E+02 -0.71255968134E+03  0.71795827448E+03  0.41800000000E+01 0. -1.
</event>
<event>
11    1  0.7882745E-009  0.3032055E+03  0.7561462E-02  0.9988436E-01
         22   -1    0    0    0    0  0.00000000000E+00  0.00000000000E+00  0.22292621627E+04  0.22292621627E+04  0.00000000000E+00 0.  1.
         22   -1    0    0    0    0 -0.00000000000E+00 -0.00000000000E+00 -0.12873917382E+03  0.12873917382E+03  0.00000000000E+00 0.  1.
         24    2    1    2    0    0 -0.64343113725E+02 -0.23503456074E+01 -0.32712782267E+02  0.10854471493E+03  0.81032515742E+02 0.  0.
         25    2    1    2    0    0  0.53838163252E+01 -0.27061371373E+03  0.44026093159E+03  0.53173245999E+03  0.12509577766E+03 0.  0.
        -24    2    1    2    0    0  0.58959297399E+02  0.27296405934E+03  0.16929748395E+04  0.17177241616E+04  0.80168020483E+02 0.  0.
        -11    1    3    3    0    0 -0.43149603187E+02 -0.26498503776E+02 -0.50756179186E+02  0.71695527637E+02  0.00000000000E+00 0.  1.
         12    1    3    3    0    0 -0.21193510538E+02  0.24148158169E+02  0.18043396919E+02  0.36849187294E+02  0.00000000000E+00 0. -1.
         13    1    5    5    0    0  0.56484321117E+02  0.11640883454E+03  0.61738609043E+03  0.63079876343E+03  0.00000000000E+00 0. -1.
        -14    1    5    5    0    0  0.24749762825E+01  0.15655522479E+03  0.10755887491E+04  0.10869253981E+04  0.00000000000E+00 0.  1.
          5    1    4    4  501    0  0.22723735609E+02 -0.19365913896E+03  0.20230494526E+03  0.28100710585E+03  0.41800000000E+01 0.  1.
         -5    1    4    4    0  501 -0.17339919284E+02 -0.76954574772E+02  0.23795598633E+03  0.25072535414E+03  0.41800000000E+01 0.  1.
</event>
<event>
11    1  0.7882745E-009  0.1404786E+03  0.7561462E-02  0.1107025E+00
         22   -1    0    0    0    0  0.00000000000E+00  0.00000000000E+00  0.14181269336E+04  0.14181269336E+04  0.00000000000E+00 0.  1.
         22   -1    0    0    0    0 -0.00000000000E+00 -0.00000000000E+00 -0.15138510081E+04  0.15138510081E+04  0.00000000000E+00 0. -1.
         24    2    1    2    0    0  0.33315924446E+02  0.48850286442E+02 -0.14387964151E+04  0.14423693138E+04  0.82448844576E+02 0.  0.
         25    2    1    2    0    0  0.30788376143E+02 -0.37927618001E+02 -0.81271755231E+01  0.13452544287E+03  0.12507843733E+03 0.  0.
        -24    2    1    2    0    0 -0.64104300589E+02 -0.10922668441E+02  0.13511995161E+04  0.13550831850E+04  0.79256797603E+02 0.  0.
        -13    1    3    3    0    0  0.60639164585E+01  0.43341370324E+02 -0.29438235804E+03  0.29761757036E+03  0.00000000000E+00 0.  1.
         14    1    3    3    0    0  0.27252007987E+02  0.55089161187E+01 -0.11444140571E+04  0.11447517434E+04  0.00000000000E+00 0. -1.
         11    1    5    5    0    0 -0.74770587693E+02  0.11897226168E+02  0.89891621691E+03  0.90209896896E+03  0.00000000000E+00 0. -1.
        -12    1    5    5    0    0  0.10666287104E+02 -0.22819894608E+02  0.45228329922E+03  0.45298421608E+03  0.00000000000E+00 0.  1.
          5    1    4    4  501    0 -0.42772903485E+02 -0.41048586561E+02  0.49215384763E+01  0.59633897007E+02  0.41800000000E+01 0.  1.
         -5    1    4    4    0  501  0.73561279628E+02  0.31209685599E+01 -0.13048713999E+02  0.74891545866E+02  0.41800000000E+01 0.  1.
</event>
<event>
11    1  0.7882745E-009  0.1863998E+03  0.7561462E-02  0.1064581E+00
         22   -1    0    0    0    0  0.00000000000E+00  0.00000000000E+00  0.30759319707E+03  0.30759319707E+03  0.00000000000E+00 0. -1.
         22   -1    0    0    0    0 -0.00000000000E+00 -0.00000000000E+00 -0.13706702008E+04  0.13706702008E+04  0.00000000000E+00 0.  1.
        -24    2    1    2    0    0  0.14936444270E+02 -0.71805558483E+02 -0.11699798466E+04  0.11752767182E+04  0.83924890411E+02 0.  0.
         25    2    1    2    0    0 -0.61203319593E+02  0.19189981067E+03 -0.90423731686E+02  0.25376428131E+03  0.12509386698E+03 0.  0.
         24    2    1    2    0    0  0.46266875323E+02 -0.12009425218E+03  0.19732657456E+03  0.24922239839E+03  0.81306664390E+02 0.  0.
        -13    1    5    5    0    0  0.36319751697E+01 -0.93222755268E+02  0.85422855644E+02  0.12649402203E+03  0.00000000000E+00 0.  1.
         14    1    5    5    0    0  0.42634900153E+02 -0.26871496916E+02  0.11190371891E+03  0.12272837636E+03  0.00000000000E+00 0. -1.
         13    1    3    3    0    0  0.82599027954E+01 -0.74124375686E+01 -0.15943050375E+02  0.19425526509E+02  0.00000000000E+00 0. -1.
        -14    1    3    3    0    0  0.66765414744E+01 -0.64393120914E+02 -0.11540367962E+04  0.11558511917E+04  0.00000000000E+00 0.  1.
          5    1    4    4  501    0 -0.67925032607E+02  0.16710565129E+03 -0.23497395339E+02  0.18195523828E+03  0.41800000000E+01 0. -1.
         -5    1    4    4    0  501  0.67217130142E+01  0.24794159376E+02 -0.66926336348E+02  0.71809043037E+02  0.41800000000E+01 0. -1.
</event>
<event>
11    1  0.7882745E-009  0.1422477E+03  0.7561462E-02  0.1105074E+00
         22   -1    0    0    0    0  0.00000000000E+00  0.00000000000E+00  0.22069241432E+03  0.22069241432E+03  0.00000000000E+00 0.  1.
         22   -1    0    0    0    0 -0.00000000000E+00 -0.00000000000E+00 -0.11270218093E+04  0.11270218093E+04  0.00000000000E+00 0. -1.
        -24    2    1    2    0    0 -0.40803105696E+02  0.50439610272E+02 -0.42880993544E+03  0.44085093190E+03  0.79136184562E+02 0.  0.
         25    2    1    2    0    0  0.59904444466E+02 -0.41527968993E+02 -0.67307866463E+03  0.68847531285E+03  0.12510097104E+03 0.  0.
         24    2    1    2    0    0 -0.19101338771E+02 -0.89116412783E+01  0.19555920506E+03  0.21838797889E+03  0.94897988092E+02 0.  0.
        -11    1    5    5    0    0  0.30449044365E+02 -0.12087907104E+02  0.14040638295E+03  0.14417771733E+03  0.00000000000E+00 0.  1.
         12    1    5    5    0    0 -0.49550383136E+02  0.31762658261E+01  0.55152822117E+02  0.74210261561E+02  0.00000000000E+00 0. -1.
         11    1    3    3    0    0 -0.28298230297E+01  0.45413323251E+02 -0.35292900556E+03  0.35585005380E+03  0.00000000000E+00 0. -1.
        -12    1    3    3    0    0 -0.37973282666E+02  0.50262870205E+01 -0.75880929876E+02  0.85000878093E+02  0.00000000000E+00 0.  1.
          5    1    4    4  501    0  0.61453729983E+02  0.29169367631E+02 -0.23414153420E+03  0.24385885954E+03  0.41800000000E+01 0. -1.
         -5    1    4    4    0  501 -0.15492855162E+01 -0.70697336625E+02 -0.43893713043E+03  0.44461645332E+03  0.41800000000E+01 0. -1.
</event>
<event>
11    1  0.7882745E-009  0.2362264E+03  0.7561462E-02  0.1031504E+00
         22   -1    0    0    0    0  0.00000000000E+00  0.00000000000E+00  0.14632263793E+03  0.14632263793E+03  0.00000000000E+00 0.  1.
         22   -1    0    0    0    0 -0.00000000000E+00 -0.00000000000E+00 -0.83362759332E+03  0.83362759332E+03  0.00000000000E+00 0. -1.
         24    2    1    2    0    0 -0.86965805263E+02 -0.14220920623E+03 -0.21705729616E+03  0.28387127455E+03  0.75382498460E+02 0.  0.
         25    2    1    2    0    0  0.22087355952E+03 -0.21197898401E+02 -0.36610566506E+03  0.44600014778E+03  0.12509313985E+03 0.  0.
        -24    2    1    2    0    0 -0.13390775426E+03  0.16340710463E+03 -0.10414199416E+03  0.25007880893E+03  0.84027895557E+02 0.  0.
        -13    1    3    3    0    0 -0.35861422674E+02 -0.25570984708E+02 -0.18030449063E+02  0.47592163100E+02  0.00000000000E+00 0.  1.
         14    1    3    3    0    0 -0.51104382589E+02 -0.11663822152E+03 -0.19902684710E+03  0.23627911145E+03  0.00000000000E+00 0. -1.
         13    1    5    5    0    0 -0.32490324585E+02  0.23167296538E+02 -0.58987000995E+02  0.71216649085E+02  0.00000000000E+00 0. -1.
        -14    1    5    5    0    0 -0.10141742968E+03  0.14023980809E+03 -0.45154993170E+02  0.17886215984E+03  0.00000000000E+00 0.  1.
          5    1    4    4  501    0  0.86829961124E+02 -0.56080335671E+02 -0.22794287515E+03  0.25031954165E+03  0.41800000000E+01 0.  1.
         -5    1    4    4    0  501  0.13404359840E+03  0.34882437270E+02 -0.13816278991E+03  0.19568060614E+03  0.41800000000E+01 0.  1.
</event>
<event>
11    1  0.7882745E-009  0.2159835E+03  0.7561462E-02  0.1043763E+00
         22   -1    0    0    0    0  0.00000000000E+00  0.00000000000E+00  0.51653287845E+03  0.51653287845E+03  0.00000000000E+00 0.  1.
         22   -1    0    0    0    0 -0.00000000000E+00 -0.00000000000E+00 -0.28602064209E+03  0.28602064209E+03  0.00000000000E+00 0. -1.
         24    2    1    2    0    0 -0.18159422912E+02  0.14911895459E+03 -0.65442452165E+02  0.18221889343E+03  0.79716894813E+02 0.  0.
         25    2    1    2    0    0 -0.15012643024E+02 -0.22661578213E+03 -0.42072712117E+02  0.26267594481E+03  0.12509375170E+03 0.  0.
        -24    2    1    2    0    0  0.33172065935E+02  0.77496827547E+02  0.33802740064E+03  0.35765868230E+03  0.80938650854E+02 0.  0.
        -11    1    3    3    0    0 -0.67080551376E+01 -0.23693185844E+01  0.10257322073E+02  0.12482961603E+02  0.00000000000E+00 0.  1.
         12    1    3    3    0    0 -0.11451367774E+02  0.15148827317E+03 -0.75699774237E+02  0.16973593182E+03  0.00000000000E+00 0. -1.
         13    1    5    5    0    0 -0.15277288708E+01 -0.14375807330E+02  0.19106806945E+02  0.23959713344E+02  0.00000000000E+00 0. -1.
        -14    1    5    5    0    0  0.34699794806E+02  0.91872634877E+02  0.31892059370E+03  0.33369896896E+03  0.00000000000E+00 0.  1.
          5    1    4    4  501    0  0.42802037305E+02 -0.17183269812E+03 -0.12357525893E+02  0.17756314760E+03  0.41800000000E+01 0.  1.
         -5    1    4    4    0  501 -0.57814680329E+02 -0.54783084013E+02 -0.29715186224E+02  0.85112797203E+02  0.41800000000E+01 0.  1.
</event>
<event>
11    1  0.7882745E-009  0.1392831E+03  0.7561462E-02  0.1108362E+00
         22   -1    0    0    0    0  0.00000000000E+00  0.00000000000E+00  0.37781982480E+03  0.37781982480E+03  0.00000000000E+00 0. -1.
         22   -1    0    0    0    0 -0.00000000000E+00 -0.00000000000E+00 -0.12239101338E+04  0.12239101338E+04  0.00000000000E+00 0.  1.
         24    2    1    2    0    0 -0.34648447324E+02  0.52505644786E+02 -0.99412817306E+03  0.99933695998E+03  0.80163442211E+02 0.  0.
         25    2    1    2    0    0  0.67803946339E+02 -0.84627185911E+01 -0.19713345262E+03  0.24326502674E+03  0.12508909763E+03 0.  0.
        -24    2    1    2    0    0 -0.33155499015E+02 -0.44042926195E+02  0.34517131673E+03  0.35912797185E+03  0.82405071491E+02 0.  0.
        -11    1    3    3    0    0 -0.75111029951E+01  0.39599694716E+02 -0.89122434699E+03  0.89213529756E+03  0.00000000000E+00 0.  1.
         12    1    3    3    0    0 -0.27137344329E+02  0.12905950071E+02 -0.10290382607E+03  0.10720166242E+03  0.00000000000E+00 0. -1.
         13    1    5    5    0    0 -0.29714896751E+02 -0.24161112444E+02  0.33375445433E+03  0.33594459399E+03  0.00000000000E+00 0. -1.
        -14    1    5    5    0    0 -0.34406022643E+01 -0.19881813751E+02  0.11416862399E+02  0.23183377860E+02  0.00000000000E+00 0.  1.
          5    1    4    4  501    0  0.21867433766E+02 -0.65248951440E+02 -0.86189215119E+02  0.11037057364E+03  0.41800000000E+01 0.  1.
         -5    1    4    4    0  501  0.45936512573E+02  0.56786232849E+02 -0.11094423750E+03  0.13289445309E+03  0.41800000000E+01 0.  1.
</event>
<event>
11    1  0.7882745E-009  0.1518633E+03  0.7561462E-02  0.1094990E+00
         22   -1    0    0    0    0  0.00000000000E+00  0.00000000000E+00  0.52411433417E+03  0.52411433417E+03  0.00000000000E+00 0. -1.
         22   -1    0    0    0    0 -0.00000000000E+00 -0.00000000000E+00 -0.27263999883E+03  0.27263999883E+03  0.00000000000E+00 0.  1.
         24    2    1    2    0    0  0.46223782263E+00  0.87014939249E+02 -0.22400288998E+03  0.25236796326E+03  0.77074514883E+02 0.  0.
         25    2    1    2    0    0  0.56828653263E+02 -0.70391731576E+02  0.20679296507E+03  0.25806226782E+03  0.12509321309E+03 0.  0.
        -24    2    1    2    0    0 -0.57290891085E+02 -0.16623207673E+02  0.26868426025E+03  0.28632410192E+03  0.78941005824E+02 0.  0.
        -11    1    3    3    0    0 -0.17446869863E+02  0.93758238311E+02 -0.20076502708E+03  0.22226469944E+03  0.00000000000E+00 0.  1.
         12    1    3    3    0    0  0.17909107686E+02 -0.67432990624E+01 -0.23237862895E+02  0.30103263815E+02  0.00000000000E+00 0. -1.
         11    1    5    5    0    0 -0.67225208847E+02 -0.31408679333E+02  0.16228034940E+03  0.17843947333E+03  0.00000000000E+00 0. -1.
        -12    1    5    5    0    0  0.99343177613E+01  0.14785471660E+02  0.10640391085E+03  0.10788462859E+03  0.00000000000E+00 0.  1.
          5    1    4    4  501    0 -0.36875602188E+02 -0.40369446105E+02  0.88826612469E+02  0.10438937541E+03  0.41800000000E+01 0. -1.
         -5    1    4    4    0  501  0.93704255451E+02 -0.30022285471E+02  0.11796635260E+03  0.15367289241E+03  0.41800000000E+01 0. -1.
</event>
<event>
11    1  0.7882745E-009  0.1293549E+03  0.7561462E-02  0.1120064E+00
         22   -1    0    0    0    0  0.00000000000E+00  0.00000000000E+00  0.33581491536E+02  0.33581491536E+02  0.00000000000E+00 0.  1.
         22   -1    0    0    0    0 -0.00000000000E+00 -0.00000000000E+00 -0.19370387859E+04  0.19370387859E+04  0.00000000000E+00 0. -1.
         24    2    1    2    0    0 -0.33763168618E+02  0.13458551655E+02 -0.12785310304E+04  0.12816258270E+04  0.81253188413E+02 0.  0.
         25    2    1    2    0    0  0.54196250005E+01 -0.28766207007E+02 -0.57613120073E+03  0.59028106759E+03  0.12509081219E+03 0.  0.
        -24    2    1    2    0    0  0.28343543618E+02  0.15307655352E+02 -0.48795063212E+02  0.98713382807E+02  0.79534225175E+02 0.  0.
        -11    1    3    3    0    0 -0.31411143319E+02 -0.28718707943E+02 -0.44673099001E+03  0.44875383179E+03  0.00000000000E+00 0.  1.
         12    1    3    3    0    0 -0.23520252998E+01  0.42177259598E+02 -0.83180004036E+03  0.83287199521E+03  0.00000000000E+00 0. -1.
         13    1    5    5    0    0  0.25659478800E+02  0.44660404935E+02 -0.46084194079E+02  0.69113772616E+02  0.00000000000E+00 0. -1.
        -14    1    5    5    0    0  0.26840648175E+01 -0.29352749583E+02 -0.27108691322E+01  0.29599610191E+02  0.00000000000E+00 0.  1.
          5    1    4    4  501    0 -0.47246067986E+02 -0.43490458259E+02 -0.19804257818E+03  0.20823531418E+03  0.41800000000E+01 0.  1.
         -5    1    4    4    0  501  0.52665692987E+02  0.14724251251E+02 -0.37808862255E+03  0.38204575341E+03  0.41800000000E+01 0.  1.
</event>
<event>
11    1  0.7882745E-009  0.1348698E+03  0.7561462E-02  0.1113426E+00
         22   -1    0    0    0    0  0.00000000000E+00  0.00000000000E+00  0.18391648213E+03  0.18391648213E+03  0.00000000000E+00 0.  1.
         22   -1    0    0    0    0 -0.00000000000E+00 -0.00000000000E+00 -0.24350422621E+04  0.24350422621E+04  0.00000000000E+00 0. -1.
        -24    2    1    2    0    0  0.22879094412E+02  0.18768119323E+01 -0.23041429938E+04  0.23057000128E+04  0.81551442602E+02 0.  0.
         25    2    1    2    0    0 -0.70467124801E+02 -0.33784569794E+01 -0.69010913637E+02  0.15933305166E+03  0.12508990967E+03 0.  0.
         24    2    1    2    0    0  0.47588030389E+02  0.15016450471E+01  0.12202812750E+03  0.15392567973E+03  0.80841668744E+02 0.  0.
        -11    1    5    5    0    0  0.27389328899E+02 -0.33024629796E+02  0.98694238142E+02  0.10761670016E+03  0.00000000000E+00 0.  1.
         12    1    5    5    0    0  0.20198701490E+02  0.34526274843E+02  0.23333889357E+02  0.46308979571E+02  0.00000000000E+00 0. -1.
         11    1    3    3    0    0  0.16001496819E+02 -0.22405911215E+02 -0.20730745344E+04  0.20732573642E+04  0.00000000000E+00 0. -1.
        -12    1    3    3    0    0  0.68775975931E+01  0.24282723148E+02 -0.23106845942E+03  0.23244264869E+03  0.00000000000E+00 0.  1.
          5    1    4    4  501    0  0.60391449809E+01 -0.47964741291E+02 -0.47946306800E+02  0.68215895618E+02  0.41800000000E+01 0. -1.
         -5    1    4    4    0  501 -0.76506269782E+02  0.44586284312E+02 -0.21064606837E+02  0.91117156045E+02  0.41800000000E+01 0. -1.
</event>
<event>
11    1  0.7882745E-009  0.1360302E+03  0.7561462E-02  0.1112074E+00
         22   -1    0    0    0    0  0.00000000000E+00  0.00000000000E+00  0.67325518974E+03  0.67325518974E+03  0.00000000000E+00 0. -1.
         22   -1    0    0    0    0 -0.00000000000E+00 -0.00000000000E+00 -0.12616652253E+04  0.12616652253E+04  0.00000000000E+00 0. -1.
         24    2    1    2    0    0 -0.32502657233E+02 -0.43845950240E+02 -0.12089124680E+04  0.12128854865E+04  0.81504343329E+02 0.  0.
         25    2    1    2    0    0 -0.25236964617E+01  0.91557020846E+01  0.36724138877E+02  0.13071404860E+03  0.12508918499E+03 0.  0.
        -24    2    1    2    0    0  0.35026353694E+02  0.34690248156E+02  0.58377829360E+03  0.59132087991E+03  0.80206160390E+02 0.  0.
        -11    1    3    3    0    0  0.17380835220E+02 -0.33228972650E+02 -0.27035661740E+03  0.27294497363E+03  0.00000000000E+00 0.  1.
         12    1    3    3    0    0 -0.49883492453E+02 -0.10616977590E+02 -0.93855585059E+03  0.93994051286E+03  0.00000000000E+00 0. -1.
         11    1    5    5    0    0  0.10418377661E+02  0.15627327823E+02  0.52012561000E+03  0.52046460604E+03  0.00000000000E+00 0. -1.
        -12    1    5    5    0    0  0.24607976034E+02  0.19062920332E+02  0.63652683606E+02  0.70856273867E+02  0.00000000000E+00 0.  1.
          5    1    4    4  501    0 -0.53962214612E+02 -0.22835966254E+02  0.38031430513E+02  0.69980454896E+02  0.41800000000E+01 0.  1.
         -5    1    4    4    0  501  0.51438518150E+02  0.31991668339E+02 -0.13072916355E+01  0.60733593702E+02  0.41800000000E+01 0.  1.
</event>
<event>
11    1  0.7882745E-009  0.1850453E+03  0.7561462E-02  0.1065633E+00
         22   -1    0    0    0    0  0.00000000000E+00  0.00000000000E+00  0.52959281932E+03  0.52959281932E+03  0.00000000000E+00 0. -1.
         22   -1    0    0    0    0 -0.00000000000E+00 -0.00000000000E+00 -0.25547056063E+04  0.25547056063E+04  0.00000000000E+00 0. -1.
         24    2    1    2    0    0 -0.59241194336E+02  0.15661622658E+02 -0.24474124008E+04  0.24494467782E+04  0.78786129790E+02 0.  0.
         25    2    1    2    0    0 -0.74810769891E+02 -0.65980663423E+02 -0.21679215503E+02  0.16145590325E+03  0.12509165069E+03 0.  0.
        -24    2    1    2    0    0  0.13405196423E+03  0.50319040765E+02  0.44397882930E+03  0.47339574415E+03  0.80525739574E+02 0.  0.
        -11    1    3    3    0    0 -0.11377712434E+02 -0.33599556803E+01 -0.46744574087E+02  0.48226516036E+02  0.00000000000E+00 0.  1.
         12    1    3    3    0    0 -0.47863481902E+02  0.19021578339E+02 -0.24006678267E+04  0.24012202622E+04  0.00000000000E+00 0. -1.
         11    1    5    5    0    0  0.43386586547E+02  0.43828947483E+02  0.27166175935E+03  0.27857401893E+03  0.00000000000E+00 0. -1.
        -12    1    5    5    0    0  0.90665377681E+02  0.64900932818E+01  0.17231706996E+03  0.19482172522E+03  0.00000000000E+00 0.  1.
          5    1    4    4  501    0 -0.29669145934E+02  0.49432737834E+01  0.44850229105E+02  0.54163729810E+02  0.41800000000E+01 0. -1.
         -5    1    4    4    0  501 -0.45141623957E+02 -0.70923937207E+02 -0.66529444608E+02  0.10729217344E+03  0.41800000000E+01 0. -1.
</event>
<event>
11    1  0.7882745E-009  0.2074579E+03  0.7561462E-02  0.1049372E+00
         22   -1    0    0    0    0  0.00000000000E+00  0.00000000000E+00  0.18538963162E+04  0.18538963162E+04  0.00000000000E+00 0.  1.
         22   -1    0    0    0    0 -0.00000000000E+00 -0.00000000000E+00 -0.42705368137E+03  0.42705368137E+03  0.00000000000E+00 0.  1.
         24    2    1    2    0    0  0.51450898925E-01 -0.95670955875E+02 -0.35708266527E+03  0.38021091160E+03  0.88878417055E+02 0.  0.
         25    2    1    2    0    0 -0.15597220331E+03  0.14250063752E+03  0.23056631050E+03  0.33681152853E+03  0.12508965710E+03 0.  0.
        -24    2    1    2    0    0  0.15592075241E+03 -0.46829681649E+02  0.15533589896E+04  0.15639275574E+04  0.80255555943E+02 0.  0.
        -13    1    3    3    0    0  0.37734717930E+01 -0.10589402393E+03 -0.23666914648E+03  0.25930689980E+03  0.00000000000E+00 0.  1.
         14    1    3    3    0    0 -0.37220208940E+01  0.10223068051E+02 -0.12041351879E+03  0.12090401179E+03  0.00000000000E+00 0. -1.
         11    1    5    5    0    0  0.12781812375E+02  0.19287368005E+02  0.24924269852E+03  0.25031440242E+03  0.00000000000E+00 0. -1.
        -12    1    5    5    0    0  0.14313894004E+03 -0.66117049654E+02  0.13041162910E+04  0.13136131550E+04  0.00000000000E+00 0.  1.
          5    1    4    4  501    0 -0.94172429464E+02  0.11173086198E+03  0.70198136663E+02  0.16216498630E+03  0.41800000000E+01 0. -1.
         -5    1    4    4    0  501 -0.61799773849E+02  0.30769775542E+02  0.16036817384E+03  0.17464654224E+03  0.41800000000E+01 0. -1.
</event>
<event>
11    1  0.7882745E-009  0.1573152E+03  0.7561462E-02  0.1089630E+00
         22   -1    0    0    0    0  0.00000000000E+00  0.00000000000E+00  0.83819612786E+03  0.83819612786E+03  0.00000000000E+00 0.  1.
         22   -1    0    0    0    0 -0.00000000000E+00 -0.00000000000E+00 -0.40497034956E+03  0.40497034956E+03  0.00000000000E+00 0.  1.
         24    2    1    2    0    0  0.42001577402E+02  0.86756982877E+02 -0.33635190323E+03  0.36163332774E+03  0.91406533364E+02 0.  0.
         25    2    1    2    0    0 -0.71793008196E+02 -0.60362579951E+02  0.61884554658E+02  0.16815135906E+03  0.12508918564E+03 0.  0.
        -24    2    1    2    0    0  0.29791430793E+02 -0.26394402926E+02  0.70769312686E+03  0.71338179063E+03  0.80621483089E+02 0.  0.
        -13    1    3    3    0    0  0.13433863071E+02  0.79301337478E+02 -0.31523533610E+03  0.32533442475E+03  0.00000000000E+00 0.  1.
         14    1    3    3    0    0  0.28567714332E+02  0.74556453992E+01 -0.21116567126E+02  0.36298902981E+02  0.00000000000E+00 0. -1.
         13    1    5    5    0    0  0.29511913097E+02  0.18783351095E+02  0.15756505451E+03  0.16140171528E+03  0.00000000000E+00 0. -1.
        -14    1    5    5    0    0  0.27951769675E+00 -0.45177754021E+02  0.55012807236E+03  0.55198007535E+03  0.00000000000E+00 0.  1.
          5    1    4    4  501    0 -0.51391378937E+02 -0.72817078521E+02 -0.12328984136E+02  0.90071510497E+02  0.41800000000E+01 0.  1.
         -5    1    4    4    0  501 -0.20401629259E+02  0.12454498570E+02  0.74213538794E+02  0.78079848561E+02  0.41800000000E+01 0.  1.
</event>
<event>
11    1  0.7882745E-009  0.1666721E+03  0.7561462E-02  0.1080965E+00
         22   -1    0    0    0    0  0.00000000000E+00  0.00000000000E+00  0.26223154984E+03  0.26223154984E+03  0.00000000000E+00 0.  1.
         22   -1    0    0    0    0 -0.00000000000E+00 -0.00000000000E+00 -0.68210104101E+03  0.68210104101E+03  0.00000000000E+00 0. -1.
         24    2    1    2    0    0  0.42578526842E+02  0.23036655925E+02 -0.32818978727E+03  0.34148212883E+03  0.80980796356E+02 0.  0.
         25    2    1    2    0    0  0.32183455212E+02  0.61688725809E+02 -0.30971847131E+03  0.34119550344E+03  0.12509023312E+03 0.  0.
        -24    2    1    2    0    0 -0.74761982054E+02 -0.84725381734E+02  0.21803876740E+03  0.26165495857E+03  0.90303205843E+02 0.  0.
        -13    1    3    3    0    0 -0.22938106208E+01  0.28208336203E+02 -0.24664055427E+03  0.24825900751E+03  0.00000000000E+00 0.  1.
         14    1    3    3    0    0  0.44872337463E+02 -0.51716802783E+01 -0.81549233002E+02  0.93223121324E+02  0.00000000000E+00 0. -1.
         11    1    5    5    0    0 -0.44974129099E+02 -0.19564770675E+02  0.23584054674E+02  0.54421137205E+02  0.00000000000E+00 0. -1.
        -12    1    5    5    0    0 -0.29787852955E+02 -0.65160611059E+02  0.19445471273E+03  0.20723382137E+03  0.00000000000E+00 0.  1.
          5    1    4    4  501    0 -0.32193232381E+02 -0.13631242251E+02 -0.37326974425E+02  0.51312672861E+02  0.41800000000E+01 0.  1.
         -5    1    4    4    0  501  0.64376687593E+02  0.75319968061E+02 -0.27239149688E+03  0.28988283058E+03  0.41800000000E+01 0.  1.
</event>
<event>
11    1  0.7882745E-009  0.2018111E+03  0.7561462E-02  0.1053250E+00
         22   -1    0    0    0    0  0.00000000000E+00  0.00000000000E+00  0.59201052095E+03  0.59201052095E+03  0.00000000000E+00 0.  1.
         22   -1    0    0    0    0 -0.00000000000E+00 -0.00000000000E+00 -0.35585503935E+03  0.35585503935E+03  0.00000000000E+00 0.  1.
        -24    2    1    2    0    0  0.46280460602E+02  0.14632279399E+03 -0.24638900540E+03  0.30544231759E+03  0.95053807500E+02 0.  0.
         25    2    1    2    0    0 -0.91285758473E+02 -0.16713134135E+03  0.10145338420E+03  0.24941098671E+03  0.12508827349E+03 0.  0.
         24    2    1    2    0    0  0.45005297871E+02  0.20808547361E+02  0.38109110279E+03  0.39301225599E+03  0.82278382640E+02 0.  0.
        -11    1    5    5    0    0  0.34509760884E+02  0.51297044819E+02  0.21010430503E+03  0.21901171063E+03  0.00000000000E+00 0.  1.
         12    1    5    5    0    0  0.10495536987E+02 -0.30488497458E+02  0.17098679777E+03  0.17400054536E+03  0.00000000000E+00 0. -1.
         11    1    3    3    0    0  0.32979488601E+02  0.30903306881E+02 -0.16961048475E+02  0.48273576726E+02  0.00000000000E+00 0. -1.
        -12    1    3    3    0    0  0.13300972001E+02  0.11541948711E+03 -0.22942795692E+03  0.25716874087E+03  0.00000000000E+00 0.  1.
          5    1    4    4  501    0 -0.29770629841E+02 -0.83006747150E+02  0.11418864378E+03  0.14433616748E+03  0.41800000000E+01 0.  1.
         -5    1    4    4    0  501 -0.61515128632E+02 -0.84124594200E+02 -0.12735259578E+02  0.10507481923E+03  0.41800000000E+01 0.  1.
</event>
<event>
11    1  0.7882745E-009  0.1366409E+03  0.7561462E-02  0.1111368E+00
         22   -1    0    0    0    0  0.00000000000E+00  0.00000000000E+00  0.41755621362E+03  0.41755621362E+03  0.00000000000E+00 0. -1.
         22   -1    0    0    0    0 -0.00000000000E+00 -0.00000000000E+00 -0.10883660737E+04  0.10883660737E+04  0.00000000000E+00 0.  1.
         24    2    1    2    0    0 -0.53436342953E+02  0.23085328596E+02 -0.75463989095E+03  0.76255327084E+03  0.92831841062E+02 0.  0.
         25    2    1    2    0    0  0.20225169904E+02 -0.53714644394E+02 -0.30992205290E+03  0.33910319595E+03  0.12507988691E+03 0.  0.
        -24    2    1    2    0    0  0.33211173049E+02  0.30629315798E+02  0.39375208373E+03  0.40426582058E+03  0.79680695553E+02 0.  0.
        -13    1    3    3    0    0  0.50145504908E+01  0.30323836505E+02 -0.50992708116E+03  0.51085253143E+03  0.00000000000E+00 0.  1.
         14    1    3    3    0    0 -0.58450893444E+02 -0.72385079090E+01 -0.24471280979E+03  0.25170073940E+03  0.00000000000E+00 0. -1.
         11    1    5    5    0    0  0.53088217360E+02  0.84508004391E+00  0.28073572891E+03  0.28571248217E+03  0.00000000000E+00 0. -1.
        -12    1    5    5    0    0 -0.19877044311E+02  0.29784235754E+02  0.11301635482E+03  0.11855333840E+03  0.00000000000E+00 0.  1.
          5    1    4    4  501    0 -0.32348595345E+02  0.10391524353E+02 -0.19118394859E+03  0.19422458649E+03  0.41800000000E+01 0.  1.
         -5    1    4    4    0  501  0.52573765249E+02 -0.64106168747E+02 -0.11873810431E+03  0.14487860946E+03  0.41800000000E+01 0.  1.
</event>
<event>
11    1  0.7882745E-009  0.1762075E+03  0.7561462E-02  0.1072753E+00
         22   -1    0    0    0    0  0.00000000000E+00  0.00000000000E+00  0.61750350050E+03  0.61750350050E+03  0.00000000000E+00 0.  1.
         22   -1    0    0    0    0 -0.00000000000E+00 -0.00000000000E+00 -0.50413782192E+03  0.50413782192E+03  0.00000000000E+00 0.  1.
        -24    2    1    2    0    0 -0.10600379353E+03 -0.57872742480E+02 -0.36052429133E+03  0.38845255054E+03  0.79571105378E+02 0.  0.
         25    2    1    2    0    0  0.10296406503E+03  0.10480682339E+03 -0.51513559805E+02  0.19971962776E+03  0.12509282135E+03 0.  0.
         24    2    1    2    0    0  0.30397284991E+01 -0.46934080906E+02  0.52540352972E+03  0.53346914412E+03  0.79551309156E+02 0.  0.
        -13    1    5    5    0    0  0.31687002146E+02 -0.52751166087E+02  0.39985466571E+03  0.40456211552E+03  0.00000000000E+00 0.  1.
         14    1    5    5    0    0 -0.28647273647E+02  0.58170851811E+01  0.12554886401E+03  0.12890702860E+03  0.00000000000E+00 0. -1.
         11    1    3    3    0    0 -0.89473865626E+02 -0.15453883182E+02 -0.17184047344E+03  0.19435417014E+03  0.00000000000E+00 0. -1.
        -12    1    3    3    0    0 -0.16529927904E+02 -0.42418859298E+02 -0.18868381789E+03  0.19409838040E+03  0.00000000000E+00 0.  1.
          5    1    4    4  501    0  0.29981178548E+02 -0.27339396629E+02 -0.20081010201E+02  0.45464635112E+02  0.41800000000E+01 0. -1.
         -5    1    4    4    0  501  0.72982886482E+02  0.13214622001E+03 -0.31432549605E+02  0.15425499265E+03  0.41800000000E+01 0. -1.
</event>
<event>
11    1  0.7882745E-009  0.1319165E+03  0.7561462E-02  0.1116936E+00
         22   -1    0    0    0    0  0.00000000000E+00  0.00000000000E+00  0.45752730673E+03  0.45752730673E+03  0.00000000000E+00 0.  1.
         22   -1    0    0    0    0 -0.00000000000E+00 -0.00000000000E+00 -0.11478583027E+03  0.11478583027E+03  0.00000000000E+00 0.  1.
         24    2    1    2    0    0  0.70810727426E+01  0.52236589385E+01 -0.54630753884E+02  0.97566296486E+02  0.80356920898E+02 0.  0.
         25    2    1    2    0    0 -0.40816017696E+02  0.18731733435E+02  0.10721318554E+03  0.17075834170E+03  0.12508764514E+03 0.  0.
        -24    2    1    2    0    0  0.33734944953E+02 -0.23955392374E+02  0.29015904480E+03  0.30398849882E+03  0.80652518860E+02 0.  0.
        -13    1    3    3    0    0  0.20666500593E+02 -0.13201473498E+02 -0.67140639685E+02  0.71479008433E+02  0.00000000000E+00 0.  1.
         14    1    3    3    0    0 -0.13585427850E+02  0.18425132437E+02  0.12509885801E+02  0.26087288053E+02  0.00000000000E+00 0. -1.
         13    1    5    5    0    0  0.52487760736E+02 -0.26059531943E+02  0.12849542668E+03  0.14122725979E+03  0.00000000000E+00 0. -1.
        -14    1    5    5    0    0 -0.18752815783E+02  0.21041395693E+01  0.16166361813E+03  0.16276123903E+03  0.00000000000E+00 0.  1.
          5    1    4    4  501    0  0.30964731019E+02  0.46153276844E+02  0.49865506329E+02  0.74786233038E+02  0.41800000000E+01 0. -1.
         -5    1    4    4    0  501 -0.71780748715E+02 -0.27421543409E+02  0.57347679214E+02  0.95972108658E+02  0.41800000000E+01 0. -1.
</event>
<event>
11    1  0.7882745E-009  0.1657315E+03  0.7561462E-02  0.1081807E+00
         22   -1    0    0    0    0  0.00000000000E+00  0.00000000000E+00  0.12181335995E+04  0.12181335995E+04  0.00000000000E+00 0. -1.
         22   -1    0    0    0    0 -0.00000000000E+00 -0.00000000000E+00 -0.28657609176E+03  0.28657609176E+03  0.00000000000E+00 0. -1.
        -24    2    1    2    0    0 -0.79557155890E+02  0.73811905802E+02 -0.24572418663E+03  0.28048664201E+03  0.80714570928E+02 0.  0.
         25    2    1    2    0    0  0.10292938564E+03 -0.54147991792E+02  0.31845961466E+03  0.36137304104E+03  0.12508990837E+03 0.  0.
         24    2    1    2    0    0 -0.23372229751E+02 -0.19663914010E+02  0.85882207975E+03  0.86285000826E+03  0.77471552594E+02 0.  0.
        -13    1    5    5    0    0  0.63293107380E+01  0.14353018205E+02  0.42880148086E+02  0.45659351790E+02  0.00000000000E+00 0.  1.
         14    1    5    5    0    0 -0.29701540489E+02 -0.34016932215E+02  0.81594193166E+03  0.81719065647E+03  0.00000000000E+00 0. -1.
         11    1    3    3    0    0 -0.67561623535E+02  0.62652885853E+02 -0.10874956990E+03  0.14253570091E+03  0.00000000000E+00 0. -1.
        -12    1    3    3    0    0 -0.11995532356E+02  0.11159019950E+02 -0.13697461673E+03  0.13795094110E+03  0.00000000000E+00 0.  1.
          5    1    4    4  501    0 -0.28184245960E+02  0.87281837058E+00  0.56356516668E+02  0.63155703648E+02  0.41800000000E+01 0.  1.
         -5    1    4    4    0  501  0.13111363160E+03 -0.55020810162E+02  0.26210309799E+03  0.29821733739E+03  0.41800000000E+01 0.  1.
</event>
<event>
11    1  0.7882745E-009  0.1761795E+03  0.7561462E-02  0.1072776E+00
         22   -1    0    0    0    0  0.00000000000E+00  0.00000000000E+00  0.32501677222E+03  0.32501677222E+03  0.00000000000E+00 0. -1.
         22   -1    0    0    0    0 -0.00000000000E+00 -0.00000000000E+00 -0.31739612780E+03  0.31739612780E+03  0.00000000000E+00 0.  1.
         24    2    1    2    0    0 -0.12924498379E+02 -0.33693696945E+02 -0.89906332742E+02  0.12579932633E+03  0.80249697605E+02 0.  0.
         25    2    1    2    0    0  0.89200768794E+02 -0.66558585862E+02 -0.15079457065E+03  0.22532914729E+03  0.12508956622E+03 0.  0.
        -24    2    1    2    0    0 -0.76276270415E+02  0.10025228281E+03  0.24832154781E+03  0.29128442639E+03  0.85524477861E+02 0.  0.
        -13    1    3    3    0    0 -0.17943481508E+02 -0.51646771352E+02 -0.92020916709E+02  0.10703834188E+03  0.00000000000E+00 0.  1.
         14    1    3    3    0    0  0.50189831292E+01  0.17953074407E+02  0.21145839671E+01  0.18760984453E+02  0.00000000000E+00 0. -1.
         11    1    5    5    0    0 -0.28939329652E+02  0.87754669683E+02  0.10519351929E+03  0.14001443980E+03  0.00000000000E+00 0. -1.
        -12    1    5    5    0    0 -0.47336940763E+02  0.12497613125E+02  0.14312802852E+03  0.15126998659E+03  0.00000000000E+00 0.  1.
          5    1    4    4  501    0  0.10901213498E+03 -0.68870812039E+02 -0.15775746876E+03  0.20379334060E+03  0.41800000000E+01 0.  1.
         -5    1    4    4    0  501 -0.19811366185E+02  0.23122261763E+01  0.69628981044E+01  0.21535806696E+02  0.41800000000E+01 0.  1.
</event>
<event>
11    1  0.7882745E-009  0.1274373E+03  0.7561462E-02  0.1122458E+00
         22   -1    0    0    0    0  0.00000000000E+00  0.00000000000E+00  0.19645265708E+04  0.19645265708E+04  0.00000000000E+00 0.  1.
         22   -1    0    0    0    0 -0.00000000000E+00 -0.00000000000E+00 -0.13903892144E+03  0.13903892144E+03  0.00000000000E+00 0.  1.
        -24    2    1    2    0    0  0.12918822763E+02 -0.23660175981E+02 -0.78509171072E+02  0.11456624441E+03  0.78962234683E+02 0.  0.
         25    2    1    2    0    0 -0.36912384245E+02  0.21801486046E+02  0.63742850715E+02  0.14679755836E+03  0.12509413743E+03 0.  0.
         24    2    1    2    0    0  0.23993561482E+02  0.18586899342E+01  0.18402539697E+04  0.18422016894E+04  0.81198804795E+02 0.  0.
        -11    1    5    5    0    0  0.32778662652E+02  0.34853975771E+02  0.12918950352E+04  0.12927807325E+04  0.00000000000E+00 0.  1.
         12    1    5    5    0    0 -0.87851011703E+01 -0.32995285837E+02  0.54835893454E+03  0.54942095699E+03  0.00000000000E+00 0. -1.
         13    1    3    3    0    0 -0.11460934135E+02 -0.21515584449E+02  0.72100920420E+01  0.25421620969E+02  0.00000000000E+00 0. -1.
        -14    1    3    3    0    0  0.24379756897E+02 -0.21445915316E+01 -0.85719263114E+02  0.89144623439E+02  0.00000000000E+00 0.  1.
          5    1    4    4  501    0 -0.43506859832E+02 -0.44839903681E+02  0.16555362011E+02  0.64768944919E+02  0.41800000000E+01 0.  1.
         -5    1    4    4    0  501  0.65944755875E+01  0.66641389727E+02  0.47187488703E+02  0.82028613442E+02  0.41800000000E+01 0.  1.
</event>
<event>
11    1  0.7882745E-009  0.8803863E+03  0.7561462E-02  0.8801928E-01
         22   -1    0    0    0    0  0.00000000000E+00  0.00000000000E+00  0.11341600506E+04  0.11341600506E+04  0.00000000000E+00 0. -1.
         22   -1    0    0    0    0 -0.00000000000E+00 -0.00000000000E+00 -0.18803254872E+04  0.18803254872E+04  0.00000000000E+00 0. -1.
         24    2    1    2    0    0  0.72191922048E+03 -0.52289993673E+03 -0.13300433106E+04  0.16031462639E+04  0.80442716695E+02 0.  0.
         25    2    1    2    0    0 -0.63472148092E+03  0.50592495376E+03  0.62089350566E+01  0.82129055044E+03  0.12509276637E+03 0.  0.
        -24    2    1    2    0    0 -0.87197739564E+02  0.16974982971E+02  0.57766893889E+03  0.59004872349E+03  0.81021585385E+02 0.  0.
        -11    1    3    3    0    0  0.22371163849E+03 -0.12059396860E+03 -0.40276805083E+03  0.47624773514E+03  0.00000000000E+00 0.  1.
         12    1    3    3    0    0  0.49820758199E+03 -0.40230596813E+03 -0.92727525974E+03  0.11268985287E+04  0.00000000000E+00 0. -1.
         11    1    5    5    0    0 -0.91515595313E+02 -0.95986568519E+01  0.47981909622E+03  0.48856279381E+03  0.00000000000E+00 0. -1.
        -12    1    5    5    0    0  0.43178557490E+01  0.26573639823E+02  0.97849842680E+02  0.10148592969E+03  0.00000000000E+00 0.  1.
          5    1    4    4  501    0 -0.95924354836E+02  0.26743794836E+02 -0.89050519670E+01  0.10006740110E+03  0.41800000000E+01 0. -1.
         -5    1    4    4    0  501 -0.53879712608E+03  0.47918115892E+03  0.15113987024E+02  0.72122314934E+03  0.41800000000E+01 0. -1.
</event>
<event>
11    1  0.7882745E-009  0.1831076E+03  0.7561462E-02  0.1067156E+00
         22   -1    0    0    0    0  0.00000000000E+00  0.00000000000E+00  0.17023717499E+04  0.17023717499E+04  0.00000000000E+00 0. -1.
         22   -1    0    0    0    0 -0.00000000000E+00 -0.00000000000E+00 -0.12171670740E+04  0.12171670740E+04  0.00000000000E+00 0. -1.
         24    2    1    2    0    0  0.52623574716E+02 -0.66478508000E+02 -0.10118439332E+04  0.10184373668E+04  0.78726692945E+02 0.  0.
         25    2    1    2    0    0 -0.15103880716E+03 -0.24207123858E+02 -0.14916749442E+03  0.24758224278E+03  0.12508924589E+03 0.  0.
        -24    2    1    2    0    0  0.98415232442E+02  0.90685631858E+02  0.16462161035E+04  0.16535192144E+04  0.78669504681E+02 0.  0.
        -11    1    3    3    0    0  0.50480285604E+02 -0.48706337910E+02 -0.38501833338E+03  0.39135621067E+03  0.00000000000E+00 0.  1.
         12    1    3    3    0    0  0.21432891121E+01 -0.17772170090E+02 -0.62682559984E+03  0.62708115609E+03  0.00000000000E+00 0. -1.
         13    1    5    5    0    0  0.11036702662E+03  0.88097352099E+02  0.14294627341E+04  0.14364211542E+04  0.00000000000E+00 0. -1.
        -14    1    5    5    0    0 -0.11951794183E+02  0.25882797600E+01  0.21675336942E+03  0.21709806018E+03  0.00000000000E+00 0.  1.
          5    1    4    4  501    0 -0.95048456525E+02 -0.72732678402E+02 -0.68464480759E+02  0.13794603699E+03  0.41800000000E+01 0. -1.
         -5    1    4    4    0  501 -0.55990350633E+02  0.48525554544E+02 -0.80703013657E+02  0.10963620579E+03  0.41800000000E+01 0. -1.
</event>
<event>
11    1  0.7882745E-009  0.1883114E+03  0.7561462E-02  0.1063111E+00
         22   -1    0    0    0    0  0.00000000000E+00  0.00000000000E+00  0.70487465173E+03  0.70487465173E+03  0.00000000000E+00 0. -1.
         22   -1    0    0    0    0 -0.00000000000E+00 -0.00000000000E+00 -0.11231658154E+03  0.11231658154E+03  0.00000000000E+00 0.  1.
         24    2    1    2    0    0  0.74184000975E+02 -0.52724708328E+02  0.77455918676E+02  0.14367778388E+03  0.79754155841E+02 0.  0.
         25    2    1    2    0    0 -0.75121855565E+02 -0.97482349268E+02  0.56942573414E+02  0.18447796703E+03  0.12507422616E+03 0.  0.
        -24    2    1    2    0    0  0.93785459050E+00  0.15020705760E+03  0.45815957809E+03  0.48903548236E+03  0.81746341133E+02 0.  0.
        -13    1    3    3    0    0  0.84654970115E+02 -0.21796212701E+02  0.64099810301E+02  0.10839891390E+03  0.00000000000E+00 0.  1.
         14    1    3    3    0    0 -0.10470969140E+02 -0.30928495626E+02  0.13356108376E+02  0.35278869984E+02  0.00000000000E+00 0. -1.
         11    1    5    5    0    0 -0.27779851060E+02  0.12789238535E+03  0.31032891732E+03  0.33679700011E+03  0.00000000000E+00 0. -1.
        -12    1    5    5    0    0  0.28717705650E+02  0.22314672245E+02  0.14783066077E+03  0.15223848226E+03  0.00000000000E+00 0.  1.
          5    1    4    4  501    0 -0.18848201007E+02 -0.91463329240E+02 -0.13033727071E+02  0.94382973667E+02  0.41800000000E+01 0.  1.
         -5    1    4    4    0  501 -0.56273654558E+02 -0.60190200284E+01  0.69976300485E+02  0.90094993362E+02  0.41800000000E+01 0.  1.
</event>
<event>
11    1  0.7882745E-009  0.1297620E+03  0.7561462E-02  0.1119562E+00
         22   -1    0    0    0    0  0.00000000000E+00  0.00000000000E+00  0.25738667058E+03  0.25738667058E+03  0.00000000000E+00 0. -1.
         22   -1    0    0    0    0 -0.00000000000E+00 -0.00000000000E+00 -0.87805829830E+03  0.87805829830E+03  0.00000000000E+00 0. -1.
         24    2    1    2    0    0 -0.32947517698E+02  0.87410304127E+01 -0.80970295712E+03  0.81434936555E+03  0.79900349683E+02 0.  0.
         25    2    1    2    0    0  0.53368772094E+02  0.48652767585E+01  0.28002791498E+02  0.13893106684E+03  0.12508312535E+03 0.  0.
        -24    2    1    2    0    0 -0.20421254396E+02 -0.13606307171E+02  0.16102853791E+03  0.18216453649E+03  0.81557152402E+02 0.  0.
        -13    1    3    3    0    0 -0.47111332797E+01 -0.25925653704E+02 -0.10595009111E+03  0.10917763554E+03  0.00000000000E+00 0.  1.
         14    1    3    3    0    0 -0.28236384418E+02  0.34666684116E+02 -0.70375286601E+03  0.70517173001E+03  0.00000000000E+00 0. -1.
         11    1    5    5    0    0 -0.34365136411E+02 -0.86430117848E+01  0.16337948171E+03  0.16717810651E+03  0.00000000000E+00 0. -1.
        -12    1    5    5    0    0  0.13943882015E+02 -0.49632953865E+01 -0.23509438014E+01  0.14986429979E+02  0.00000000000E+00 0.  1.
          5    1    4    4  501    0 -0.37686115838E+02 -0.18194569041E+02  0.84571956050E+01  0.42898510779E+02  0.41800000000E+01 0.  1.
         -5    1    4    4    0  501  0.91054887932E+02  0.23059845800E+02  0.19545595893E+02  0.96032556060E+02  0.41800000000E+01 0.  1.
</event>
<event>
11    1  0.7882745E-009  0.1519051E+03  0.7561462E-02  0.1094948E+00
         22   -1    0    0    0    0  0.00000000000E+00  0.00000000000E+00  0.33037727426E+03  0.33037727426E+03  0.00000000000E+00 0.  1.
         22   -1    0    0    0    0 -0.00000000000E+00 -0.00000000000E+00 -0.36625103979E+03  0.36625103979E+03  0.00000000000E+00 0. -1.
         24    2    1    2    0    0  0.22124515898E+02 -0.11127143144E+02 -0.26926318570E+03  0.28192021089E+03  0.79768631788E+02 0.  0.
         25    2    1    2    0    0 -0.11167837697E+02  0.95283730387E+02  0.40007288370E+01  0.15769195795E+03  0.12508812053E+03 0.  0.
        -24    2    1    2    0    0 -0.10956678201E+02 -0.84156587242E+02  0.22938869134E+03  0.25701614520E+03  0.78966747487E+02 0.  0.
        -11    1    3    3    0    0  0.43853076247E+02 -0.14930741345E+02 -0.89210606359E+02  0.10052139882E+03  0.00000000000E+00 0.  1.
         12    1    3    3    0    0 -0.21728560349E+02  0.38035982006E+01 -0.18005257934E+03  0.18139881207E+03  0.00000000000E+00 0. -1.
         13    1    5    5    0    0  0.11766328406E+00 -0.27649139416E+02  0.87704444594E+01  0.29007058643E+02  0.00000000000E+00 0. -1.
        -14    1    5    5    0    0 -0.11074341485E+02 -0.56507447827E+02  0.22061824688E+03  0.22800908656E+03  0.00000000000E+00 0.  1.
          5    1    4    4  501    0  0.32779390990E+02  0.10697674588E+03  0.36092266019E+01  0.11202237076E+03  0.41800000000E+01 0. -1.
         -5    1    4    4    0  501 -0.43947228687E+02 -0.11693015498E+02  0.39150223505E+00  0.45669587196E+02  0.41800000000E+01 0. -1.
</event>
<event>
11    1  0.1211897E-008  0.2069428E+03  0.7561462E-02  0.1049720E+00
         22   -1    0    0    0    0  0.00000000000E+00  0.00000000000E+00  0.53561738399E+03  0.53561738399E+03  0.00000000000E+00 0. -1.
         22   -1    0    0    0    0 -0.00000000000E+00 -0.00000000000E+00 -0.89551964893E+03  0.89551964893E+03  0.00000000000E+00 0. -1.
        -24    2    1    2    0    0 -0.27172406157E+02 -0.52289283708E+01 -0.64864999153E+03  0.65403682190E+03  0.79067512510E+02 0.  0.
         25    2    1    2    0    0 -0.42303491022E+02 -0.14552886119E+03 -0.18422976658E+03  0.26936304082E+03  0.12509039160E+03 0.  0.
         24    2    1    2    0    0  0.69475897179E+02  0.15075778956E+03  0.47297749317E+03  0.50773717021E+03  0.80836338156E+02 0.  0.
        -13    1    5    5    0    0 -0.52428008719E+01 -0.77363510187E+01  0.21161902228E+02  0.23133616103E+02  0.00000000000E+00 0.  1.
         14    1    5    5    0    0  0.74718698051E+02  0.15849414058E+03  0.45181559094E+03  0.48460355411E+03  0.00000000000E+00 0. -1.
         11    1    3    3    0    0 -0.28367419767E+02 -0.19985958632E+02 -0.62610009294E+03  0.62706098222E+03  0.00000000000E+00 0. -1.
        -12    1    3    3    0    0  0.11950136099E+01  0.14757030261E+02 -0.22549898595E+02  0.26975839677E+02  0.00000000000E+00 0.  1.
          5    1    4    4  501    0 -0.37274076946E+02 -0.16845856375E+03 -0.15927491381E+03  0.23484806808E+03  0.41800000000E+01 0. -1.
         -5    1    4    4    0  501 -0.50294140765E+01  0.22929702565E+02 -0.24954852779E+02  0.34514972734E+02  0.41800000000E+01 0. -1.
</event>
<event>
11    1  0.7882745E-009  0.1497355E+03  0.7561462E-02  0.1097149E+00
         22   -1    0    0    0    0  0.00000000000E+00  0.00000000000E+00  0.58641739408E+03  0.58641739408E+03  0.00000000000E+00 0.  1.
         22   -1    0    0    0    0 -0.00000000000E+00 -0.00000000000E+00 -0.15748062883E+03  0.15748062883E+03  0.00000000000E+00 0.  1.
        -24    2    1    2    0    0 -0.85912156061E+02 -0.22952908991E+02 -0.95282945183E+02  0.15316882897E+03  0.80461891201E+02 0.  0.
         25    2    1    2    0    0  0.49562442619E+02 -0.26496859983E+02  0.14769319314E+03  0.20154268722E+03  0.12509059183E+03 0.  0.
         24    2    1    2    0    0  0.36349713442E+02  0.49449768974E+02  0.37652651730E+03  0.38918650672E+03  0.76989203560E+02 0.  0.
        -13    1    5    5    0    0  0.42189029450E+02  0.58937026411E+02  0.36823170741E+03  0.37529731897E+03  0.00000000000E+00 0.  1.
         14    1    5    5    0    0 -0.58393160087E+01 -0.94872574363E+01  0.82948098888E+01  0.13889187745E+02  0.00000000000E+00 0. -1.
         13    1    3    3    0    0 -0.14730299936E+02  0.20667644095E+02  0.14143598166E+01  0.25419159355E+02  0.00000000000E+00 0. -1.
        -14    1    3    3    0    0 -0.71181856125E+02 -0.43620553086E+02 -0.96697304999E+02  0.12774966962E+03  0.00000000000E+00 0.  1.
          5    1    4    4  501    0 -0.34876013851E+02 -0.37975880328E+02  0.59274370679E+02  0.78672913053E+02  0.41800000000E+01 0.  1.
         -5    1    4    4    0  501  0.84438456470E+02  0.11479020345E+02  0.88418822461E+02  0.12286977417E+03  0.41800000000E+01 0.  1.
</event>
<event>
11    1  0.7882745E-009  0.1285808E+03  0.7561462E-02  0.1121025E+00
         22   -1    0    0    0    0  0.00000000000E+00  0.00000000000E+00  0.11468769303E+04  0.11468769303E+04  0.00000000000E+00 0.  1.
         22   -1    0    0    0    0 -0.00000000000E+00 -0.00000000000E+00 -0.19679479953E+03  0.19679479953E+03  0.00000000000E+00 0. -1.
        -24    2    1    2    0    0 -0.87982797755E+01 -0.28583370963E+02 -0.17279372937E+03  0.19321862420E+03  0.81125489248E+02 0.  0.
         25    2    1    2    0    0 -0.86097384177E+01  0.28030893477E+02  0.32693508986E+03  0.35127572956E+03  0.12509287194E+03 0.  0.
         24    2    1    2    0    0  0.17408018193E+02  0.55247748588E+00  0.79594077023E+03  0.79917737603E+03  0.69709571160E+02 0.  0.
        -11    1    5    5    0    0 -0.23581916820E+02  0.78269500301E+01  0.45941317216E+03  0.46008459081E+03  0.00000000000E+00 0.  1.
         12    1    5    5    0    0  0.40989935013E+02 -0.72744725442E+01  0.33652759807E+03  0.33909278521E+03  0.00000000000E+00 0. -1.
         11    1    3    3    0    0  0.26003933555E+01 -0.49788735951E+02 -0.15623976566E+03  0.16400166050E+03  0.00000000000E+00 0. -1.
        -12    1    3    3    0    0 -0.11398673131E+02  0.21205364988E+02 -0.16553963712E+02  0.29216963702E+02  0.00000000000E+00 0.  1.
          5    1    4    4  501    0 -0.20096582535E+02 -0.47082298727E+02  0.11056675807E+03  0.12191429725E+03  0.41800000000E+01 0.  1.
         -5    1    4    4    0  501  0.11486844117E+02  0.75113192204E+02  0.21636833179E+03  0.22936143231E+03  0.41800000000E+01 0.  1.
</event>
<event>
11    1  0.7882745E-009  0.1253377E+03  0.7561462E-02  0.1125134E+00
         22   -1    0    0    0    0  0.00000000000E+00  0.00000000000E+00  0.15421765319E+04  0.15421765319E+04  0.00000000000E+00 0. -1.
         22   -1    0    0    0    0 -0.00000000000E+00 -0.00000000000E+00 -0.74403219607E+03  0.74403219607E+03  0.00000000000E+00 0. -1.
         24    2    1    2    0    0 -0.67255717992E+01 -0.20690685216E+02 -0.72419812007E+03  0.72855015963E+03  0.76479279624E+02 0.  0.
         25    2    1    2    0    0 -0.10212167761E+01  0.16311878806E+02  0.22748856563E+03  0.26012961132E+03  0.12509695008E+03 0.  0.
        -24    2    1    2    0    0  0.77467885753E+01  0.43788064102E+01  0.12948538903E+04  0.12975289570E+04  0.82798613775E+02 0.  0.
        -13    1    3    3    0    0  0.16586895423E+02 -0.15315538142E+02 -0.65395607250E+03  0.65434565450E+03  0.00000000000E+00 0.  1.
         14    1    3    3    0    0 -0.23312467223E+02 -0.53751470743E+01 -0.70242047573E+02  0.74204505128E+02  0.00000000000E+00 0. -1.
         13    1    5    5    0    0 -0.10046766837E+02  0.40390440304E+02  0.53651162068E+03  0.53812363293E+03  0.00000000000E+00 0. -1.
        -14    1    5    5    0    0  0.17793555412E+02 -0.36011633894E+02  0.75834226963E+03  0.75940532412E+03  0.00000000000E+00 0.  1.
          5    1    4    4  501    0  0.52304628590E+02 -0.23935761233E+02  0.85240710057E+02  0.10291815141E+03  0.41800000000E+01 0. -1.
         -5    1    4    4    0  501 -0.53325845366E+02  0.40247640039E+02  0.14224785557E+03  0.15721145991E+03  0.41800000000E+01 0. -1.
</event>
<event>
11    1  0.7882745E-009  0.1523707E+03  0.7561462E-02  0.1094481E+00
         22   -1    0    0    0    0  0.00000000000E+00  0.00000000000E+00  0.13062397619E+04  0.13062397619E+04  0.00000000000E+00 0.  1.
         22   -1    0    0    0    0 -0.00000000000E+00 -0.00000000000E+00 -0.54308812066E+02  0.54308812066E+02  0.00000000000E+00 0.  1.
         24    2    1    2    0    0 -0.82235585713E+02  0.28912962143E+02  0.11296145637E+03  0.16394285198E+03  0.80736095723E+02 0.  0.
         25    2    1    2    0    0  0.53349182509E+02 -0.84688638296E+02  0.22161726414E+03  0.27347825685E+03  0.12513130893E+03 0.  0.
        -24    2    1    2    0    0  0.28886403203E+02  0.55775676153E+02  0.91735222929E+03  0.92312746510E+03  0.81754840201E+02 0.  0.
        -11    1    3    3    0    0 -0.55869943037E+02  0.56488245109E+02  0.86866377241E+02  0.11772060085E+03  0.00000000000E+00 0.  1.
         12    1    3    3    0    0 -0.26365642676E+02 -0.27575282966E+02  0.26095079128E+02  0.46222251125E+02  0.00000000000E+00 0. -1.
         11    1    5    5    0    0 -0.27056945812E+02  0.78532543632E+01  0.19417442962E+03  0.19620769873E+03  0.00000000000E+00 0. -1.
        -12    1    5    5    0    0  0.55943349016E+02  0.47922421790E+02  0.72317779967E+03  0.72691976638E+03  0.00000000000E+00 0.  1.
          5    1    4    4  501    0  0.85169207874E+02 -0.60228389552E+02  0.97053681711E+02  0.14254172165E+03  0.41800000000E+01 0. -1.
         -5    1    4    4    0  501 -0.31820025365E+02 -0.24460248745E+02  0.12456358243E+03  0.13093653520E+03  0.41800000000E+01 0. -1.
</event>
<event>
11    1  0.7882745E-009  0.1809724E+03  0.7561462E-02  0.1068859E+00
         22   -1    0    0    0    0  0.00000000000E+00  0.00000000000E+00  0.33473165627E+03  0.33473165627E+03  0.00000000000E+00 0.  1.
         22   -1    0    0    0    0 -0.00000000000E+00 -0.00000000000E+00 -0.67564721242E+03  0.67564721242E+03  0.00000000000E+00 0.  1.
         24    2    1    2    0    0 -0.13559352815E+03  0.25771784476E+02 -0.40234275546E+03  0.43280268793E+03  0.79929244047E+02 0.  0.
         25    2    1    2    0    0  0.98850007999E+02 -0.77993047585E+02 -0.21780390857E+03  0.28094300256E+03  0.12504474619E+03 0.  0.
        -24    2    1    2    0    0  0.36743520150E+02  0.52221263109E+02  0.27923110789E+03  0.29663317820E+03  0.77097887166E+02 0.  0.
        -13    1    3    3    0    0 -0.43069099348E+02 -0.65336102291E+01 -0.23392460625E+03  0.23794612162E+03  0.00000000000E+00 0.  1.
         14    1    3    3    0    0 -0.92524428800E+02  0.32305394705E+02 -0.16841814921E+03  0.19485656631E+03  0.00000000000E+00 0. -1.
         11    1    5    5    0    0  0.13284454506E+02 -0.11267090533E+02  0.12477926636E+02  0.21427148988E+02  0.00000000000E+00 0. -1.
        -12    1    5    5    0    0  0.23459065644E+02  0.63488353642E+02  0.26675318125E+03  0.27520602921E+03  0.00000000000E+00 0.  1.
          5    1    4    4  501    0  0.10602367939E+03 -0.80082208374E+02 -0.23023038367E+03  0.26585274619E+03  0.41800000000E+01 0.  1.
         -5    1    4    4    0  501 -0.71736713902E+01  0.20891607892E+01  0.12426475103E+02  0.15090256377E+02  0.41800000000E+01 0.  1.
</event>
<event>
11    1  0.7882745E-009  0.2140386E+03  0.7561462E-02  0.1045017E+00
         22   -1    0    0    0    0  0.00000000000E+00  0.00000000000E+00  0.23227004613E+03  0.23227004613E+03  0.00000000000E+00 0.  1.
         22   -1    0    0    0    0 -0.00000000000E+00 -0.00000000000E+00 -0.59741890374E+03  0.59741890374E+03  0.00000000000E+00 0.  1.
        -24    2    1    2    0    0 -0.51870608734E+02  0.19703674101E+02 -0.37290310149E+03  0.38573391876E+03  0.81579030152E+02 0.  0.
         25    2    1    2    0    0  0.19817142783E+03 -0.79712129261E+02 -0.59354830819E+02  0.25455117472E+03  0.12508943301E+03 0.  0.
         24    2    1    2    0    0 -0.14630081910E+03  0.60008455160E+02  0.67109074696E+02  0.18940385639E+03  0.79782507787E+02 0.  0.
        -11    1    5    5    0    0 -0.15515315310E+03  0.49527360707E+02  0.65676735897E+02  0.17561006240E+03  0.00000000000E+00 0.  1.
         12    1    5    5    0    0  0.88523340054E+01  0.10481094453E+02  0.14323387995E+01  0.13793793993E+02  0.00000000000E+00 0. -1.
         11    1    3    3    0    0  0.13695436119E+02 -0.33279848288E+01 -0.12970400084E+02  0.19153895997E+02  0.00000000000E+00 0. -1.
        -12    1    3    3    0    0 -0.65566044853E+02  0.23031658930E+02 -0.35993270141E+03  0.36658002277E+03  0.00000000000E+00 0.  1.
          5    1    4    4  501    0  0.84293598399E+02 -0.75126958593E+02  0.21149422364E+02  0.11495321268E+03  0.41800000000E+01 0. -1.
         -5    1    4    4    0  501  0.11387782943E+03 -0.45851706683E+01 -0.80504253183E+02  0.13959796204E+03  0.41800000000E+01 0. -1.
</event>
<event>
11    1  0.7882745E-009  0.1485156E+03  0.7561462E-02  0.1098405E+00
         22   -1    0    0    0    0  0.00000000000E+00  0.00000000000E+00  0.14961548735E+04  0.14961548735E+04  0.00000000000E+00 0. -1.
         22   -1    0    0    0    0 -0.00000000000E+00 -0.00000000000E+00 -0.58464762307E+03  0.58464762307E+03  0.00000000000E+00 0. -1.
        -24    2    1    2    0    0  0.49772335336E+01 -0.16517234551E+02 -0.53571561857E+03  0.54174363941E+03  0.78723280970E+02 0.  0.
         25    2    1    2    0    0  0.54615067533E+02  0.69392335963E+02  0.91349388219E+02  0.17829876611E+03  0.12509051674E+03 0.  0.
         24    2    1    2    0    0 -0.59592301067E+02 -0.52875101412E+02  0.13558734808E+04  0.13607600910E+04  0.83235273649E+02 0.  0.
        -13    1    5    5    0    0  0.14092663015E+02 -0.37306470494E+02  0.45561733807E+03  0.45735930584E+03  0.00000000000E+00 0.  1.
         14    1    5    5    0    0 -0.73684964082E+02 -0.15568630918E+02  0.90025614272E+03  0.90340078520E+03  0.00000000000E+00 0. -1.
         13    1    3    3    0    0  0.12533869677E+02 -0.12229741220E+02 -0.53201005188E+03  0.53229818689E+03  0.00000000000E+00 0. -1.
        -14    1    3    3    0    0 -0.75566361435E+01 -0.42874933310E+01 -0.37055666920E+01  0.94454525237E+01  0.00000000000E+00 0.  1.
          5    1    4    4  501    0  0.42722055220E+02 -0.30100417459E+02  0.37582964441E+02  0.64507059688E+02  0.41800000000E+01 0. -1.
         -5    1    4    4    0  501  0.11893012313E+02  0.99492753422E+02  0.53766423778E+02  0.11379170643E+03  0.41800000000E+01 0. -1.
</event>
<event>
11    1  0.1012904E-008  0.1929791E+03  0.7561462E-02  0.1059603E+00
         22   -1    0    0    0    0  0.00000000000E+00  0.00000000000E+00  0.11592216759E+04  0.11592216759E+04  0.00000000000E+00 0.  1.
         22   -1    0    0    0    0 -0.00000000000E+00 -0.00000000000E+00 -0.68668296503E+03  0.68668296503E+03  0.00000000000E+00 0. -1.
         24    2    1    2    0    0 -0.21826258210E+02 -0.50694106548E+02 -0.52984906326E+03  0.53872489965E+03  0.80238455133E+02 0.  0.
         25    2    1    2    0    0  0.14013580667E+03 -0.37339325368E+02 -0.83142089999E+02  0.20878712516E+03  0.12508871640E+03 0.  0.
        -24    2    1    2    0    0 -0.11830954846E+03  0.88033431916E+02  0.10855298641E+04  0.10983926161E+04  0.79650604899E+02 0.  0.
        -11    1    3    3    0    0 -0.40534791313E+02 -0.33721781831E+02 -0.47954258122E+03  0.48243270524E+03  0.00000000000E+00 0.  1.
         12    1    3    3    0    0  0.18708533103E+02 -0.16972324717E+02 -0.50306482036E+02  0.56292194415E+02  0.00000000000E+00 0. -1.
         11    1    5    5    0    0 -0.30022158356E+02  0.10164789993E+02  0.80876507749E+02  0.86865772625E+02  0.00000000000E+00 0. -1.
        -12    1    5    5    0    0 -0.88287390105E+02  0.77868641923E+02  0.10046533564E+04  0.10115268435E+04  0.00000000000E+00 0.  1.
          5    1    4    4  501    0  0.47502457302E+02 -0.63547584438E+02 -0.79445824594E+02  0.11235608743E+03  0.41800000000E+01 0.  1.
         -5    1    4    4    0  501  0.92633349370E+02  0.26208259070E+02 -0.36962654053E+01  0.96431037726E+02  0.41800000000E+01 0.  1.
</event>
<event>
11    1  0.7882745E-009  0.1564736E+03  0.7561462E-02  0.1090442E+00
         22   -1    0    0    0    0  0.00000000000E+00  0.00000000000E+00  0.27073637217E+04  0.27073637217E+04  0.00000000000E+00 0. -1.
         22   -1    0    0    0    0 -0.00000000000E+00 -0.00000000000E+00 -0.16232004266E+03  0.16232004266E+03  0.00000000000E+00 0.  1.
        -24    2    1    2    0    0 -0.10162987723E+03 -0.33839352119E+02 -0.97130607658E+02  0.16466463595E+03  0.78780414395E+02 0.  0.
         25    2    1    2    0    0  0.35081956659E+02  0.17666413239E+02  0.11157902711E+03  0.17216435391E+03  0.12509132514E+03 0.  0.
         24    2    1    2    0    0  0.66547920572E+02  0.16172938880E+02  0.25305952596E+04  0.25328547745E+04  0.82162955053E+02 0.  0.
        -13    1    5    5    0    0 -0.52042685525E+00  0.23358339583E+02  0.21289846558E+03  0.21417665493E+03  0.00000000000E+00 0.  1.
         14    1    5    5    0    0  0.67068347427E+02 -0.71854007028E+01  0.23176967940E+04  0.23186781196E+04  0.00000000000E+00 0. -1.
         11    1    3    3    0    0 -0.23670739628E+02 -0.33885688152E+02 -0.16057682016E+01  0.41365713672E+02  0.00000000000E+00 0. -1.
        -12    1    3    3    0    0 -0.77959137602E+02  0.46336033382E-01 -0.95524839457E+02  0.12329892228E+03  0.00000000000E+00 0.  1.
          5    1    4    4  501    0  0.95053373357E+01 -0.49246478154E+02  0.78267416118E+02  0.93052823032E+02  0.41800000000E+01 0. -1.
         -5    1    4    4    0  501  0.25576619323E+02  0.66912891393E+02  0.33311610989E+02  0.79111530874E+02  0.41800000000E+01 0. -1.
</event>
<event>
11    1  0.7882745E-009  0.1319388E+03  0.7561462E-02  0.1116909E+00
         22   -1    0    0    0    0  0.00000000000E+00  0.00000000000E+00  0.22216643488E+04  0.22216643488E+04  0.00000000000E+00 0. -1.
         22   -1    0    0    0    0 -0.00000000000E+00 -0.00000000000E+00 -0.43063273098E+02  0.43063273098E+02  0.00000000000E+00 0.  1.
        -24    2    1    2    0    0  0.29497458265E+02  0.22789551173E+02  0.68884139122E+02  0.12739677202E+03  0.10047611264E+03 0.  0.
         25    2    1    2    0    0 -0.12324756891E+02 -0.76093256521E+02  0.42404300391E+03  0.44878411906E+03  0.12511048331E+03 0.  0.
         24    2    1    2    0    0 -0.17172701375E+02  0.53303705348E+02  0.16856739326E+04  0.16885467308E+04  0.80976961020E+02 0.  0.
        -13    1    5    5    0    0  0.71835629653E+01 -0.98803603122E+01  0.49961318018E+02  0.51433047691E+02  0.00000000000E+00 0.  1.
         14    1    5    5    0    0 -0.24356264340E+02  0.63184065660E+02  0.16357126146E+04  0.16371136831E+04  0.00000000000E+00 0. -1.
         13    1    3    3    0    0  0.37010340627E+02  0.53365172228E+02  0.70521492999E+02  0.95869118568E+02  0.00000000000E+00 0. -1.
        -14    1    3    3    0    0 -0.75128823616E+01 -0.30575621054E+02 -0.16373538764E+01  0.31527653448E+02  0.00000000000E+00 0.  1.
          5    1    4    4  501    0  0.93659447998E+01  0.24508057812E+02  0.24366514690E+02  0.36049483462E+02  0.41800000000E+01 0.  1.
         -5    1    4    4    0  501 -0.21690701691E+02 -0.10060131433E+03  0.39967648922E+03  0.41273463560E+03  0.41800000000E+01 0.  1.
</event>
<event>
11    1  0.7882745E-009  0.1386347E+03  0.7561462E-02  0.1109093E+00
         22   -1    0    0    0    0  0.00000000000E+00  0.00000000000E+00  0.37252786141E+03  0.37252786141E+03  0.00000000000E+00 0. -1.
         22   -1    0    0    0    0 -0.00000000000E+00 -0.00000000000E+00 -0.13991977431E+03  0.13991977431E+03  0.00000000000E+00 0.  1.
        -24    2    1    2    0    0 -0.17431723753E+02  0.49759355691E+02 -0.38924576444E+02  0.10320495012E+03  0.79726285542E+02 0.  0.
         25    2    1    2    0    0  0.45041538404E+02 -0.67638894215E+02  0.29201557440E+02  0.15200014496E+03  0.12509017914E+03 0.  0.
         24    2    1    2    0    0 -0.27609814651E+02  0.17879538524E+02  0.24233110610E+03  0.25724254065E+03  0.79795864379E+02 0.  0.
        -11    1    5    5    0    0 -0.93774786071E+01 -0.88323637268E+01  0.12082890801E+00  0.12882637682E+02  0.00000000000E+00 0.  1.
         12    1    5    5    0    0 -0.18232336044E+02  0.26711902251E+02  0.24221027719E+03  0.24435990296E+03  0.00000000000E+00 0. -1.
         13    1    3    3    0    0  0.16677025938E+02 -0.14882359392E+02 -0.67593702431E+01  0.23351593121E+02  0.00000000000E+00 0. -1.
        -14    1    3    3    0    0 -0.34108749691E+02  0.64641715083E+02 -0.32165206201E+02  0.79853357001E+02  0.00000000000E+00 0.  1.
          5    1    4    4  501    0  0.33483503085E+02 -0.10018454292E+03 -0.13159942226E+01  0.10572271213E+03  0.41800000000E+01 0.  1.
         -5    1    4    4    0  501  0.11558035319E+02  0.32545648703E+02  0.30517551662E+02  0.46277432831E+02  0.41800000000E+01 0.  1.
</event>
<event>
11    1  0.7882745E-009  0.1561466E+03  0.7561462E-02  0.1090759E+00
         22   -1    0    0    0    0  0.00000000000E+00  0.00000000000E+00  0.16619655401E+03  0.16619655401E+03  0.00000000000E+00 0. -1.
         22   -1    0    0    0    0 -0.00000000000E+00 -0.00000000000E+00 -0.10395253167E+04  0.10395253167E+04  0.00000000000E+00 0. -1.
        -24    2    1    2    0    0 -0.95956493779E+02 -0.18402036151E+03 -0.15183068132E+03  0.27017240011E+03  0.82882011559E+02 0.  0.
         25    2    1    2    0    0  0.68323704405E+02  0.45016359013E+02 -0.75380359347E+03  0.76847890321E+03  0.12508143739E+03 0.  0.
         24    2    1    2    0    0  0.27632789375E+02  0.13900400250E+03  0.32305512084E+02  0.16707056742E+03  0.82360455473E+02 0.  0.
        -11    1    5    5    0    0  0.23906911715E+02 -0.69202152329E+00  0.80510418795E+01  0.25235661214E+02  0.00000000000E+00 0.  1.
         12    1    5    5    0    0  0.37258776594E+01  0.13969602402E+03  0.24254470204E+02  0.14183490620E+03  0.00000000000E+00 0. -1.
         13    1    3    3    0    0 -0.14145779725E+02 -0.10981596324E+03 -0.95338978104E+02  0.14611355041E+03  0.00000000000E+00 0. -1.
        -14    1    3    3    0    0 -0.81810714054E+02 -0.74204398271E+02 -0.56491703220E+02  0.12405884970E+03  0.00000000000E+00 0.  1.
          5    1    4    4  501    0 -0.23714472334E+02 -0.34326436892E+01 -0.37811064791E+02  0.44958961969E+02  0.41800000000E+01 0.  1.
         -5    1    4    4    0  501  0.92038176738E+02  0.48449002702E+02 -0.71599252868E+03  0.72351994124E+03  0.41800000000E+01 0.  1.
</event>
<event>
11    1  0.7882745E-009  0.1707978E+03  0.7561462E-02  0.1077339E+00
         22   -1    0    0    0    0  0.00000000000E+00  0.00000000000E+00  0.32196466407E+04  0.32196466407E+04  0.00000000000E+00 0.  1.
         22   -1    0    0    0    0 -0.00000000000E+00 -0.00000000000E+00 -0.73862973616E+02  0.73862973616E+02  0.00000000000E+00 0.  1.
        -24    2    1    2    0    0 -0.52763710079E+02  0.84521456298E+02  0.92988091675E+02  0.15627488233E+03  0.76466776949E+02 0.  0.
         25    2    1    2    0    0  0.57340846738E+02 -0.13590155353E+03  0.18429164607E+03  0.26714483205E+03  0.12508295457E+03 0.  0.
         24    2    1    2    0    0 -0.45771366587E+01  0.51380097231E+02  0.28685039293E+04  0.28700898999E+04  0.80251956477E+02 0.  0.
        -11    1    5    5    0    0  0.40342054552E+00  0.34595295791E+02  0.27572253264E+04  0.27574423834E+04  0.00000000000E+00 0.  1.
         12    1    5    5    0    0 -0.49805572042E+01  0.16784801440E+02  0.11127860288E+03  0.11264751647E+03  0.00000000000E+00 0. -1.
         13    1    3    3    0    0 -0.24002555618E+02  0.37319848430E+02  0.90678435177E+02  0.10095282249E+03  0.00000000000E+00 0. -1.
        -14    1    3    3    0    0 -0.28761154461E+02  0.47201607868E+02  0.23096564988E+01  0.55322059835E+02  0.00000000000E+00 0.  1.
          5    1    4    4  501    0  0.95964764835E+01 -0.56754530123E+02 -0.34772445246E+01  0.57816370345E+02  0.41800000000E+01 0.  1.
         -5    1    4    4    0  501  0.47744370254E+02 -0.79147023405E+02  0.18776889059E+03  0.20932846170E+03  0.41800000000E+01 0.  1.
</event>
<event>
11    1  0.7882745E-009  0.2224273E+03  0.7561462E-02  0.1039708E+00
         22   -1    0    0    0    0  0.00000000000E+00  0.00000000000E+00  0.51724052753E+03  0.51724052753E+03  0.00000000000E+00 0.  1.
         22   -1    0    0    0    0 -0.00000000000E+00 -0.00000000000E+00 -0.16213859969E+04  0.16213859969E+04  0.00000000000E+00 0. -1.
        -24    2    1    2    0    0 -0.17366606361E+03 -0.63004224971E+02 -0.15682713004E+04  0.15810784245E+04  0.78769783161E+02 0.  0.
         25    2    1    2    0    0  0.13500068634E+03  0.72484804490E+02  0.21259499749E+03  0.29038448366E+03  0.12508910105E+03 0.  0.
         24    2    1    2    0    0  0.38665377275E+02 -0.94805795192E+01  0.25153083357E+03  0.26716361624E+03  0.80769702341E+02 0.  0.
        -13    1    5    5    0    0 -0.33584383385E+01 -0.20109705528E+02  0.19431557152E+03  0.19538224254E+03  0.00000000000E+00 0.  1.
         14    1    5    5    0    0  0.42023815613E+02  0.10629126009E+02  0.57215262050E+02  0.71781373697E+02  0.00000000000E+00 0. -1.
         11    1    3    3    0    0 -0.15465003140E+03 -0.28095212428E+02 -0.13594931772E+04  0.13685494773E+04  0.00000000000E+00 0. -1.
        -12    1    3    3    0    0 -0.19016032211E+02 -0.34909012543E+02 -0.20877812324E+03  0.21252894716E+03  0.00000000000E+00 0.  1.
          5    1    4    4  501    0  0.18564948235E+02 -0.33447460142E+02  0.27113647158E+02  0.47074538289E+02  0.41800000000E+01 0. -1.
         -5    1    4    4    0  501  0.11643573810E+03  0.10593226463E+03  0.18548135033E+03  0.24330994538E+03  0.41800000000E+01 0. -1.
</event>
<event>
11    1  0.7882745E-009  0.1353370E+03  0.7561462E-02  0.1112880E+00
         22   -1    0    0    0    0  0.00000000000E+00  0.00000000000E+00  0.19858041161E+03  0.19858041161E+03  0.00000000000E+00 0. -1.
         22   -1    0    0    0    0 -0.00000000000E+00 -0.00000000000E+00 -0.14815782586E+04  0.14815782586E+04  0.00000000000E+00 0.  1.
         24    2    1    2    0    0  0.81515701002E+01 -0.45245724354E+02 -0.83343537087E+03  0.83847459546E+03  0.79444988145E+02 0.  0.
         25    2    1    2    0    0 -0.19601386431E+02  0.67413930924E+02 -0.62770144949E+03  0.64388247198E+03  0.12508667232E+03 0.  0.
        -24    2    1    2    0    0  0.11449816331E+02 -0.22168206570E+02  0.17813897333E+03  0.19780160282E+03  0.82276683115E+02 0.  0.
        -13    1    3    3    0    0 -0.32826341853E+02 -0.26345376892E+02 -0.53420019175E+03  0.53585585046E+03  0.00000000000E+00 0.  1.
         14    1    3    3    0    0  0.40977911953E+02 -0.18900347462E+02 -0.29923517912E+03  0.30261874500E+03  0.00000000000E+00 0. -1.
         13    1    5    5    0    0  0.45938177023E+02 -0.17448970365E+02  0.82518334887E+02  0.96041960973E+02  0.00000000000E+00 0. -1.
        -14    1    5    5    0    0 -0.34488360692E+02 -0.47192362052E+01  0.95620638441E+02  0.10175964185E+03  0.00000000000E+00 0.  1.
          5    1    4    4  501    0 -0.44564631999E+01  0.63408708528E+02 -0.11946869510E+03  0.13539115883E+03  0.41800000000E+01 0. -1.
         -5    1    4    4    0  501 -0.15144923232E+02  0.40052223965E+01 -0.50823275439E+03  0.50849131314E+03  0.41800000000E+01 0. -1.
</event>
<event>
11    1  0.7882745E-009  0.1465267E+03  0.7561462E-02  0.1100482E+00
         22   -1    0    0    0    0  0.00000000000E+00  0.00000000000E+00  0.36820268634E+03  0.36820268634E+03  0.00000000000E+00 0. -1.
         22   -1    0    0    0    0 -0.00000000000E+00 -0.00000000000E+00 -0.33841339702E+04  0.33841339702E+04  0.00000000000E+00 0.  1.
         24    2    1    2    0    0 -0.73553515923E+02 -0.19240141819E+02 -0.32037133361E+04  0.32056169520E+04  0.80128647215E+02 0.  0.
         25    2    1    2    0    0  0.90411471075E+02 -0.10929953494E+02 -0.13914663789E+03  0.20810807748E+03  0.12511389647E+03 0.  0.
        -24    2    1    2    0    0 -0.16857955152E+02  0.30170095312E+02  0.32692869009E+03  0.33861162713E+03  0.81123611373E+02 0.  0.
        -11    1    3    3    0    0 -0.79265453055E+02 -0.40060738597E+02 -0.26160567507E+04  0.26175639052E+04  0.00000000000E+00 0.  1.
         12    1    3    3    0    0  0.57119371320E+01  0.20820596779E+02 -0.58765658538E+03  0.58805304677E+03  0.00000000000E+00 0. -1.
         13    1    5    5    0    0 -0.56236819183E+01  0.43006175435E+02  0.31457299215E+03  0.31754893216E+03  0.00000000000E+00 0. -1.
        -14    1    5    5    0    0 -0.11234273234E+02 -0.12836080123E+02  0.12355697939E+02  0.21062694974E+02  0.00000000000E+00 0.  1.
          5    1    4    4  501    0  0.90385796568E+02 -0.49089145433E+02 -0.13460049774E+03  0.16945236149E+03  0.41800000000E+01 0. -1.
         -5    1    4    4    0  501  0.25674506812E-01  0.38159191939E+02 -0.45461401516E+01  0.38655715993E+02  0.41800000000E+01 0. -1.
</event>
<event>
11    1  0.7882745E-009  0.1480049E+03  0.7561462E-02  0.1098935E+00
         22   -1    0    0    0    0  0.00000000000E+00  0.00000000000E+00  0.32195327122E+03  0.32195327122E+03  0.00000000000E+00 0. -1.
         22   -1    0    0    0    0 -0.00000000000E+00 -0.00000000000E+00 -0.57304732388E+03  0.57304732388E+03  0.00000000000E+00 0. -1.
         24    2    1    2    0    0 -0.51732620809E+02  0.64250534746E+02 -0.39450335394E+03  0.41150594127E+03  0.83065324609E+02 0.  0.
         25    2    1    2    0    0  0.54439820670E+02 -0.41420650984E+02 -0.13279789650E+03  0.19483852773E+03  0.12508959257E+03 0.  0.
        -24    2    1    2    0    0 -0.27071998609E+01 -0.22829883762E+02  0.27620719778E+03  0.28865612611E+03  0.80643725789E+02 0.  0.
        -11    1    3    3    0    0  0.17621446684E+02  0.39049576695E+02 -0.16234655245E+03  0.16790410333E+03  0.00000000000E+00 0.  1.
         12    1    3    3    0    0 -0.69354067493E+02  0.25200958051E+02 -0.23215680150E+03  0.24360183794E+03  0.00000000000E+00 0. -1.
         13    1    5    5    0    0  0.28152548306E+02 -0.27869220706E+02  0.22645618059E+03  0.22989489156E+03  0.00000000000E+00 0. -1.
        -14    1    5    5    0    0 -0.30859748167E+02  0.50393369436E+01  0.49751017195E+02  0.58761234549E+02  0.00000000000E+00 0.  1.
          5    1    4    4  501    0  0.51782102748E+02 -0.73783296972E+02 -0.13460009552E+03  0.16204943440E+03  0.41800000000E+01 0.  1.
         -5    1    4    4    0  501  0.26577179216E+01  0.32362645988E+02  0.18021990106E+01  0.32789093326E+02  0.41800000000E+01 0.  1.
</event>
<event>
11    1  0.7882745E-009  0.1399122E+03  0.7561462E-02  0.1107656E+00
         22   -1    0    0    0    0  0.00000000000E+00  0.00000000000E+00  0.43300766372E+03  0.43300766372E+03  0.00000000000E+00 0. -1.
         22   -1    0    0    0    0 -0.00000000000E+00 -0.00000000000E+00 -0.35651703281E+03  0.35651703281E+03  0.00000000000E+00 0.  1.
        -24    2    1    2    0    0 -0.47482482199E+01  0.24822445261E+02 -0.27988506779E+03  0.29281511443E+03  0.82257768121E+02 0.  0.
         25    2    1    2    0    0  0.30481557966E+02 -0.79051563789E+02  0.28600220198E+02  0.15376542500E+03  0.12509020032E+03 0.  0.
         24    2    1    2    0    0 -0.25733309746E+02  0.54229118528E+02  0.32777547850E+03  0.34294415710E+03  0.81061273462E+02 0.  0.
        -11    1    5    5    0    0  0.12357110286E+02 -0.73806815979E+01  0.15407861019E+03  0.15474944509E+03  0.00000000000E+00 0.  1.
         12    1    5    5    0    0 -0.38090420032E+02  0.61609800126E+02  0.17369686831E+03  0.18819471201E+03  0.00000000000E+00 0. -1.
         11    1    3    3    0    0 -0.41634369810E+01  0.63292523235E+01  0.38357985080E+01  0.84915836369E+01  0.00000000000E+00 0. -1.
        -12    1    3    3    0    0 -0.58481123892E+00  0.18493192937E+02 -0.28372086630E+03  0.28432353079E+03  0.00000000000E+00 0.  1.
          5    1    4    4  501    0  0.18214250146E+02 -0.10838070986E+03  0.43673668799E+02  0.11833426776E+03  0.41800000000E+01 0.  1.
         -5    1    4    4    0  501  0.12267307820E+02  0.29329146076E+02 -0.15073448602E+02  0.35431157241E+02  0.41800000000E+01 0.  1.
</event>
<event>
11    1  0.7882745E-009  0.1374698E+03  0.7561462E-02  0.1110417E+00
         22   -1    0    0    0    0  0.00000000000E+00  0.00000000000E+00  0.16754900418E+03  0.16754900418E+03  0.00000000000E+00 0. -1.
         22   -1    0    0    0    0 -0.00000000000E+00 -0.00000000000E+00 -0.17807498894E+04  0.17807498894E+04  0.00000000000E+00 0. -1.
         24    2    1    2    0    0  0.16994797312E+02  0.55167107138E+02 -0.16849025236E+04  0.16878622906E+04  0.81549772667E+02 0.  0.
         25    2    1    2    0    0 -0.14022763179E+02 -0.28532723765E+02 -0.24993695507E+02  0.13146418063E+03  0.12508953498E+03 0.  0.
        -24    2    1    2    0    0 -0.29720341337E+01 -0.26634383372E+02  0.96695333840E+02  0.12897242230E+03  0.81028851429E+02 0.  0.
        -11    1    3    3    0    0 -0.28326712002E+02  0.35373597176E+02 -0.54238953362E+03  0.54427943206E+03  0.00000000000E+00 0.  1.
         12    1    3    3    0    0  0.45321509314E+02  0.19793509962E+02 -0.11425129899E+04  0.11435828586E+04  0.00000000000E+00 0. -1.
         13    1    5    5    0    0 -0.55343829835E+01 -0.45323211230E+02  0.99898556530E+02  0.10983872026E+03  0.00000000000E+00 0. -1.
        -14    1    5    5    0    0  0.25623488498E+01  0.18688827858E+02 -0.32032226905E+01  0.19133702045E+02  0.00000000000E+00 0.  1.
          5    1    4    4  501    0 -0.16733483182E+02 -0.26802887608E+01  0.49482780436E+02  0.52471052657E+02  0.41800000000E+01 0. -1.
         -5    1    4    4    0  501  0.27107200035E+01 -0.25852435005E+02 -0.74476475943E+02  0.78993127977E+02  0.41800000000E+01 0. -1.
</event>
<event>
11    1  0.7882745E-009  0.1505450E+03  0.7561462E-02  0.1096323E+00
         22   -1    0    0    0    0  0.00000000000E+00  0.00000000000E+00  0.17241606367E+04  0.17241606367E+04  0.00000000000E+00 0. -1.
         22   -1    0    0    0    0 -0.00000000000E+00 -0.00000000000E+00 -0.13633618445E+03  0.13633618445E+03  0.00000000000E+00 0. -1.
         24    2    1    2    0    0  0.58160288168E+02  0.67528313478E+02 -0.81563740435E+02  0.14505812216E+03  0.80290241055E+02 0.  0.
         25    2    1    2    0    0 -0.70606975148E+02  0.90947234626E+01  0.22731190834E+03  0.26905722289E+03  0.12511205611E+03 0.  0.
        -24    2    1    2    0    0  0.12446686980E+02 -0.76623036941E+02  0.14420762843E+04  0.14463814761E+04  0.80058445705E+02 0.  0.
        -13    1    3    3    0    0 -0.73956887714E+01 -0.81570451639E+01  0.55568539505E+01  0.12333378452E+02  0.00000000000E+00 0.  1.
         14    1    3    3    0    0  0.65555976939E+02  0.75685358642E+02 -0.87120594386E+02  0.13272474370E+03  0.00000000000E+00 0. -1.
         13    1    5    5    0    0 -0.26446336938E+02 -0.16728441609E+01  0.28569631954E+03  0.28692262745E+03  0.00000000000E+00 0. -1.
        -14    1    5    5    0    0  0.38893023918E+02 -0.74950192780E+02  0.11563799648E+04  0.11594588486E+04  0.00000000000E+00 0.  1.
          5    1    4    4  501    0 -0.95243635263E+02  0.40696768341E+02  0.16308131164E+03  0.19323706585E+03  0.41800000000E+01 0.  1.
         -5    1    4    4    0  501  0.24636660115E+02 -0.31602044878E+02  0.64230596696E+02  0.75820157043E+02  0.41800000000E+01 0.  1.
</event>
<event>
11    1  0.7882745E-009  0.1754940E+03  0.7561462E-02  0.1073347E+00
         22   -1    0    0    0    0  0.00000000000E+00  0.00000000000E+00  0.17827699526E+03  0.17827699526E+03  0.00000000000E+00 0. -1.
         22   -1    0    0    0    0 -0.00000000000E+00 -0.00000000000E+00 -0.45354618899E+03  0.45354618899E+03  0.00000000000E+00 0.  1.
         24    2    1    2    0    0 -0.31793491511E+02 -0.24810596331E+02 -0.27955042113E+03  0.29368057817E+03  0.80457766856E+02 0.  0.
         25    2    1    2    0    0  0.12678130853E+03 -0.47169062978E+02 -0.39043876184E+02  0.18831991782E+03  0.12506616843E+03 0.  0.
        -24    2    1    2    0    0 -0.94987817018E+02  0.71979659309E+02  0.43325103592E+02  0.14982268826E+03  0.79787320924E+02 0.  0.
        -11    1    3    3    0    0 -0.31714297449E+02 -0.53024163149E+02 -0.19244264859E+03  0.20211761807E+03  0.00000000000E+00 0.  1.
         12    1    3    3    0    0 -0.79194061551E-01  0.28213566818E+02 -0.87107772546E+02  0.91562960099E+02  0.00000000000E+00 0. -1.
         11    1    5    5    0    0 -0.10468526464E+03  0.63827099026E+02  0.53305076147E+02  0.13369493015E+03  0.00000000000E+00 0. -1.
        -12    1    5    5    0    0  0.96974476254E+01  0.81525602831E+01 -0.99799725553E+01  0.16127758115E+02  0.00000000000E+00 0.  1.
          5    1    4    4  501    0  0.24859094274E+01 -0.12727894310E+02 -0.56480432168E+02  0.58100694119E+02  0.41800000000E+01 0.  1.
         -5    1    4    4    0  501  0.12429539910E+03 -0.34441168668E+02  0.17436555984E+02  0.13021922370E+03  0.41800000000E+01 0.  1.
</event>
<event>
11    1  0.7882745E-009  0.1836792E+03  0.7561462E-02  0.1066705E+00
         22   -1    0    0    0    0  0.00000000000E+00  0.00000000000E+00  0.57113893356E+03  0.57113893356E+03  0.00000000000E+00 0.  1.
         22   -1    0    0    0    0 -0.00000000000E+00 -0.00000000000E+00 -0.67106919095E+03  0.67106919095E+03  0.00000000000E+00 0. -1.
         24    2    1    2    0    0 -0.65866915211E+01  0.11684266296E+03 -0.49386406512E+03  0.51348740017E+03  0.77923057731E+02 0.  0.
         25    2    1    2    0    0  0.53361563342E+02 -0.23393619362E+03 -0.36456016597E+02  0.27303835355E+03  0.12508917713E+03 0.  0.
        -24    2    1    2    0    0 -0.46774871821E+02  0.11709353066E+03  0.43038982433E+03  0.45568237079E+03  0.80698442443E+02 0.  0.
        -13    1    3    3    0    0 -0.25829415597E+02  0.18687814010E+02 -0.56911187959E+02  0.65232479774E+02  0.00000000000E+00 0.  1.
         14    1    3    3    0    0  0.19242724076E+02  0.98154848952E+02 -0.43695287716E+03  0.44825492040E+03  0.00000000000E+00 0. -1.
         11    1    5    5    0    0 -0.23863246024E+02 -0.13938537684E+01  0.35773935525E+02  0.43025246102E+02  0.00000000000E+00 0. -1.
        -12    1    5    5    0    0 -0.22911625796E+02  0.11848738443E+03  0.39461588880E+03  0.41265712469E+03  0.00000000000E+00 0.  1.
          5    1    4    4  501    0 -0.39258150130E+02 -0.91867914156E+02 -0.24638141894E+02  0.10298265116E+03  0.41800000000E+01 0. -1.
         -5    1    4    4    0  501  0.92619713472E+02 -0.14206827947E+03 -0.11817874704E+02  0.17005570239E+03  0.41800000000E+01 0. -1.
</event>
<event>
11    1  0.7882745E-009  0.1293229E+03  0.7561462E-02  0.1120104E+00
         22   -1    0    0    0    0  0.00000000000E+00  0.00000000000E+00  0.33899498058E+03  0.33899498058E+03  0.00000000000E+00 0. -1.
         22   -1    0    0    0    0 -0.00000000000E+00 -0.00000000000E+00 -0.18373496024E+03  0.18373496024E+03  0.00000000000E+00 0. -1.
        -24    2    1    2    0    0 -0.22598685160E+02  0.30240751033E+02 -0.12479451458E+03  0.15362642710E+03  0.81253951531E+02 0.  0.
         25    2    1    2    0    0  0.42522686237E+02 -0.21377662968E+01  0.94427054724E+02  0.16240746310E+03  0.12508783521E+03 0.  0.
         24    2    1    2    0    0 -0.19924001078E+02 -0.28102984736E+02  0.18562748019E+03  0.20669605062E+03  0.84136510321E+02 0.  0.
        -13    1    5    5    0    0 -0.25962258976E+02 -0.33651819073E+02  0.32899652591E+02  0.53748218191E+02  0.00000000000E+00 0.  1.
         14    1    5    5    0    0  0.60382578981E+01  0.55488343367E+01  0.15272782760E+03  0.15294783243E+03  0.00000000000E+00 0. -1.
         13    1    3    3    0    0 -0.30557664948E+02 -0.21223706638E+02 -0.45735750761E+02  0.58957404184E+02  0.00000000000E+00 0. -1.
        -14    1    3    3    0    0  0.79589797879E+01  0.51464457671E+02 -0.79058763820E+02  0.94669022914E+02  0.00000000000E+00 0.  1.
          5    1    4    4  501    0  0.23003485677E+02 -0.14162229499E+01  0.12429115479E+03  0.12647896900E+03  0.41800000000E+01 0. -1.
         -5    1    4    4    0  501  0.19519200560E+02 -0.72154334687E+00 -0.29864100068E+02  0.35928494099E+02  0.41800000000E+01 0. -1.
</event>
<event>
11    1  0.7882745E-009  0.1786459E+03  0.7561462E-02  0.1070743E+00
         22   -1    0    0    0    0  0.00000000000E+00  0.00000000000E+00  0.19460678597E+04  0.19460678597E+04  0.00000000000E+00 0.  1.
         22   -1    0    0    0    0 -0.00000000000E+00 -0.00000000000E+00 -0.35873603489E+03  0.35873603489E+03  0.00000000000E+00 0. -1.
        -24    2    1    2    0    0 -0.14933412100E+02  0.12556537479E+03 -0.29788962597E+03  0.32878170636E+03  0.58047489440E+02 0.  0.
         25    2    1    2    0    0 -0.38876746037E+02 -0.14806448241E+03  0.17865130873E+03  0.26645589012E+03  0.12509180202E+03 0.  0.
         24    2    1    2    0    0  0.53810158137E+02  0.22499107617E+02  0.17065701420E+04  0.17095662981E+04  0.82665198080E+02 0.  0.
        -11    1    5    5    0    0  0.74540347493E+02  0.10495916515E+02  0.11342972716E+04  0.11367922976E+04  0.00000000000E+00 0.  1.
         12    1    5    5    0    0 -0.20730189357E+02  0.12003191103E+02  0.57227287047E+03  0.57277400047E+03  0.00000000000E+00 0. -1.
         11    1    3    3    0    0 -0.67942628661E+01  0.95214611071E+02 -0.15155611561E+03  0.17911236794E+03  0.00000000000E+00 0. -1.
        -12    1    3    3    0    0 -0.81391492341E+01  0.30350763723E+02 -0.14633351036E+03  0.14966933842E+03  0.00000000000E+00 0.  1.
          5    1    4    4  501    0 -0.83203995022E+02 -0.87365973901E+02  0.12662940440E+03  0.17495198382E+03  0.41800000000E+01 0.  1.
         -5    1    4    4    0  501  0.44327248986E+02 -0.60698508510E+02  0.52021904328E+02  0.91503906299E+02  0.41800000000E+01 0.  1.
</event>
<event>
11    1  0.7882745E-009  0.1544570E+03  0.7561462E-02  0.1092410E+00
         22   -1    0    0    0    0  0.00000000000E+00  0.00000000000E+00  0.24407830770E+03  0.24407830770E+03  0.00000000000E+00 0. -1.
         22   -1    0    0    0    0 -0.00000000000E+00 -0.00000000000E+00 -0.11820038585E+04  0.11820038585E+04  0.00000000000E+00 0.  1.
         24    2    1    2    0    0 -0.70408664904E+02 -0.59855321603E+02 -0.10556848313E+04  0.10628011366E+04  0.80844006832E+02 0.  0.
         25    2    1    2    0    0  0.18888638336E+02  0.77420711308E+02 -0.60569287834E+02  0.16020796149E+03  0.12508878886E+03 0.  0.
        -24    2    1    2    0    0  0.51520026568E+02 -0.17565389704E+02  0.17832856834E+03  0.20307306806E+03  0.80465748188E+02 0.  0.
        -11    1    3    3    0    0 -0.27519620362E+02 -0.11741313375E+02 -0.73994089308E+03  0.74054555107E+03  0.00000000000E+00 0.  1.
         12    1    3    3    0    0 -0.42889044542E+02 -0.48114008228E+02 -0.31574393819E+03  0.32225558557E+03  0.00000000000E+00 0. -1.
         11    1    5    5    0    0  0.97605641083E+01 -0.12864118422E+02  0.15332679633E+03  0.15417477299E+03  0.00000000000E+00 0. -1.
        -12    1    5    5    0    0  0.41759462460E+02 -0.47012712822E+01  0.25001772007E+02  0.48898295064E+02  0.00000000000E+00 0.  1.
          5    1    4    4  501    0 -0.22322409124E+02 -0.27131105828E+02 -0.20081314757E+02  0.40683147063E+02  0.41800000000E+01 0. -1.
         -5    1    4    4    0  501  0.41211047461E+02  0.10455181714E+03 -0.40487973077E+02  0.11952481442E+03  0.41800000000E+01 0. -1.
</event>
<event>
11    1  0.7882745E-009  0.2269756E+03  0.7561462E-02  0.1036934E+00
         22   -1    0    0    0    0  0.00000000000E+00  0.00000000000E+00  0.10858746604E+04  0.10858746604E+04  0.00000000000E+00 0.  1.
         22   -1    0    0    0    0 -0.00000000000E+00 -0.00000000000E+00 -0.31065454558E+03  0.31065454558E+03  0.00000000000E+00 0. -1.
        -24    2    1    2    0    0 -0.15936594080E+03 -0.92729136787E+02 -0.22187942735E+03  0.29784769933E+03  0.74071423775E+02 0.  0.
         25    2    1    2    0    0  0.18276364067E+03  0.18302391338E+03  0.42127804980E+03  0.50992365097E+03  0.12508650349E+03 0.  0.
         24    2    1    2    0    0 -0.23397699865E+02 -0.90294776594E+02  0.57582149236E+03  0.58875785567E+03  0.79779837727E+02 0.  0.
        -13    1    5    5    0    0 -0.39864780319E+02 -0.92062152094E+02  0.40933437345E+03  0.42144901215E+03  0.00000000000E+00 0.  1.
         14    1    5    5    0    0  0.16467080454E+02  0.17673755006E+01  0.16648711892E+03  0.16730884352E+03  0.00000000000E+00 0. -1.
         13    1    3    3    0    0 -0.11848777495E+03 -0.30821392160E+02 -0.15846973158E+03  0.20025475489E+03  0.00000000000E+00 0. -1.
        -14    1    3    3    0    0 -0.40878165854E+02 -0.61907744627E+02 -0.63409695764E+02  0.97592944444E+02  0.00000000000E+00 0.  1.
          5    1    4    4  501    0  0.12637914864E+03  0.18655823793E+03  0.37146836442E+03  0.43449037218E+03  0.41800000000E+01 0. -1.
         -5    1    4    4    0  501  0.56384492028E+02 -0.35343245544E+01  0.49809685383E+02  0.75433278792E+02  0.41800000000E+01 0. -1.
</event>
<event>
11    1  0.7882745E-009  0.1415292E+03  0.7561462E-02  0.1105863E+00
         22   -1    0    0    0    0  0.00000000000E+00  0.00000000000E+00  0.82320163363E+03  0.82320163363E+03  0.00000000000E+00 0.  1.
         22   -1    0    0    0    0 -0.00000000000E+00 -0.00000000000E+00 -0.36502642397E+03  0.36502642397E+03  0.00000000000E+00 0. -1.
        -24    2    1    2    0    0  0.25183916590E+02  0.10324661763E+02 -0.33873061008E+03  0.34916930754E+03  0.80249304225E+02 0.  0.
         25    2    1    2    0    0 -0.82221222664E+02 -0.25422342174E+02  0.35749590706E+03  0.38840307393E+03  0.12508796637E+03 0.  0.
         24    2    1    2    0    0  0.57037306074E+02  0.15097680411E+02  0.43940991268E+03  0.45065567614E+03  0.80797727928E+02 0.  0.
        -13    1    5    5    0    0  0.12955678133E+02  0.24699418098E+02  0.34387105282E+03  0.34500030699E+03  0.00000000000E+00 0.  1.
         14    1    5    5    0    0  0.44081627941E+02 -0.96017376865E+01  0.95538859852E+02  0.10565536915E+03  0.00000000000E+00 0. -1.
         11    1    3    3    0    0  0.40432445243E+02  0.36252594606E+02 -0.20228360511E+03  0.20944615093E+03  0.00000000000E+00 0. -1.
        -12    1    3    3    0    0 -0.15248528653E+02 -0.25927932843E+02 -0.13644700497E+03  0.13972315661E+03  0.00000000000E+00 0.  1.
          5    1    4    4  501    0 -0.19954180639E+01 -0.56759888004E+02  0.20965847186E+03  0.21725518130E+03  0.41800000000E+01 0. -1.
         -5    1    4    4    0  501 -0.80225804600E+02  0.31337545830E+02  0.14783743521E+03  0.17114789263E+03  0.41800000000E+01 0. -1.
</event>
<event>
11    1  0.7882745E-009  0.1414670E+03  0.7561462E-02  0.1105931E+00
         22   -1    0    0    0    0  0.00000000000E+00  0.00000000000E+00  0.95599868180E+02  0.95599868180E+02  0.00000000000E+00 0.  1.
         22   -1    0    0    0    0 -0.00000000000E+00 -0.00000000000E+00 -0.18129428831E+04  0.18129428831E+04  0.00000000000E+00 0.  1.
        -24    2    1    2    0    0 -0.10630216400E+02  0.38736752190E+02 -0.13444145470E+04  0.13480241280E+04  0.90027984669E+02 0.  0.
         25    2    1    2    0    0  0.24937163548E+02  0.28325936696E+02 -0.42373925209E+03  0.44342888848E+03  0.12509997827E+03 0.  0.
         24    2    1    2    0    0 -0.14306947147E+02 -0.67062688887E+02  0.50810784111E+02  0.11708973485E+03  0.80163440847E+02 0.  0.
        -13    1    5    5    0    0 -0.11677663142E+02 -0.81480734328E+02  0.58069335145E+02  0.10073492725E+03  0.00000000000E+00 0.  1.
         14    1    5    5    0    0 -0.26292840051E+01  0.14418045441E+02 -0.72585510346E+01  0.16354807606E+02  0.00000000000E+00 0. -1.
         13    1    3    3    0    0 -0.67284175653E+01  0.65519252542E+02 -0.71477236496E+03  0.71780051391E+03  0.00000000000E+00 0. -1.
        -14    1    3    3    0    0 -0.39017988351E+01 -0.26782500352E+02 -0.62964218200E+03  0.63022361405E+03  0.00000000000E+00 0.  1.
          5    1    4    4  501    0  0.24755532017E+02 -0.43025136226E+02 -0.97923811753E+02  0.10986602760E+03  0.41800000000E+01 0. -1.
         -5    1    4    4    0  501  0.18163153064E+00  0.71351072922E+02 -0.32581544034E+03  0.33356286088E+03  0.41800000000E+01 0. -1.
</event>
<event>
11    1  0.7882745E-009  0.2160008E+03  0.7561462E-02  0.1043752E+00
         22   -1    0    0    0    0  0.00000000000E+00  0.00000000000E+00  0.31243908750E+03  0.31243908750E+03  0.00000000000E+00 0. -1.
         22   -1    0    0    0    0 -0.00000000000E+00 -0.00000000000E+00 -0.26816584106E+03  0.26816584106E+03  0.00000000000E+00 0. -1.
         24    2    1    2    0    0 -0.19454055116E+03  0.13637593108E+03  0.57464803732E+01  0.25124840283E+03  0.81537213999E+02 0.  0.
         25    2    1    2    0    0  0.96039625857E+02 -0.97263490465E+02 -0.16344439534E+02  0.18600597061E+03  0.12508910459E+03 0.  0.
        -24    2    1    2    0    0  0.98500925299E+02 -0.39112440619E+02  0.54871205608E+02  0.14335055511E+03  0.79412323667E+02 0.  0.
        -13    1    3    3    0    0 -0.12855930225E+02  0.11560446178E+02 -0.23194504451E+02  0.28929291290E+02  0.00000000000E+00 0.  1.
         14    1    3    3    0    0 -0.18168462093E+03  0.12481548491E+03  0.28940984825E+02  0.22231911154E+03  0.00000000000E+00 0. -1.
         11    1    5    5    0    0  0.98371750177E+02 -0.53615692228E+02  0.32435396689E+02  0.11663489463E+03  0.00000000000E+00 0. -1.
        -12    1    5    5    0    0  0.12917512285E+00  0.14503251609E+02  0.22435808918E+02  0.26715660487E+02  0.00000000000E+00 0.  1.
          5    1    4    4  501    0  0.29717960274E+02  0.21829298128E+02  0.23501381297E+02  0.43925650166E+02  0.41800000000E+01 0. -1.
         -5    1    4    4    0  501  0.66321665583E+02 -0.11909278859E+03 -0.39845820832E+02  0.14208032045E+03  0.41800000000E+01 0. -1.
</event>
<event>
11    1  0.7882745E-009  0.1413448E+03  0.7561462E-02  0.1106066E+00
         22   -1    0    0    0    0  0.00000000000E+00  0.00000000000E+00  0.11540365906E+04  0.11540365906E+04  0.00000000000E+00 0. -1.
         22   -1    0    0    0    0 -0.00000000000E+00 -0.00000000000E+00 -0.16870379417E+03  0.16870379417E+03  0.00000000000E+00 0.  1.
         24    2    1    2    0    0 -0.56188150263E+02 -0.32235464026E+02 -0.13769012676E+03  0.16847251913E+03  0.72306191463E+02 0.  0.
         25    2    1    2    0    0  0.80899912674E+02  0.63721228204E+02  0.52956809362E+03  0.55380107765E+03  0.12509227406E+03 0.  0.
        -24    2    1    2    0    0 -0.24711762411E+02 -0.31485764178E+02  0.59345482959E+03  0.60046678801E+03  0.82278212154E+02 0.  0.
        -11    1    3    3    0    0 -0.11002747008E+02  0.10842506941E+02 -0.86129616472E+02  0.87503892669E+02  0.00000000000E+00 0.  1.
         12    1    3    3    0    0 -0.45185403255E+02 -0.43077970967E+02 -0.51560510289E+02  0.80968626462E+02  0.00000000000E+00 0. -1.
         13    1    5    5    0    0 -0.46906952771E+02 -0.44244661949E+02  0.37326131815E+03  0.37878999981E+03  0.00000000000E+00 0. -1.
        -14    1    5    5    0    0  0.22195190360E+02  0.12758897771E+02  0.22019351144E+03  0.22167678820E+03  0.00000000000E+00 0.  1.
          5    1    4    4  501    0 -0.20756667003E+02  0.24748619872E+01  0.23833684824E+03  0.23928829849E+03  0.41800000000E+01 0.  1.
         -5    1    4    4    0  501  0.10165657968E+03  0.61246366217E+02  0.29123124538E+03  0.31451277916E+03  0.41800000000E+01 0.  1.
</event>
<event>
11    1  0.7882745E-009  0.1781033E+03  0.7561462E-02  0.1071187E+00
         22   -1    0    0    0    0  0.00000000000E+00  0.00000000000E+00  0.14657668807E+04  0.14657668807E+04  0.00000000000E+00 0.  1.
         22   -1    0    0    0    0 -0.00000000000E+00 -0.00000000000E+00 -0.78723446123E+03  0.78723446123E+03  0.00000000000E+00 0. -1.
         24    2    1    2    0    0 -0.92949014863E+02  0.86896777763E+02 -0.76641582242E+03  0.78099542501E+03  0.79812728824E+02 0.  0.
         25    2    1    2    0    0  0.82366524750E+02 -0.47305627236E+02  0.53052479998E+03  0.55328655011E+03  0.12508947346E+03 0.  0.
        -24    2    1    2    0    0  0.10582490113E+02 -0.39591150527E+02  0.91442344195E+03  0.91871936685E+03  0.78712105415E+02 0.  0.
        -11    1    3    3    0    0 -0.81140542226E+01 -0.12455323656E+02 -0.35353871822E+02  0.38351912809E+02  0.00000000000E+00 0.  1.
         12    1    3    3    0    0 -0.84834960640E+02  0.99352101419E+02 -0.73106195060E+03  0.74264351220E+03  0.00000000000E+00 0. -1.
         11    1    5    5    0    0  0.98162233045E+01 -0.44178071578E+01  0.14250737591E+02  0.17859417178E+02  0.00000000000E+00 0. -1.
        -12    1    5    5    0    0  0.76626680854E+00 -0.35173343369E+02  0.90017270436E+03  0.90085994967E+03  0.00000000000E+00 0.  1.
          5    1    4    4  501    0 -0.65663531501E+01 -0.57516985578E+02  0.12274705822E+03  0.13577788232E+03  0.41800000000E+01 0. -1.
         -5    1    4    4    0  501  0.88932877900E+02  0.10211358342E+02  0.40777774175E+03  0.41750866779E+03  0.41800000000E+01 0. -1.
</event>
<event>
11    1  0.7882745E-009  0.2123077E+03  0.7561462E-02  0.1046146E+00
         22   -1    0    0    0    0  0.00000000000E+00  0.00000000000E+00  0.17490810763E+04  0.17490810763E+04  0.00000000000E+00 0. -1.
         22   -1    0    0    0    0 -0.00000000000E+00 -0.00000000000E+00 -0.53403958789E+03  0.53403958789E+03  0.00000000000E+00 0.  1.
         24    2    1    2    0    0  0.10329184028E+03  0.13711004057E+03 -0.50316728950E+03  0.53769441952E+03  0.80433824134E+02 0.  0.
         25    2    1    2    0    0 -0.87888177986E+02 -0.14060265107E+03  0.92184214241E+03  0.94495125475E+03  0.12508597442E+03 0.  0.
        -24    2    1    2    0    0 -0.15403662299E+02  0.34926104926E+01  0.79636663548E+03  0.80047498992E+03  0.79441300595E+02 0.  0.
        -13    1    3    3    0    0  0.95107071762E+02  0.14390943140E+03 -0.42293411272E+03  0.45675873637E+03  0.00000000000E+00 0.  1.
         14    1    3    3    0    0  0.81847685221E+01 -0.67993908259E+01 -0.80233176773E+02  0.80935683147E+02  0.00000000000E+00 0. -1.
         13    1    5    5    0    0 -0.22274053191E+02 -0.78312280862E+00  0.78963332307E+03  0.78994780310E+03  0.00000000000E+00 0. -1.
        -14    1    5    5    0    0  0.68703908922E+01  0.42757333012E+01  0.67333124166E+01  0.10527186821E+02  0.00000000000E+00 0.  1.
          5    1    4    4  501    0 -0.88339363589E+02 -0.12712148578E+03  0.51296814975E+03  0.53583347260E+03  0.41800000000E+01 0.  1.
         -5    1    4    4    0  501  0.45118560318E+00 -0.13481165289E+02  0.40887399267E+03  0.40911778214E+03  0.41800000000E+01 0.  1.
</event>
<event>
11    1  0.7882745E-009  0.1595961E+03  0.7561462E-02  0.1087458E+00
         22   -1    0    0    0    0  0.00000000000E+00  0.00000000000E+00  0.11472435949E+04  0.11472435949E+04  0.00000000000E+00 0.  1.
         22   -1    0    0    0    0 -0.00000000000E+00 -0.00000000000E+00 -0.83080413903E+03  0.83080413903E+03  0.00000000000E+00 0.  1.
         24    2    1    2    0    0 -0.93992840253E+02  0.57296222612E+01 -0.68183360279E+03  0.69434486463E+03  0.91379683477E+02 0.  0.
         25    2    1    2    0    0  0.15473242590E+03 -0.63418907808E+01 -0.69700057138E+02  0.21092569342E+03  0.12509679044E+03 0.  0.
        -24    2    1    2    0    0 -0.60739585646E+02  0.61226851957E+00  0.10679731158E+04  0.10727771758E+04  0.81207270979E+02 0.  0.
        -11    1    3    3    0    0 -0.83553596155E+02  0.35254686926E+02 -0.59830359810E+03  0.60513741570E+03  0.00000000000E+00 0.  1.
         12    1    3    3    0    0 -0.10439244097E+02 -0.29525064665E+02 -0.83530004691E+02  0.89207448929E+02  0.00000000000E+00 0. -1.
         13    1    5    5    0    0 -0.13626750856E+02  0.13171738993E+01  0.23171176704E+02  0.26913318559E+02  0.00000000000E+00 0. -1.
        -14    1    5    5    0    0 -0.47112834790E+02 -0.70490537971E+00  0.10448019391E+04  0.10458638573E+04  0.00000000000E+00 0.  1.
          5    1    4    4  501    0  0.30734807290E+02  0.38436182468E+02  0.17956861829E+02  0.52553684825E+02  0.41800000000E+01 0. -1.
         -5    1    4    4    0  501  0.12399761861E+03 -0.44778073249E+02 -0.87656918967E+02  0.15837200860E+03  0.41800000000E+01 0. -1.
</event>
<event>
11    1  0.7882745E-009  0.1305466E+03  0.7561462E-02  0.1118599E+00
         22   -1    0    0    0    0  0.00000000000E+00  0.00000000000E+00  0.95994667375E+03  0.95994667375E+03  0.00000000000E+00 0.  1.
         22   -1    0    0    0    0 -0.00000000000E+00 -0.00000000000E+00 -0.31794643630E+03  0.31794643630E+03  0.00000000000E+00 0.  1.
         24    2    1    2    0    0 -0.10059974597E+02  0.36148714195E+02 -0.29054486293E+03  0.30320996978E+03  0.78179509909E+02 0.  0.
         25    2    1    2    0    0  0.26168489208E+02 -0.24296960203E+02  0.20669674003E+03  0.24422820933E+03  0.12509493911E+03 0.  0.
        -24    2    1    2    0    0 -0.16108514611E+02 -0.11851753992E+02  0.72584836036E+03  0.73045493094E+03  0.79426793869E+02 0.  0.
        -13    1    3    3    0    0  0.80069783249E-01 -0.80658609377E+01 -0.21458081279E+03  0.21473236770E+03  0.00000000000E+00 0.  1.
         14    1    3    3    0    0 -0.10140044380E+02  0.44214575132E+02 -0.75964050147E+02  0.88477602075E+02  0.00000000000E+00 0. -1.
         11    1    5    5    0    0 -0.41026328542E+02  0.58696880452E+01  0.23286675634E+03  0.23652597971E+03  0.00000000000E+00 0. -1.
        -12    1    5    5    0    0  0.24917813930E+02 -0.17721442037E+02  0.49298160402E+03  0.49392895123E+03  0.00000000000E+00 0.  1.
          5    1    4    4  501    0 -0.19082211146E+02 -0.79704156947E+01 -0.91859553960E+01  0.23011138283E+02  0.41800000000E+01 0.  1.
         -5    1    4    4    0  501  0.45250700354E+02 -0.16326544508E+02  0.21588269542E+03  0.22121707104E+03  0.41800000000E+01 0.  1.
</event>
<event>
11    1  0.7882745E-009  0.2352014E+03  0.7561462E-02  0.1032092E+00
         22   -1    0    0    0    0  0.00000000000E+00  0.00000000000E+00  0.42037642313E+03  0.42037642313E+03  0.00000000000E+00 0. -1.
         22   -1    0    0    0    0 -0.00000000000E+00 -0.00000000000E+00 -0.13155184585E+04  0.13155184585E+04  0.00000000000E+00 0.  1.
         24    2    1    2    0    0 -0.38817117676E+01 -0.73593887959E+02 -0.10854914550E+04  0.10910196178E+04  0.81246412114E+02 0.  0.
         25    2    1    2    0    0  0.18610104695E+03  0.14169490538E+03 -0.10231199628E+03  0.28430004330E+03  0.12509086358E+03 0.  0.
        -24    2    1    2    0    0 -0.18221933519E+03 -0.68101017417E+02  0.29266141590E+03  0.36057522056E+03  0.80759833071E+02 0.  0.
        -13    1    3    3    0    0 -0.12573534926E+02 -0.69164497248E+02 -0.10723566697E+04  0.10746583869E+04  0.00000000000E+00 0.  1.
         14    1    3    3    0    0  0.86918231583E+01 -0.44293907113E+01 -0.13134785354E+02  0.16361230949E+02  0.00000000000E+00 0. -1.
         13    1    5    5    0    0 -0.18098919845E+03 -0.57613109015E+02  0.29390978339E+03  0.34994188240E+03  0.00000000000E+00 0. -1.
        -14    1    5    5    0    0 -0.12301367379E+01 -0.10487908402E+02 -0.12483674913E+01  0.10633338161E+02  0.00000000000E+00 0.  1.
          5    1    4    4  501    0  0.14020419033E+03  0.10915834294E+03 -0.12417394684E+02  0.17816964643E+03  0.41800000000E+01 0. -1.
         -5    1    4    4    0  501  0.45896856622E+02  0.32536562437E+02 -0.89894601597E+02  0.10613039687E+03  0.41800000000E+01 0. -1.
</event>
<event>
11    1  0.7882745E-009  0.1321068E+03  0.7561462E-02  0.1116707E+00
         22   -1    0    0    0    0  0.00000000000E+00  0.00000000000E+00  0.15939858623E+03  0.15939858623E+03  0.00000000000E+00 0.  1.
         22   -1    0    0    0    0 -0.00000000000E+00 -0.00000000000E+00 -0.84767442221E+03  0.84767442221E+03  0.00000000000E+00 0.  1.
         24    2    1    2    0    0 -0.28389796303E+02  0.38583664497E+01 -0.55686709599E+03  0.56346320940E+03  0.81049109948E+02 0.  0.
         25    2    1    2    0    0  0.39716277083E+02  0.36871039651E+02 -0.25661263407E+03  0.29057543810E+03  0.12508870865E+03 0.  0.
        -24    2    1    2    0    0 -0.11326480780E+02 -0.40729406100E+02  0.12520389408E+03  0.15303436095E+03  0.77177243078E+02 0.  0.
        -13    1    3    3    0    0 -0.45700276283E+02 -0.23809752306E+02 -0.39424221455E+03  0.39759570331E+03  0.00000000000E+00 0.  1.
         14    1    3    3    0    0  0.17310479980E+02  0.27668118756E+02 -0.16262488144E+03  0.16586750609E+03  0.00000000000E+00 0. -1.
         11    1    5    5    0    0  0.29536786088E+02 -0.45403742082E+01  0.66324157800E+02  0.72745657177E+02  0.00000000000E+00 0. -1.
        -12    1    5    5    0    0 -0.40863266868E+02 -0.36189031892E+02  0.58879736282E+02  0.80288703770E+02  0.00000000000E+00 0.  1.
          5    1    4    4  501    0 -0.22751355019E+02 -0.14436321319E+02 -0.69789613590E+01  0.28146222305E+02  0.41800000000E+01 0.  1.
         -5    1    4    4    0  501  0.62467632101E+02  0.51307360970E+02 -0.24963367271E+03  0.26242921580E+03  0.41800000000E+01 0.  1.
</event>
<event>
11    1  0.7882745E-009  0.2231954E+03  0.7561462E-02  0.1039234E+00
         22   -1    0    0    0    0  0.00000000000E+00  0.00000000000E+00  0.46437325653E+03  0.46437325653E+03  0.00000000000E+00 0.  1.
         22   -1    0    0    0    0 -0.00000000000E+00 -0.00000000000E+00 -0.56261369901E+03  0.56261369901E+03  0.00000000000E+00 0. -1.
        -24    2    1    2    0    0 -0.15267320574E+03  0.82169285899E+02 -0.30914559481E+03  0.36356290399E+03  0.80907892515E+02 0.  0.
         25    2    1    2    0    0  0.15921245706E+03 -0.15470003334E+03 -0.14389044295E+03  0.29263005527E+03  0.12508870004E+03 0.  0.
         24    2    1    2    0    0 -0.65392513165E+01  0.72530747443E+02  0.35479559527E+03  0.37079399628E+03  0.79402784094E+02 0.  0.
        -11    1    5    5    0    0  0.21432942354E+02  0.75384045300E+02  0.23424572505E+03  0.24700847153E+03  0.00000000000E+00 0.  1.
         12    1    5    5    0    0 -0.27972193670E+02 -0.28532978569E+01  0.12054987022E+03  0.12378552475E+03  0.00000000000E+00 0. -1.
         13    1    3    3    0    0 -0.97374778971E+02  0.55576761878E+02 -0.26567685113E+03  0.28836576300E+03  0.00000000000E+00 0. -1.
        -14    1    3    3    0    0 -0.55298426769E+02  0.26592524021E+02 -0.43468743680E+02  0.75197140996E+02  0.00000000000E+00 0.  1.
          5    1    4    4  501    0  0.90511676369E+02 -0.97360167786E+02 -0.12471729032E+02  0.13358286662E+03  0.41800000000E+01 0. -1.
         -5    1    4    4    0  501  0.68700780688E+02 -0.57339865555E+02 -0.13141871391E+03  0.15904718864E+03  0.41800000000E+01 0. -1.
</event>
<event>
11    1  0.7882745E-009  0.1354435E+03  0.7561462E-02  0.1112756E+00
         22   -1    0    0    0    0  0.00000000000E+00  0.00000000000E+00  0.86475905611E+03  0.86475905611E+03  0.00000000000E+00 0.  1.
         22   -1    0    0    0    0 -0.00000000000E+00 -0.00000000000E+00 -0.11006479051E+03  0.11006479051E+03  0.00000000000E+00 0.  1.
         24    2    1    2    0    0  0.37532008482E+02  0.32603767078E+02 -0.65982571028E+02  0.11634423576E+03  0.81918399799E+02 0.  0.
         25    2    1    2    0    0 -0.59767818134E+02 -0.72597144733E+02  0.44936800356E+03  0.47583721621E+03  0.12508763406E+03 0.  0.
        -24    2    1    2    0    0  0.22235809651E+02  0.39993377655E+02  0.37130883306E+03  0.38264239466E+03  0.80318436196E+02 0.  0.
        -11    1    3    3    0    0 -0.24522559708E+01  0.31091489233E+02 -0.69500017718E+02  0.76177074798E+02  0.00000000000E+00 0.  1.
         12    1    3    3    0    0  0.39984264453E+02  0.15122778450E+01  0.35174466898E+01  0.40167160957E+02  0.00000000000E+00 0. -1.
         11    1    5    5    0    0 -0.29992577941E+02  0.11379338679E+02  0.15504407301E+03  0.15832785180E+03  0.00000000000E+00 0. -1.
        -12    1    5    5    0    0  0.52228387592E+02  0.28614038976E+02  0.21626476005E+03  0.22431454285E+03  0.00000000000E+00 0.  1.
          5    1    4    4  501    0  0.25580246723E+02 -0.27603158113E+02  0.26515774251E+03  0.26784768838E+03  0.41800000000E+01 0.  1.
         -5    1    4    4    0  501 -0.85348064857E+02 -0.44993986620E+02  0.18421026106E+03  0.20798952783E+03  0.41800000000E+01 0.  1.
</event>
<event>
11    1  0.7882745E-009  0.1966685E+03  0.7561462E-02  0.1056905E+00
         22   -1    0    0    0    0  0.00000000000E+00  0.00000000000E+00  0.10312731262E+04  0.10312731262E+04  0.00000000000E+00 0. -1.
         22   -1    0    0    0    0 -0.00000000000E+00 -0.00000000000E+00 -0.66931967956E+03  0.66931967956E+03  0.00000000000E+00 0. -1.
         24    2    1    2    0    0  0.16267054011E+02  0.48497197655E+02 -0.61930674462E+03  0.62775238354E+03  0.88969747010E+02 0.  0.
         25    2    1    2    0    0 -0.11335286920E+03  0.75696196298E+02  0.20340423503E+03  0.27495388249E+03  0.12509023773E+03 0.  0.
        -24    2    1    2    0    0  0.97085815187E+02 -0.12419339395E+03  0.77785595623E+03  0.79788653974E+03  0.81935261323E+02 0.  0.
        -11    1    3    3    0    0 -0.28535501892E+02  0.36760855855E+02 -0.17656193475E+03  0.18259176376E+03  0.00000000000E+00 0.  1.
         12    1    3    3    0    0  0.44802555902E+02  0.11736341800E+02 -0.44274480987E+03  0.44516061978E+03  0.00000000000E+00 0. -1.
         13    1    5    5    0    0  0.91007469504E+02 -0.12458157486E+03  0.77645790135E+03  0.79163741756E+03  0.00000000000E+00 0. -1.
        -14    1    5    5    0    0  0.60783456823E+01  0.38818091131E+00  0.13980548758E+01  0.62491221855E+01  0.00000000000E+00 0.  1.
          5    1    4    4  501    0 -0.15075035165E+02 -0.18543171281E+02  0.10275600400E+03  0.10558112826E+03  0.41800000000E+01 0.  1.
         -5    1    4    4    0  501 -0.98277834032E+02  0.94239367579E+02  0.10064823103E+03  0.16937275422E+03  0.41800000000E+01 0.  1.
</event>
<event>
11    1  0.7882745E-009  0.1409437E+03  0.7561462E-02  0.1106509E+00
         22   -1    0    0    0    0  0.00000000000E+00  0.00000000000E+00  0.22714146907E+04  0.22714146907E+04  0.00000000000E+00 0.  1.
         22   -1    0    0    0    0 -0.00000000000E+00 -0.00000000000E+00 -0.58562465839E+03  0.58562465839E+03  0.00000000000E+00 0. -1.
         24    2    1    2    0    0 -0.32939066282E+02 -0.59304664322E+02 -0.49560236785E+03  0.50530505322E+03  0.71480518296E+02 0.  0.
         25    2    1    2    0    0  0.29696726269E+02  0.23052821793E+02 -0.33699096498E+02  0.13489555066E+03  0.12509137595E+03 0.  0.
        -24    2    1    2    0    0  0.32423400128E+01  0.36251842529E+02  0.22150914967E+04  0.22168387452E+04  0.80118504910E+02 0.  0.
        -11    1    3    3    0    0 -0.69145819196E+01 -0.20009314061E+01 -0.16834319256E+01  0.73925038155E+01  0.00000000000E+00 0.  1.
         12    1    3    3    0    0 -0.26024484362E+02 -0.57303732916E+02 -0.49391893593E+03  0.49791254941E+03  0.00000000000E+00 0. -1.
         13    1    5    5    0    0 -0.23556267494E+02 -0.71982439587E+01  0.28211345660E+03  0.28318671376E+03  0.00000000000E+00 0. -1.
        -14    1    5    5    0    0  0.26798607506E+02  0.43450086488E+02  0.19329780401E+04  0.19336520314E+04  0.00000000000E+00 0.  1.
          5    1    4    4  501    0  0.95419547839E+01 -0.40436980828E+02 -0.51031651999E+02  0.65938609520E+02  0.41800000000E+01 0.  1.
         -5    1    4    4    0  501  0.20154771485E+02  0.63489802622E+02  0.17332555501E+02  0.68956941136E+02  0.41800000000E+01 0.  1.
</event>
<event>
11    1  0.7882745E-009  0.1559588E+03  0.7561462E-02  0.1090941E+00
         22   -1    0    0    0    0  0.00000000000E+00  0.00000000000E+00  0.93837566766E+02  0.93837566766E+02  0.00000000000E+00 0. -1.
         22   -1    0    0    0    0 -0.00000000000E+00 -0.00000000000E+00 -0.93924324728E+03  0.93924324728E+03  0.00000000000E+00 0.  1.
         24    2    1    2    0    0 -0.31083005050E+02 -0.84438014705E+02 -0.69011762904E+03  0.70050708413E+03  0.79698817277E+02 0.  0.
         25    2    1    2    0    0  0.73867622696E+02  0.95525167598E+02 -0.16403358721E+03  0.23903000003E+03  0.12508732890E+03 0.  0.
        -24    2    1    2    0    0 -0.42784617646E+02 -0.11087152893E+02  0.87455357336E+01  0.93543729892E+02  0.81978634658E+02 0.  0.
        -11    1    3    3    0    0 -0.20370405538E+02 -0.99416726914E+02 -0.56499821199E+03  0.57403973605E+03  0.00000000000E+00 0.  1.
         12    1    3    3    0    0 -0.10712599512E+02  0.14978712209E+02 -0.12511941706E+03  0.12646734809E+03  0.00000000000E+00 0. -1.
         13    1    5    5    0    0  0.47897772735E+00 -0.28523584093E+02  0.30770554530E+02  0.41960115530E+02  0.00000000000E+00 0. -1.
        -14    1    5    5    0    0 -0.43263595374E+02  0.17436431200E+02 -0.22025018797E+02  0.51583614362E+02  0.00000000000E+00 0.  1.
          5    1    4    4  501    0  0.32866688203E+02 -0.10383405329E+02  0.52729795581E+01  0.35118528060E+02  0.41800000000E+01 0. -1.
         -5    1    4    4    0  501  0.41000934493E+02  0.10590857293E+03 -0.16930656677E+03  0.20391147197E+03  0.41800000000E+01 0. -1.
</event>
<event>
11    1  0.7882745E-009  0.1618354E+03  0.7561462E-02  0.1085364E+00
         22   -1    0    0    0    0  0.00000000000E+00  0.00000000000E+00  0.12854549027E+04  0.12854549027E+04  0.00000000000E+00 0.  1.
         22   -1    0    0    0    0 -0.00000000000E+00 -0.00000000000E+00 -0.31733068367E+03  0.31733068367E+03  0.00000000000E+00 0. -1.
        -24    2    1    2    0    0 -0.19009777603E+02  0.26288719866E+02 -0.28566088772E+03  0.29851307261E+03  0.80345773407E+02 0.  0.
         25    2    1    2    0    0  0.10157362276E+03  0.34553887843E+02  0.30527312439E+03  0.34691952736E+03  0.12510118296E+03 0.  0.
         24    2    1    2    0    0 -0.82563845160E+02 -0.60842607709E+02  0.94851198241E+03  0.95735298645E+03  0.79568514188E+02 0.  0.
        -11    1    5    5    0    0 -0.33351220900E+02 -0.24663760955E+02  0.70773019973E+03  0.70894473737E+03  0.00000000000E+00 0.  1.
         12    1    5    5    0    0 -0.49212624260E+02 -0.36178846754E+02  0.24078178268E+03  0.24840824908E+03  0.00000000000E+00 0. -1.
         11    1    3    3    0    0 -0.49470652256E+02  0.19705852378E+02 -0.21085554283E+03  0.21747580554E+03  0.00000000000E+00 0. -1.
        -12    1    3    3    0    0  0.30460874652E+02  0.65828674883E+01 -0.74805344893E+02  0.81037267066E+02  0.00000000000E+00 0.  1.
          5    1    4    4  501    0  0.10100720081E+03  0.52993323144E+00  0.29389471443E+03  0.31079625322E+03  0.41800000000E+01 0. -1.
         -5    1    4    4    0  501  0.56642194872E+00  0.34023954611E+02  0.11378409964E+02  0.36123274139E+02  0.41800000000E+01 0. -1.
</event>
<event>
11    1  0.7882745E-009  0.1320949E+03  0.7561462E-02  0.1116721E+00
         22   -1    0    0    0    0  0.00000000000E+00  0.00000000000E+00  0.11561823405E+03  0.11561823405E+03  0.00000000000E+00 0.  1.
         22   -1    0    0    0    0 -0.00000000000E+00 -0.00000000000E+00 -0.11681110862E+04  0.11681110862E+04  0.00000000000E+00 0.  1.
        -24    2    1    2    0    0  0.41144635738E+02 -0.63357760677E+02 -0.12601543041E+03  0.16851667892E+03  0.82528149655E+02 0.  0.
         25    2    1    2    0    0  0.34902967088E+02 -0.18097693304E+02 -0.96388941532E+03  0.97276732166E+03  0.12509082104E+03 0.  0.
         24    2    1    2    0    0 -0.76047602826E+02  0.81455453981E+02  0.37411993586E+02  0.14244531966E+03  0.80453607449E+02 0.  0.
        -11    1    5    5    0    0 -0.66463415205E+02  0.96564742964E+02  0.41012405992E+02  0.12419401189E+03  0.00000000000E+00 0.  1.
         12    1    5    5    0    0 -0.95841876204E+01 -0.15109288983E+02 -0.36004124065E+01  0.18251307773E+02  0.00000000000E+00 0. -1.
         11    1    3    3    0    0 -0.14776553858E+02 -0.15893675967E+02 -0.77727413653E+02  0.80700101070E+02  0.00000000000E+00 0. -1.
        -12    1    3    3    0    0  0.55921189596E+02 -0.47464084710E+02 -0.48288016756E+02  0.87816577850E+02  0.00000000000E+00 0.  1.
          5    1    4    4  501    0  0.63018523804E+02  0.33434947660E+02 -0.47425676858E+03  0.47961045131E+03  0.41800000000E+01 0.  1.
         -5    1    4    4    0  501 -0.28115556716E+02 -0.51532640964E+02 -0.48963264675E+03  0.49315687035E+03  0.41800000000E+01 0.  1.
</event>
<event>
11    1  0.7882745E-009  0.1619529E+03  0.7561462E-02  0.1085255E+00
         22   -1    0    0    0    0  0.00000000000E+00  0.00000000000E+00  0.59924125009E+03  0.59924125009E+03  0.00000000000E+00 0.  1.
         22   -1    0    0    0    0 -0.00000000000E+00 -0.00000000000E+00 -0.52985110095E+03  0.52985110095E+03  0.00000000000E+00 0. -1.
        -24    2    1    2    0    0  0.97901659021E+02  0.15612540839E+02 -0.43553651655E+03  0.45864571452E+03  0.10409297731E+03 0.  0.
         25    2    1    2    0    0 -0.14371167323E+03  0.11576718829E+02  0.39077840970E+02  0.19483666071E+03  0.12508869357E+03 0.  0.
         24    2    1    2    0    0  0.45810014213E+02 -0.27189259668E+02  0.46584882473E+03  0.47560997581E+03  0.79698860422E+02 0.  0.
        -11    1    5    5    0    0  0.67400766655E+02 -0.23896837647E+02  0.39669979091E+03  0.40309384305E+03  0.00000000000E+00 0.  1.
         12    1    5    5    0    0 -0.21590752442E+02 -0.32924220212E+01  0.69149033818E+02  0.72516132769E+02  0.00000000000E+00 0. -1.
         11    1    3    3    0    0  0.10454322350E+03 -0.40231758300E+01 -0.41974623569E+03  0.43258799555E+03  0.00000000000E+00 0. -1.
        -12    1    3    3    0    0 -0.66415644794E+01  0.19635716669E+02 -0.15790280862E+02  0.26057718962E+02  0.00000000000E+00 0.  1.
          5    1    4    4  501    0 -0.10991658528E+03 -0.16367767947E+02  0.78177236910E+02  0.13593642749E+03  0.41800000000E+01 0. -1.
         -5    1    4    4    0  501 -0.33795087951E+02  0.27944486776E+02 -0.39099395940E+02  0.58900233223E+02  0.41800000000E+01 0. -1.
</event>
<event>
11    1  0.7882745E-009  0.3125992E+03  0.7561462E-02  0.9949956E-01
         22   -1    0    0    0    0  0.00000000000E+00  0.00000000000E+00  0.23319871037E+03  0.23319871037E+03  0.00000000000E+00 0. -1.
         22   -1    0    0    0    0 -0.00000000000E+00 -0.00000000000E+00 -0.27367295960E+03  0.27367295960E+03  0.00000000000E+00 0. -1.
         24    2    1    2    0    0  0.43292710680E+02  0.13659922415E+03 -0.25234706748E+02  0.16719224583E+03  0.82358058523E+02 0.  0.
         25    2    1    2    0    0  0.76857122464E+02 -0.12156550790E+02 -0.24328091750E+02  0.14931168908E+03  0.12508926991E+03 0.  0.
        -24    2    1    2    0    0 -0.12014983314E+03 -0.12444267336E+03  0.90885492690E+01  0.19036773506E+03  0.78963988403E+02 0.  0.
        -11    1    3    3    0    0  0.14050112556E+02  0.38509632379E+02 -0.47189930874E+02  0.62508295647E+02  0.00000000000E+00 0.  1.
         12    1    3    3    0    0  0.29242598125E+02  0.98089591774E+02  0.21955224125E+02  0.10468395018E+03  0.00000000000E+00 0. -1.
         11    1    5    5    0    0 -0.42686430575E+02 -0.10030561634E+03  0.46716392756E+01  0.10911082548E+03  0.00000000000E+00 0. -1.
        -12    1    5    5    0    0 -0.77463402568E+02 -0.24137057024E+02  0.44169099934E+01  0.81256909572E+02  0.00000000000E+00 0.  1.
          5    1    4    4  501    0  0.10863241636E+03  0.29223494614E+01 -0.31397982433E+02  0.11319385015E+03  0.41800000000E+01 0.  1.
         -5    1    4    4    0  501 -0.31775293895E+02 -0.15078900251E+02  0.70698906832E+01  0.36117838933E+02  0.41800000000E+01 0.  1.
</event>
<event>
11    1  0.7882745E-009  0.1385603E+03  0.7561462E-02  0.1109177E+00
         22   -1    0    0    0    0  0.00000000000E+00  0.00000000000E+00  0.30431280138E+03  0.30431280138E+03  0.00000000000E+00 0. -1.
         22   -1    0    0    0    0 -0.00000000000E+00 -0.00000000000E+00 -0.22142179017E+03  0.22142179017E+03  0.00000000000E+00 0. -1.
         24    2    1    2    0    0 -0.40408906132E+02  0.16754339951E+02 -0.10108277539E+03  0.13588681702E+03  0.79585877874E+02 0.  0.
         25    2    1    2    0    0  0.62521990104E+02  0.38443459200E+02 -0.34793311179E+02  0.14914958165E+03  0.12509246341E+03 0.  0.
        -24    2    1    2    0    0 -0.22113083971E+02 -0.55197799150E+02  0.21876709777E+03  0.24069819288E+03  0.80875159821E+02 0.  0.
        -13    1    3    3    0    0  0.15277866304E+02  0.24691829179E+02 -0.14044595711E+02  0.32254461640E+02  0.00000000000E+00 0.  1.
         14    1    3    3    0    0 -0.55686772437E+02 -0.79374892279E+01 -0.87038179675E+02  0.10363235538E+03  0.00000000000E+00 0. -1.
         13    1    5    5    0    0 -0.43968215144E+02 -0.62572728356E+02  0.18025382302E+03  0.19580600346E+03  0.00000000000E+00 0. -1.
        -14    1    5    5    0    0  0.21855131172E+02  0.73749292054E+01  0.38513274756E+02  0.44892189430E+02  0.00000000000E+00 0.  1.
          5    1    4    4  501    0  0.10028924756E+02  0.71622456169E+02 -0.46133995669E+02  0.85884652388E+02  0.41800000000E+01 0.  1.
         -5    1    4    4    0  501  0.52493065348E+02 -0.33178996969E+02  0.11340684489E+02  0.63264929259E+02  0.41800000000E+01 0.  1.
</event>
<event>
11    1  0.7882745E-009  0.1392039E+03  0.7561462E-02  0.1108451E+00
         22   -1    0    0    0    0  0.00000000000E+00  0.00000000000E+00  0.11862843621E+03  0.11862843621E+03  0.00000000000E+00 0.  1.
         22   -1    0    0    0    0 -0.00000000000E+00 -0.00000000000E+00 -0.13966448904E+04  0.13966448904E+04  0.00000000000E+00 0. -1.
        -24    2    1    2    0    0 -0.56668493350E+02 -0.10907467039E+01 -0.91544556762E+03  0.92073029980E+03  0.80567920630E+02 0.  0.
         25    2    1    2    0    0  0.81081702596E+02 -0.47944977996E+02 -0.44178294751E+03  0.46871450336E+03  0.12509256391E+03 0.  0.
         24    2    1    2    0    0 -0.24413209246E+02  0.49035724700E+02  0.79212060970E+02  0.12582852341E+03  0.80979995164E+02 0.  0.
        -13    1    5    5    0    0 -0.14081154623E+02  0.68238246681E+02  0.38401287567E+02  0.79557501925E+02  0.00000000000E+00 0.  1.
         14    1    5    5    0    0 -0.10332054623E+02 -0.19202521981E+02  0.40810773403E+02  0.46271021481E+02  0.00000000000E+00 0. -1.
         13    1    3    3    0    0 -0.34812754923E+02 -0.38302532793E+02 -0.37351646679E+03  0.37708561745E+03  0.00000000000E+00 0. -1.
        -14    1    3    3    0    0 -0.21855738427E+02  0.37211786089E+02 -0.54192910083E+03  0.54364468235E+03  0.00000000000E+00 0.  1.
          5    1    4    4  501    0 -0.11315165599E+02 -0.23139150746E+02 -0.27624210711E+03  0.27747184976E+03  0.41800000000E+01 0. -1.
         -5    1    4    4    0  501  0.92396868195E+02 -0.24805827250E+02 -0.16554084039E+03  0.19124265360E+03  0.41800000000E+01 0. -1.
</event>
<event>
11    1  0.7882745E-009  0.1896621E+03  0.7561462E-02  0.1062085E+00
         22   -1    0    0    0    0  0.00000000000E+00  0.00000000000E+00  0.94291345291E+03  0.94291345291E+03  0.00000000000E+00 0.  1.
         22   -1    0    0    0    0 -0.00000000000E+00 -0.00000000000E+00 -0.62059902842E+03  0.62059902842E+03  0.00000000000E+00 0.  1.
        -24    2    1    2    0    0 -0.29100290208E+02 -0.15448268401E+00 -0.46913323251E+03  0.47718446867E+03  0.82293235093E+02 0.  0.
         25    2    1    2    0    0  0.57947937795E+02  0.13943248614E+03 -0.70821765132E+02  0.20847764635E+03  0.12509126638E+03 0.  0.
         24    2    1    2    0    0 -0.28847647587E+02 -0.13927800345E+03  0.86226942213E+03  0.87785036630E+03  0.82958786510E+02 0.  0.
        -13    1    5    5    0    0 -0.26746476771E+02 -0.15002443768E+03  0.82689857149E+03  0.84082337828E+03  0.00000000000E+00 0.  1.
         14    1    5    5    0    0 -0.21011708160E+01  0.10746434227E+02  0.35370850638E+02  0.37026988026E+02  0.00000000000E+00 0. -1.
         11    1    3    3    0    0  0.12373190498E+02  0.32312166351E+02 -0.19060028225E+03  0.19371535699E+03  0.00000000000E+00 0. -1.
        -12    1    3    3    0    0 -0.41473480706E+02 -0.32466649035E+02 -0.27853295026E+03  0.28346911169E+03  0.00000000000E+00 0.  1.
          5    1    4    4  501    0  0.62693199228E+02  0.14261757495E+03 -0.19951503183E+02  0.15711697805E+03  0.41800000000E+01 0. -1.
         -5    1    4    4    0  501 -0.47452614333E+01 -0.31850888102E+01 -0.50870261949E+02  0.51360668294E+02  0.41800000000E+01 0. -1.
</event>
<event>
11    1  0.7882745E-009  0.1486335E+03  0.7561462E-02  0.1098283E+00
         22   -1    0    0    0    0  0.00000000000E+00  0.00000000000E+00  0.17141461511E+03  0.17141461511E+03  0.00000000000E+00 0. -1.
         22   -1    0    0    0    0 -0.00000000000E+00 -0.00000000000E+00 -0.81278046165E+03  0.81278046165E+03  0.00000000000E+00 0.  1.
        -24    2    1    2    0    0 -0.61571572037E+01 -0.72502490484E+01 -0.63117210299E+03  0.63630003494E+03  0.80056443628E+02 0.  0.
         25    2    1    2    0    0 -0.73925736547E+02 -0.64638615882E+01 -0.12124555487E+03  0.18935003091E+03  0.12508458578E+03 0.  0.
         24    2    1    2    0    0  0.80082893750E+02  0.13714110637E+02  0.11105181132E+03  0.15854501091E+03  0.78757025002E+02 0.  0.
        -13    1    5    5    0    0  0.22522126203E+02 -0.31538178430E+02  0.49673329305E+02  0.63002718288E+02  0.00000000000E+00 0.  1.
         14    1    5    5    0    0  0.57560767548E+02  0.45252289066E+02  0.61378482010E+02  0.95542292626E+02  0.00000000000E+00 0. -1.
         11    1    3    3    0    0 -0.31766651310E+01  0.33838245346E+02 -0.17488016897E+03  0.17815215842E+03  0.00000000000E+00 0. -1.
        -12    1    3    3    0    0 -0.29804920727E+01 -0.41088494394E+02 -0.45629193403E+03  0.45814787652E+03  0.00000000000E+00 0.  1.
          5    1    4    4  501    0 -0.10844030895E+02 -0.33558589829E+02  0.13557203954E+02  0.38013709848E+02  0.41800000000E+01 0. -1.
         -5    1    4    4    0  501 -0.63081705652E+02  0.27094728241E+02 -0.13480275882E+03  0.15133632106E+03  0.41800000000E+01 0. -1.
</event>
<event>
11    1  0.7882745E-009  0.1476515E+03  0.7561462E-02  0.1099303E+00
         22   -1    0    0    0    0  0.00000000000E+00  0.00000000000E+00  0.13893805848E+04  0.13893805848E+04  0.00000000000E+00 0. -1.
         22   -1    0    0    0    0 -0.00000000000E+00 -0.00000000000E+00 -0.19053879278E+03  0.19053879278E+03  0.00000000000E+00 0. -1.
         24    2    1    2    0    0 -0.72910475893E+02 -0.31861533405E+02 -0.15929708112E+03  0.19505140974E+03  0.79614053938E+02 0.  0.
         25    2    1    2    0    0  0.59340817851E+02 -0.79255992117E+01  0.41876153462E+03  0.44112653790E+03  0.12508897546E+03 0.  0.
        -24    2    1    2    0    0  0.13569658042E+02  0.39787132617E+02  0.93937733851E+03  0.94374142994E+03  0.80317812039E+02 0.  0.
        -13    1    3    3    0    0  0.57866140584E+01  0.17928594055E+02 -0.34880281960E+02  0.39642823520E+02  0.00000000000E+00 0.  1.
         14    1    3    3    0    0 -0.78697089951E+02 -0.49790127460E+02 -0.12441679916E+03  0.15540858622E+03  0.00000000000E+00 0. -1.
         13    1    5    5    0    0  0.47242583991E+02  0.23743394277E+02  0.50215197757E+03  0.50492793456E+03  0.00000000000E+00 0. -1.
        -14    1    5    5    0    0 -0.33672925949E+02  0.16043738340E+02  0.43722536094E+03  0.43881349538E+03  0.00000000000E+00 0.  1.
          5    1    4    4  501    0  0.78332919654E+02  0.10072725249E+02  0.13752563660E+03  0.15864513613E+03  0.41800000000E+01 0.  1.
         -5    1    4    4    0  501 -0.18992101803E+02 -0.17998324461E+02  0.28123589802E+03  0.28248140178E+03  0.41800000000E+01 0.  1.
</event>
<event>
11    1  0.7882745E-009  0.1748318E+03  0.7561462E-02  0.1073902E+00
         22   -1    0    0    0    0  0.00000000000E+00  0.00000000000E+00  0.21237745764E+03  0.21237745764E+03  0.00000000000E+00 0.  1.
         22   -1    0    0    0    0 -0.00000000000E+00 -0.00000000000E+00 -0.90398617419E+03  0.90398617419E+03  0.00000000000E+00 0.  1.
        -24    2    1    2    0    0  0.41937092254E+02 -0.13958152109E+02 -0.76883168239E+03  0.77390723197E+03  0.76659625197E+02 0.  0.
         25    2    1    2    0    0  0.33784226932E+02 -0.96406341165E+02 -0.12603007226E+02  0.16199254724E+03  0.12508874036E+03 0.  0.
         24    2    1    2    0    0 -0.75721319186E+02  0.11036449327E+03  0.89825973073E+02  0.18046385262E+03  0.81144667772E+02 0.  0.
        -13    1    5    5    0    0 -0.89513073456E+02  0.69307234889E+02  0.64921517037E+02  0.13050243868E+03  0.00000000000E+00 0.  1.
         14    1    5    5    0    0  0.13791754269E+02  0.41057258385E+02  0.24904456036E+02  0.49961413935E+02  0.00000000000E+00 0. -1.
         13    1    3    3    0    0  0.21701702279E+02 -0.26268713852E+02 -0.12274686579E+03  0.12738839142E+03  0.00000000000E+00 0. -1.
        -14    1    3    3    0    0  0.20235389974E+02  0.12310561743E+02 -0.64608481660E+03  0.64651884055E+03  0.00000000000E+00 0.  1.
          5    1    4    4  501    0  0.27939238300E+02 -0.66128416606E+01  0.46101612115E+02  0.54471660074E+02  0.41800000000E+01 0. -1.
         -5    1    4    4    0  501  0.58449886322E+01 -0.89793499504E+02 -0.58704619341E+02  0.10752088717E+03  0.41800000000E+01 0. -1.
</event>
<event>
11    1  0.7882745E-009  0.1729277E+03  0.7561462E-02  0.1075512E+00
         22   -1    0    0    0    0  0.00000000000E+00  0.00000000000E+00  0.22094032859E+03  0.22094032859E+03  0.00000000000E+00 0. -1.
         22   -1    0    0    0    0 -0.00000000000E+00 -0.00000000000E+00 -0.10158754519E+04  0.10158754519E+04  0.00000000000E+00 0. -1.
         24    2    1    2    0    0 -0.14643101264E+01  0.11397928356E+03 -0.75919762460E+03  0.77182692916E+03  0.79638898104E+02 0.  0.
         25    2    1    2    0    0  0.28355176160E+02 -0.15524540501E+03 -0.19494007523E+03  0.28027518067E+03  0.12508953665E+03 0.  0.
        -24    2    1    2    0    0 -0.26890866034E+02  0.41266121451E+02  0.15920257647E+03  0.18471367070E+03  0.79672255725E+02 0.  0.
        -13    1    3    3    0    0 -0.17016692739E+02  0.18339718482E+02 -0.48678589236E+02  0.54731327006E+02  0.00000000000E+00 0.  1.
         14    1    3    3    0    0  0.15552382612E+02  0.95639565081E+02 -0.71051903536E+03  0.71709560215E+03  0.00000000000E+00 0. -1.
         11    1    5    5    0    0  0.16584860526E+01  0.27831687409E+02  0.14895062725E+03  0.15153759520E+03  0.00000000000E+00 0. -1.
        -12    1    5    5    0    0 -0.28549352087E+02  0.13434434042E+02  0.10251949215E+02  0.33176075496E+02  0.00000000000E+00 0.  1.
          5    1    4    4  501    0  0.55748248021E+02 -0.67565985890E+02 -0.32327834666E+02  0.93464383061E+02  0.41800000000E+01 0. -1.
         -5    1    4    4    0  501 -0.27393071861E+02 -0.87679419125E+02 -0.16261224056E+03  0.18681079761E+03  0.41800000000E+01 0. -1.
</event>
<event>
11    1  0.7882745E-009  0.1357282E+03  0.7561462E-02  0.1112425E+00
         22   -1    0    0    0    0  0.00000000000E+00  0.00000000000E+00  0.25732357603E+03  0.25732357603E+03  0.00000000000E+00 0. -1.
         22   -1    0    0    0    0 -0.00000000000E+00 -0.00000000000E+00 -0.15276769209E+03  0.15276769209E+03  0.00000000000E+00 0. -1.
        -24    2    1    2    0    0  0.58602248993E+02 -0.26300795385E+01 -0.69871133725E+02  0.12094297950E+03  0.79398287494E+02 0.  0.
         25    2    1    2    0    0 -0.29699753083E+02  0.10973029678E+02  0.51320942814E+02  0.13886886487E+03  0.12509292445E+03 0.  0.
         24    2    1    2    0    0 -0.28902495909E+02 -0.83429501394E+01  0.12310607485E+03  0.15027942375E+03  0.80770294347E+02 0.  0.
        -11    1    5    5    0    0 -0.54681881902E+02 -0.58783033010E+01  0.56646122585E+02  0.78952174523E+02  0.00000000000E+00 0.  1.
         12    1    5    5    0    0  0.25779385993E+02 -0.24646468384E+01  0.66459952269E+02  0.71327249224E+02  0.00000000000E+00 0. -1.
         11    1    3    3    0    0  0.75292185691E+02  0.99684464544E+01 -0.63739350621E+02  0.99151338712E+02  0.00000000000E+00 0. -1.
        -12    1    3    3    0    0 -0.16689936698E+02 -0.12598525993E+02 -0.61317831038E+01  0.21791640788E+02  0.00000000000E+00 0.  1.
          5    1    4    4  501    0  0.35746006588E+02  0.18875330900E+02  0.59770072694E+02  0.72277168549E+02  0.41800000000E+01 0. -1.
         -5    1    4    4    0  501 -0.65445759672E+02 -0.79023012222E+01 -0.84491298806E+01  0.66591696324E+02  0.41800000000E+01 0. -1.
</event>
<event>
11    1  0.7882745E-009  0.1566944E+03  0.7561462E-02  0.1090228E+00
         22   -1    0    0    0    0  0.00000000000E+00  0.00000000000E+00  0.19114654051E+03  0.19114654051E+03  0.00000000000E+00 0.  1.
         22   -1    0    0    0    0 -0.00000000000E+00 -0.00000000000E+00 -0.10899465876E+04  0.10899465876E+04  0.00000000000E+00 0.  1.
        -24    2    1    2    0    0 -0.95268505543E+02  0.15019900994E+02 -0.91812612968E+03  0.92647572839E+03  0.78102494967E+02 0.  0.
         25    2    1    2    0    0  0.80182879457E+02  0.27147981211E+02 -0.11530953942E+03  0.19002636682E+03  0.12508966051E+03 0.  0.
         24    2    1    2    0    0  0.15085626086E+02 -0.42167882205E+02  0.13463562202E+03  0.16459103289E+03  0.83413134376E+02 0.  0.
        -11    1    5    5    0    0  0.18356216325E+02 -0.20034364877E+02  0.13913992424E+03  0.14176827915E+03  0.00000000000E+00 0.  1.
         12    1    5    5    0    0 -0.32705902388E+01 -0.22133517328E+02 -0.45043022234E+01  0.22822753741E+02  0.00000000000E+00 0. -1.
         13    1    3    3    0    0 -0.31555067679E+02  0.28347671370E+02 -0.15890018331E+03  0.16446452816E+03  0.00000000000E+00 0. -1.
        -14    1    3    3    0    0 -0.63713437864E+02 -0.13327770376E+02 -0.75922594637E+03  0.76201120023E+03  0.00000000000E+00 0.  1.
          5    1    4    4  501    0  0.63894640071E+02  0.15410777952E+02  0.67973175234E+01  0.66209463315E+02  0.41800000000E+01 0.  1.
         -5    1    4    4    0  501  0.16288239386E+02  0.11737203259E+02 -0.12210685694E+03  0.12381690351E+03  0.41800000000E+01 0.  1.
</event>
<event>
11    1  0.7882745E-009  0.1570701E+03  0.7561462E-02  0.1089866E+00
         22   -1    0    0    0    0  0.00000000000E+00  0.00000000000E+00  0.13353013552E+04  0.13353013552E+04  0.00000000000E+00 0.  1.
         22   -1    0    0    0    0 -0.00000000000E+00 -0.00000000000E+00 -0.40665429205E+03  0.40665429205E+03  0.00000000000E+00 0. -1.
         24    2    1    2    0    0  0.21782283291E+02  0.27681218240E+02 -0.34943348409E+03  0.36110663918E+03  0.83985280558E+02 0.  0.
         25    2    1    2    0    0  0.70939564487E+02 -0.51954183636E+02  0.73064045787E+02  0.16946055691E+03  0.12508743564E+03 0.  0.
        -24    2    1    2    0    0 -0.92721847778E+02  0.24272965396E+02  0.12050165015E+04  0.12113884512E+04  0.78807949808E+02 0.  0.
        -13    1    3    3    0    0  0.28015620766E+02  0.23816471848E+01 -0.31967207748E+02  0.42572874244E+02  0.00000000000E+00 0.  1.
         14    1    3    3    0    0 -0.62333374754E+01  0.25299571055E+02 -0.31746627634E+03  0.31853376494E+03  0.00000000000E+00 0. -1.
         11    1    5    5    0    0 -0.80910001567E+02  0.23433208412E+01  0.55261688821E+03  0.55851351339E+03  0.00000000000E+00 0. -1.
        -12    1    5    5    0    0 -0.11811846212E+02  0.21929644554E+02  0.65239961328E+03  0.65287493781E+03  0.00000000000E+00 0.  1.
          5    1    4    4  501    0  0.17354070370E+02  0.20993874013E+02  0.73873894533E+02  0.78846250374E+02  0.41800000000E+01 0. -1.
         -5    1    4    4    0  501  0.53585494117E+02 -0.72948057649E+02 -0.80984874624E+00  0.90614306539E+02  0.41800000000E+01 0. -1.
</event>
<event>
11    1  0.7882745E-009  0.1358505E+03  0.7561462E-02  0.1112283E+00
         22   -1    0    0    0    0  0.00000000000E+00  0.00000000000E+00  0.11648325225E+03  0.11648325225E+03  0.00000000000E+00 0. -1.
         22   -1    0    0    0    0 -0.00000000000E+00 -0.00000000000E+00 -0.19175692007E+04  0.19175692007E+04  0.00000000000E+00 0.  1.
        -24    2    1    2    0    0  0.55582081824E+02 -0.19774450471E+02 -0.14470680609E+04  0.14504517921E+04  0.79523780854E+02 0.  0.
         25    2    1    2    0    0 -0.12472014432E+02  0.23672223124E+02 -0.43642463252E+03  0.45478962910E+03  0.12510484236E+03 0.  0.
         24    2    1    2    0    0 -0.43110067392E+02 -0.38977726533E+01  0.82406744903E+02  0.12881103177E+03  0.89037855754E+02 0.  0.
        -13    1    5    5    0    0  0.18406007910E+01 -0.37967603831E+02  0.14864548718E+02  0.40815212366E+02  0.00000000000E+00 0.  1.
         14    1    5    5    0    0 -0.44950668183E+02  0.34069831177E+02  0.67542196185E+02  0.87995819401E+02  0.00000000000E+00 0. -1.
         11    1    3    3    0    0  0.10579780295E+02 -0.23046321074E+02 -0.12160411012E+03  0.12422006385E+03  0.00000000000E+00 0. -1.
        -12    1    3    3    0    0  0.45002301529E+02  0.32718706032E+01 -0.13254639507E+04  0.13262317282E+04  0.00000000000E+00 0.  1.
          5    1    4    4  501    0 -0.12170974023E+01  0.75020589948E+02 -0.24991902905E+03  0.26097234283E+03  0.41800000000E+01 0.  1.
         -5    1    4    4    0  501 -0.11254917029E+02 -0.51348366824E+02 -0.18650560347E+03  0.19381728627E+03  0.41800000000E+01 0.  1.
</event>
<event>
11    1  0.7882745E-009  0.2057331E+03  0.7561462E-02  0.1050542E+00
         22   -1    0    0    0    0  0.00000000000E+00  0.00000000000E+00  0.18219056625E+04  0.18219056625E+04  0.00000000000E+00 0. -1.
         22   -1    0    0    0    0 -0.00000000000E+00 -0.00000000000E+00 -0.49751117890E+03  0.49751117890E+03  0.00000000000E+00 0.  1.
         24    2    1    2    0    0  0.60269467802E+02 -0.26601086365E+02 -0.46177089116E+03  0.47335509881E+03  0.80577087941E+02 0.  0.
         25    2    1    2    0    0 -0.90762303885E+01 -0.13756355310E+03  0.34074495341E+03  0.38827837551E+03  0.12508742749E+03 0.  0.
        -24    2    1    2    0    0 -0.51193237413E+02  0.16416463946E+03  0.14454204213E+04  0.14577833670E+04  0.79507071908E+02 0.  0.
        -13    1    3    3    0    0  0.56341061695E+02 -0.49211211381E+02 -0.40937680773E+03  0.41615553495E+03  0.00000000000E+00 0.  1.
         14    1    3    3    0    0  0.39284061070E+01  0.22610125015E+02 -0.52394083430E+02  0.57199563864E+02  0.00000000000E+00 0. -1.
         13    1    5    5    0    0 -0.57389724740E+02  0.14112249835E+03  0.13753484863E+04  0.13837603112E+04  0.00000000000E+00 0. -1.
        -14    1    5    5    0    0  0.61964873270E+01  0.23042141110E+02  0.70071934963E+02  0.74023055811E+02  0.00000000000E+00 0.  1.
          5    1    4    4  501    0  0.22528004650E-02 -0.29509016802E+02  0.23458466648E+03  0.23647033688E+03  0.41800000000E+01 0.  1.
         -5    1    4    4    0  501 -0.90784831890E+01 -0.10805453630E+03  0.10616028693E+03  0.15180803863E+03  0.41800000000E+01 0.  1.
</event>
<event>
11    1  0.7882745E-009  0.1841436E+03  0.7561462E-02  0.1066340E+00
         22   -1    0    0    0    0  0.00000000000E+00  0.00000000000E+00  0.11295285937E+04  0.11295285937E+04  0.00000000000E+00 0. -1.
         22   -1    0    0    0    0 -0.00000000000E+00 -0.00000000000E+00 -0.15043223547E+03  0.15043223547E+03  0.00000000000E+00 0. -1.
         24    2    1    2    0    0  0.56223370723E+02  0.12802439826E+03 -0.74682710141E+02  0.17763541757E+03  0.80159343898E+02 0.  0.
         25    2    1    2    0    0 -0.59679853248E+02 -0.89904542168E+02  0.29316072888E+03  0.33650166009E+03  0.12508254353E+03 0.  0.
        -24    2    1    2    0    0  0.34564825248E+01 -0.38119856095E+02  0.76061833953E+03  0.76582375156E+03  0.80502728727E+02 0.  0.
        -11    1    3    3    0    0  0.64154534446E+02  0.59097300765E+02 -0.20496445453E+02  0.89601336619E+02  0.00000000000E+00 0.  1.
         12    1    3    3    0    0 -0.79311637233E+01  0.68927097498E+02 -0.54186264688E+02  0.88034080948E+02  0.00000000000E+00 0. -1.
         13    1    5    5    0    0 -0.17350115804E+02 -0.45475671730E+02  0.69274488686E+03  0.69445269206E+03  0.00000000000E+00 0. -1.
        -14    1    5    5    0    0  0.20806598329E+02  0.73558156353E+01  0.67873452668E+02  0.71371059504E+02  0.00000000000E+00 0.  1.
          5    1    4    4  501    0  0.15950124963E+02  0.23550331810E+02  0.48542901451E+02  0.56417287209E+02  0.41800000000E+01 0. -1.
         -5    1    4    4    0  501 -0.75629978210E+02 -0.11345487398E+03  0.24461782743E+03  0.28008437288E+03  0.41800000000E+01 0. -1.
</event>
<event>
11    1  0.7882745E-009  0.1327200E+03  0.7561462E-02  0.1115971E+00
         22   -1    0    0    0    0  0.00000000000E+00  0.00000000000E+00  0.95347699597E+03  0.95347699597E+03  0.00000000000E+00 0.  1.
         22   -1    0    0    0    0 -0.00000000000E+00 -0.00000000000E+00 -0.59367669785E+02  0.59367669785E+02  0.00000000000E+00 0. -1.
        -24    2    1    2    0    0  0.45931275453E+02 -0.23920175960E+02  0.16171612475E+02  0.99566623097E+02  0.83487331387E+02 0.  0.
         25    2    1    2    0    0 -0.14429924622E+02 -0.50827631135E+01  0.25197736845E+03  0.28171642174E+03  0.12504995348E+03 0.  0.
         24    2    1    2    0    0 -0.31501350831E+02  0.29002939074E+02  0.62596034527E+03  0.63156162092E+03  0.72181864703E+02 0.  0.
        -13    1    5    5    0    0 -0.29233383412E+02 -0.75562803760E+01  0.48436241909E+03  0.48530262837E+03  0.00000000000E+00 0.  1.
         14    1    5    5    0    0 -0.22679674186E+01  0.36559219450E+02  0.14159792618E+03  0.14625899254E+03  0.00000000000E+00 0. -1.
         11    1    3    3    0    0  0.39453333583E+02 -0.53420349996E+02  0.26174418763E+01  0.66461645530E+02  0.00000000000E+00 0. -1.
        -12    1    3    3    0    0  0.64779418701E+01  0.29500174036E+02  0.13554170599E+02  0.33104977566E+02  0.00000000000E+00 0.  1.
          5    1    4    4  501    0  0.39444764942E+02  0.25538397331E+02  0.18261546171E+03  0.18861065313E+03  0.41800000000E+01 0.  1.
         -5    1    4    4    0  501 -0.53874689565E+02 -0.30621160444E+02  0.69361906743E+02  0.93105768616E+02  0.41800000000E+01 0.  1.
</event>
<event>
11    1  0.7882745E-009  0.1313176E+03  0.7561462E-02  0.1117661E+00
         22   -1    0    0    0    0  0.00000000000E+00  0.00000000000E+00  0.33724742565E+03  0.33724742565E+03  0.00000000000E+00 0.  1.
         22   -1    0    0    0    0 -0.00000000000E+00 -0.00000000000E+00 -0.15662412075E+04  0.15662412075E+04  0.00000000000E+00 0.  1.
         24    2    1    2    0    0  0.10279129518E+02  0.78846029276E+01 -0.14418937346E+04  0.14442300621E+04  0.81087008612E+02 0.  0.
         25    2    1    2    0    0  0.18420232873E+01 -0.45683904031E+02 -0.78531873276E+02  0.15461953247E+03  0.12509809176E+03 0.  0.
        -24    2    1    2    0    0 -0.12121152806E+02  0.37799301103E+02  0.29143182606E+03  0.30463903854E+03  0.79351906428E+02 0.  0.
        -11    1    3    3    0    0 -0.34355094697E+02  0.12611546371E+02 -0.73790675642E+03  0.73881371455E+03  0.00000000000E+00 0.  1.
         12    1    3    3    0    0  0.44634224215E+02 -0.47269434429E+01 -0.70398697821E+03  0.70541634759E+03  0.00000000000E+00 0. -1.
         11    1    5    5    0    0 -0.15705104151E+02 -0.22480847276E+02  0.11241693339E+03  0.11571346379E+03  0.00000000000E+00 0. -1.
        -12    1    5    5    0    0  0.35839513451E+01  0.60280148379E+02  0.17901489267E+03  0.18892557475E+03  0.00000000000E+00 0.  1.
          5    1    4    4  501    0  0.20003108867E+02  0.30600807002E+02 -0.65343307648E+02  0.74991692926E+02  0.41800000000E+01 0. -1.
         -5    1    4    4    0  501 -0.18161085579E+02 -0.76284711033E+02 -0.13188565628E+02  0.79627839542E+02  0.41800000000E+01 0. -1.
</event>
<event>
11    1  0.7882745E-009  0.1767460E+03  0.7561462E-02  0.1072306E+00
         22   -1    0    0    0    0  0.00000000000E+00  0.00000000000E+00  0.25190241981E+03  0.25190241981E+03  0.00000000000E+00 0.  1.
         22   -1    0    0    0    0 -0.00000000000E+00 -0.00000000000E+00 -0.56580964688E+03  0.56580964688E+03  0.00000000000E+00 0. -1.
         24    2    1    2    0    0  0.28068180776E+02  0.13662127264E+02 -0.32541437362E+03  0.33686978042E+03  0.81315791265E+02 0.  0.
         25    2    1    2    0    0 -0.14204677172E+03 -0.55316570403E+02 -0.16140198605E+03  0.25482436214E+03  0.12509055170E+03 0.  0.
        -24    2    1    2    0    0  0.11397859094E+03  0.41654443139E+02  0.17290913259E+03  0.22601792412E+03  0.80376128703E+02 0.  0.
        -11    1    3    3    0    0  0.37702332511E+02 -0.83948223015E+01 -0.66997117702E+02  0.77334033249E+02  0.00000000000E+00 0.  1.
         12    1    3    3    0    0 -0.96341517350E+01  0.22056949565E+02 -0.25841725592E+03  0.25953574717E+03  0.00000000000E+00 0. -1.
         11    1    5    5    0    0  0.91706702224E+02  0.53056273880E+02  0.88720162879E+02  0.13818956087E+03  0.00000000000E+00 0. -1.
        -12    1    5    5    0    0  0.22271888716E+02 -0.11401830741E+02  0.84188969713E+02  0.87828363258E+02  0.00000000000E+00 0.  1.
          5    1    4    4  501    0 -0.12785671985E+03 -0.22176932733E+02 -0.52519994414E+02  0.14005348753E+03  0.41800000000E+01 0.  1.
         -5    1    4    4    0  501 -0.14190051868E+02 -0.33139637670E+02 -0.10888199163E+03  0.11477087461E+03  0.41800000000E+01 0.  1.
</event>
<event>
11    1  0.7882745E-009  0.3277602E+03  0.7561462E-02  0.9890820E-01
         22   -1    0    0    0    0  0.00000000000E+00  0.00000000000E+00  0.14191103478E+04  0.14191103478E+04  0.00000000000E+00 0. -1.
         22   -1    0    0    0    0 -0.00000000000E+00 -0.00000000000E+00 -0.15047072713E+04  0.15047072713E+04  0.00000000000E+00 0. -1.
        -24    2    1    2    0    0 -0.26356327373E+03  0.15120482053E+03 -0.13751778200E+04  0.14106978651E+04  0.81399835143E+02 0.  0.
         25    2    1    2    0    0  0.33501571223E+03  0.12644068952E+02  0.20882399878E+03  0.41430562718E+03  0.12508513233E+03 0.  0.
         24    2    1    2    0    0 -0.71452438494E+02 -0.16384888948E+03  0.10807568978E+04  0.10988141268E+04  0.86052911762E+02 0.  0.
        -11    1    5    5    0    0 -0.23630339969E+02 -0.13991171595E+03  0.69213827325E+03  0.70653313477E+03  0.00000000000E+00 0.  1.
         12    1    5    5    0    0 -0.47822098525E+02 -0.23937173523E+02  0.38861862450E+03  0.39228099201E+03  0.00000000000E+00 0. -1.
         13    1    3    3    0    0 -0.92591397525E+02  0.57658464552E+02 -0.68104059631E+03  0.68972020360E+03  0.00000000000E+00 0. -1.
        -14    1    3    3    0    0 -0.17097187621E+03  0.93546355974E+02 -0.69413722364E+03  0.72097766152E+03  0.00000000000E+00 0.  1.
          5    1    4    4  501    0  0.21004986250E+03 -0.45802152413E+02  0.93620053637E+02  0.23452285335E+03  0.41800000000E+01 0.  1.
         -5    1    4    4    0  501  0.12496584973E+03  0.58446221365E+02  0.11520394514E+03  0.17978277383E+03  0.41800000000E+01 0.  1.
</event>
<event>
11    1  0.7882745E-009  0.1368703E+03  0.7561462E-02  0.1111104E+00
         22   -1    0    0    0    0  0.00000000000E+00  0.00000000000E+00  0.21317583152E+04  0.21317583152E+04  0.00000000000E+00 0.  1.
         22   -1    0    0    0    0 -0.00000000000E+00 -0.00000000000E+00 -0.54774291922E+03  0.54774291922E+03  0.00000000000E+00 0.  1.
         24    2    1    2    0    0 -0.48030151605E+00 -0.18024702570E+02 -0.50849980300E+03  0.51510766240E+03  0.80241719947E+02 0.  0.
         25    2    1    2    0    0 -0.12935542834E+02 -0.36482284627E+02  0.88435683133E+02  0.15800285280E+03  0.12508295680E+03 0.  0.
        -24    2    1    2    0    0  0.13415844350E+02  0.54506987197E+02  0.20040795158E+04  0.20063907192E+04  0.78217746377E+02 0.  0.
        -13    1    3    3    0    0  0.10619215572E+02  0.24783995050E+02 -0.33416463343E+03  0.33525067694E+03  0.00000000000E+00 0.  1.
         14    1    3    3    0    0 -0.11099517088E+02 -0.42808697620E+02 -0.17433516956E+03  0.17985698546E+03  0.00000000000E+00 0. -1.
         11    1    5    5    0    0  0.15053123422E+02  0.13596154022E+02  0.10914273618E+03  0.11101166060E+03  0.00000000000E+00 0. -1.
        -12    1    5    5    0    0 -0.16372790719E+01  0.40910833175E+02  0.18949367796E+04  0.18953790586E+04  0.00000000000E+00 0.  1.
          5    1    4    4  501    0 -0.45907876056E+02  0.18772913931E+02  0.78226163524E+02  0.92718716779E+02  0.41800000000E+01 0. -1.
         -5    1    4    4    0  501  0.32972333222E+02 -0.55255198558E+02  0.10209519609E+02  0.65284136024E+02  0.41800000000E+01 0. -1.
</event>
<event>
11    1  0.7882745E-009  0.1424674E+03  0.7561462E-02  0.1104834E+00
         22   -1    0    0    0    0  0.00000000000E+00  0.00000000000E+00  0.26900673709E+03  0.26900673709E+03  0.00000000000E+00 0.  1.
         22   -1    0    0    0    0 -0.00000000000E+00 -0.00000000000E+00 -0.61237593269E+03  0.61237593269E+03  0.00000000000E+00 0.  1.
        -24    2    1    2    0    0  0.63789050605E+02 -0.53058216166E+02 -0.27268274109E+03  0.29632252950E+03  0.81036701071E+02 0.  0.
         25    2    1    2    0    0 -0.49299387218E+02  0.17519769406E+02 -0.30488003836E+03  0.33367100315E+03  0.12508848331E+03 0.  0.
         24    2    1    2    0    0 -0.14489663386E+02  0.35538446760E+02  0.23419358386E+03  0.25138913713E+03  0.82927269357E+02 0.  0.
        -13    1    5    5    0    0 -0.21021902441E+02  0.36400132619E+02  0.43177063401E+02  0.60259014603E+02  0.00000000000E+00 0.  1.
         14    1    5    5    0    0  0.65322390550E+01 -0.86168585879E+00  0.19101652046E+03  0.19113012253E+03  0.00000000000E+00 0. -1.
         13    1    3    3    0    0  0.31420573755E+02 -0.70757402370E+02 -0.15984375787E+03  0.17760599476E+03  0.00000000000E+00 0. -1.
        -14    1    3    3    0    0  0.32368476850E+02  0.17699186204E+02 -0.11283898322E+03  0.11871653474E+03  0.00000000000E+00 0.  1.
          5    1    4    4  501    0  0.28412785201E+02  0.42808850919E+02 -0.89711757528E+02  0.10346765639E+03  0.41800000000E+01 0. -1.
         -5    1    4    4    0  501 -0.77712172420E+02 -0.25289081514E+02 -0.21516828083E+03  0.23020334676E+03  0.41800000000E+01 0. -1.
</event>
<event>
11    1  0.7882745E-009  0.1286432E+03  0.7561462E-02  0.1120947E+00
         22   -1    0    0    0    0  0.00000000000E+00  0.00000000000E+00  0.15927256644E+03  0.15927256644E+03  0.00000000000E+00 0.  1.
         22   -1    0    0    0    0 -0.00000000000E+00 -0.00000000000E+00 -0.63114655540E+03  0.63114655540E+03  0.00000000000E+00 0. -1.
         24    2    1    2    0    0 -0.54501380992E+01 -0.23209298398E+02 -0.45258825560E+03  0.46206800823E+03  0.90012996765E+02 0.  0.
         25    2    1    2    0    0  0.23786778060E+02  0.69382100035E+02 -0.12217093386E+03  0.18963112862E+03  0.12511810919E+03 0.  0.
        -24    2    1    2    0    0 -0.18336639961E+02 -0.46172801636E+02  0.10288520050E+03  0.13871998498E+03  0.78674708611E+02 0.  0.
        -13    1    3    3    0    0  0.20181355949E+02 -0.45048643157E+01 -0.21559695877E+02  0.29873088504E+02  0.00000000000E+00 0.  1.
         14    1    3    3    0    0 -0.25631494049E+02 -0.18704434083E+02 -0.43102855972E+03  0.43219491973E+03  0.00000000000E+00 0. -1.
         11    1    5    5    0    0 -0.52344367052E+01 -0.32859261714E+01 -0.13036235360E+02  0.14427060366E+02  0.00000000000E+00 0. -1.
        -12    1    5    5    0    0 -0.13102203256E+02 -0.42886875465E+02  0.11592143586E+03  0.12429292462E+03  0.00000000000E+00 0.  1.
          5    1    4    4  501    0  0.13006246369E+02  0.44309319998E+02  0.15753192735E+02  0.48970539763E+02  0.41800000000E+01 0. -1.
         -5    1    4    4    0  501  0.10780531691E+02  0.25072780037E+02 -0.13792412659E+03  0.14066058886E+03  0.41800000000E+01 0. -1.
</event>
<event>
11    1  0.7882745E-009  0.2451420E+03  0.7561462E-02  0.1026519E+00
         22   -1    0    0    0    0  0.00000000000E+00  0.00000000000E+00  0.15702256754E+04  0.15702256754E+04  0.00000000000E+00 0. -1.
         22   -1    0    0    0    0 -0.00000000000E+00 -0.00000000000E+00 -0.23603943771E+03  0.23603943771E+03  0.00000000000E+00 0. -1.
        -24    2    1    2    0    0  0.21773003850E+03  0.29336364379E+02 -0.11770165018E+03  0.26223486992E+03  0.81525803329E+02 0.  0.
         25    2    1    2    0    0 -0.16210777671E+03 -0.92068351862E+02  0.24639085844E+03  0.33333278184E+03  0.12508707224E+03 0.  0.
         24    2    1    2    0    0 -0.55622261791E+02  0.62731987482E+02  0.12054970295E+04  0.12106974614E+04  0.74405085064E+02 0.  0.
        -13    1    5    5    0    0  0.47262466433E+01  0.46805010154E+02  0.65133437546E+03  0.65303102150E+03  0.00000000000E+00 0.  1.
         14    1    5    5    0    0 -0.60348508434E+02  0.15926977328E+02  0.55416265401E+03  0.55766643988E+03  0.00000000000E+00 0. -1.
         11    1    3    3    0    0  0.13727568716E+03  0.32689818884E+02 -0.11436998205E+03  0.18164176650E+03  0.00000000000E+00 0. -1.
        -12    1    3    3    0    0  0.80454351339E+02 -0.33534545047E+01 -0.33316681301E+01  0.80593103420E+02  0.00000000000E+00 0.  1.
          5    1    4    4  501    0 -0.48032957782E+02  0.22824830657E+01  0.29185125663E+01  0.48356642541E+02  0.41800000000E+01 0. -1.
         -5    1    4    4    0  501 -0.11407481893E+03 -0.94350834927E+02  0.24347234588E+03  0.28497613930E+03  0.41800000000E+01 0. -1.
</event>
<event>
11    1  0.7882745E-009  0.1917916E+03  0.7561462E-02  0.1060485E+00
         22   -1    0    0    0    0  0.00000000000E+00  0.00000000000E+00  0.12829948617E+03  0.12829948617E+03  0.00000000000E+00 0.  1.
         22   -1    0    0    0    0 -0.00000000000E+00 -0.00000000000E+00 -0.27349048254E+04  0.27349048254E+04  0.00000000000E+00 0.  1.
        -24    2    1    2    0    0  0.10999053130E+03  0.95510774867E+02 -0.23307291751E+04  0.23366687487E+04  0.80635775553E+02 0.  0.
         25    2    1    2    0    0 -0.11291188276E+03 -0.88178569765E+02 -0.35785121026E+03  0.40525234982E+03  0.12508966751E+03 0.  0.
         24    2    1    2    0    0  0.29213514634E+01 -0.73322051019E+01  0.81975046124E+02  0.12128321307E+03  0.89036026749E+02 0.  0.
        -13    1    5    5    0    0 -0.28752966204E+02 -0.23571841532E+02  0.76783793337E+02  0.85311873136E+02  0.00000000000E+00 0.  1.
         14    1    5    5    0    0  0.31674317667E+02  0.16239636430E+02  0.51912527865E+01  0.35971339933E+02  0.00000000000E+00 0. -1.
         13    1    3    3    0    0  0.10950844889E+02  0.59474506732E+02 -0.75408782906E+03  0.75650881812E+03  0.00000000000E+00 0. -1.
        -14    1    3    3    0    0  0.99039686412E+02  0.36036268135E+02 -0.15766413461E+04  0.15801599306E+04  0.00000000000E+00 0.  1.
          5    1    4    4  501    0 -0.38417921965E+02 -0.48339970001E+02 -0.34153610111E+02  0.70686851050E+02  0.41800000000E+01 0. -1.
         -5    1    4    4    0  501 -0.74493960799E+02 -0.39838599764E+02 -0.32369760015E+03  0.33456549877E+03  0.41800000000E+01 0. -1.
</event>
<event>
11    1  0.7882745E-009  0.2356705E+03  0.7561462E-02  0.1031822E+00
         22   -1    0    0    0    0  0.00000000000E+00  0.00000000000E+00  0.16758928584E+04  0.16758928584E+04  0.00000000000E+00 0.  1.
         22   -1    0    0    0    0 -0.00000000000E+00 -0.00000000000E+00 -0.63897921179E+03  0.63897921179E+03  0.00000000000E+00 0.  1.
        -24    2    1    2    0    0  0.44903476151E+02 -0.92771622865E+02 -0.52212774838E+03  0.54058340246E+03  0.94816312973E+02 0.  0.
         25    2    1    2    0    0  0.13977966909E+03  0.25598560991E+01 -0.11724337229E+02  0.18796348581E+03  0.12509157910E+03 0.  0.
         24    2    1    2    0    0 -0.18468314524E+03  0.90211766766E+02  0.15707657323E+04  0.15863251820E+04  0.82925088417E+02 0.  0.
        -13    1    5    5    0    0 -0.13594933207E+03  0.79890511487E+02  0.13867385932E+04  0.13956749767E+04  0.00000000000E+00 0.  1.
         14    1    5    5    0    0 -0.48733813170E+02  0.10321255278E+02  0.18402713909E+03  0.19065020530E+03  0.00000000000E+00 0. -1.
         11    1    3    3    0    0  0.57213635894E+02 -0.28571281409E+02 -0.36235591218E+03  0.36795587418E+03  0.00000000000E+00 0. -1.
        -12    1    3    3    0    0 -0.12310159743E+02 -0.64200341456E+02 -0.15977183620E+03  0.17262752827E+03  0.00000000000E+00 0.  1.
          5    1    4    4  501    0  0.72100916132E+01  0.42664191187E+02 -0.22557313810E+02  0.48974722429E+02  0.41800000000E+01 0. -1.
         -5    1    4    4    0  501  0.13256957747E+03 -0.40104335088E+02  0.10832976580E+02  0.13898876338E+03  0.41800000000E+01 0. -1.
</event>
<event>
11    1  0.7882745E-009  0.2310590E+03  0.7561462E-02  0.1034503E+00
         22   -1    0    0    0    0  0.00000000000E+00  0.00000000000E+00  0.80153240702E+02  0.80153240702E+02  0.00000000000E+00 0. -1.
         22   -1    0    0    0    0 -0.00000000000E+00 -0.00000000000E+00 -0.21729272572E+04  0.21729272572E+04  0.00000000000E+00 0.  1.
        -24    2    1    2    0    0 -0.18365534768E+03 -0.31888824017E+02 -0.13613397620E+04  0.13766303131E+04  0.84373500318E+02 0.  0.
         25    2    1    2    0    0  0.20947086239E+03  0.49470136023E+02 -0.75003151317E+03  0.79026619940E+03  0.12509220045E+03 0.  0.
         24    2    1    2    0    0 -0.25815514707E+02 -0.17581312007E+02  0.18597258663E+02  0.86183985397E+02  0.78142677057E+02 0.  0.
        -11    1    5    5    0    0  0.80687460460E+00  0.19168636007E+02 -0.19186971175E+02  0.27133512781E+02  0.00000000000E+00 0.  1.
         12    1    5    5    0    0 -0.26622389311E+02 -0.36749948014E+02  0.37784229838E+02  0.59050472616E+02  0.00000000000E+00 0. -1.
         11    1    3    3    0    0 -0.10357844144E+03 -0.20882309482E+02 -0.47488521851E+03  0.48649823755E+03  0.00000000000E+00 0. -1.
        -12    1    3    3    0    0 -0.80076906246E+02 -0.11006514535E+02 -0.88645454349E+03  0.89013207557E+03  0.00000000000E+00 0.  1.
          5    1    4    4  501    0  0.19115950901E+03  0.16877976968E+02 -0.46947721444E+03  0.50720129265E+03  0.41800000000E+01 0. -1.
         -5    1    4    4    0  501  0.18311353383E+02  0.32592159055E+02 -0.28055429873E+03  0.28306490675E+03  0.41800000000E+01 0. -1.
</event>
<event>
11    1  0.7882745E-009  0.2438922E+03  0.7561462E-02  0.1027204E+00
         22   -1    0    0    0    0  0.00000000000E+00  0.00000000000E+00  0.13910458599E+04  0.13910458599E+04  0.00000000000E+00 0.  1.
         22   -1    0    0    0    0 -0.00000000000E+00 -0.00000000000E+00 -0.10009119834E+04  0.10009119834E+04  0.00000000000E+00 0. -1.
         24    2    1    2    0    0 -0.63870078456E+02  0.42340575690E+02 -0.85495855143E+03  0.86209721841E+03  0.79908560585E+02 0.  0.
         25    2    1    2    0    0  0.62819564140E+02 -0.24872682149E+03  0.21305407772E+02  0.28620564637E+03  0.12509365389E+03 0.  0.
        -24    2    1    2    0    0  0.10505143167E+01  0.20638624580E+03  0.12237870202E+04  0.12436549785E+04  0.80166381777E+02 0.  0.
        -13    1    3    3    0    0  0.17926971190E+02 -0.79456850907E+00 -0.11721790368E+03  0.11858349201E+03  0.00000000000E+00 0.  1.
         14    1    3    3    0    0 -0.81797049646E+02  0.43135144199E+02 -0.73774064775E+03  0.74351372640E+03  0.00000000000E+00 0. -1.
         13    1    5    5    0    0  0.92621086938E+01  0.21587225422E+02  0.33497669981E+03  0.33579932158E+03  0.00000000000E+00 0. -1.
        -14    1    5    5    0    0 -0.82115943771E+01  0.18479902038E+03  0.88881032040E+03  0.90785565696E+03  0.00000000000E+00 0.  1.
          5    1    4    4  501    0  0.98257018309E+02 -0.14093978578E+03  0.11581397236E+02  0.17225001023E+03  0.41800000000E+01 0.  1.
         -5    1    4    4    0  501 -0.35437454169E+02 -0.10778703572E+03  0.97240105369E+01  0.11395563614E+03  0.41800000000E+01 0.  1.
</event>
<event>
11    1  0.7882745E-009  0.1401086E+03  0.7561462E-02  0.1107437E+00
         22   -1    0    0    0    0  0.00000000000E+00  0.00000000000E+00  0.66879914497E+03  0.66879914497E+03  0.00000000000E+00 0.  1.
         22   -1    0    0    0    0 -0.00000000000E+00 -0.00000000000E+00 -0.76937268663E+03  0.76937268663E+03  0.00000000000E+00 0.  1.
        -24    2    1    2    0    0  0.17482205808E+02 -0.60282723369E+02 -0.58535047121E+03  0.59398677627E+03  0.79028361883E+02 0.  0.
         25    2    1    2    0    0 -0.46568763202E+02  0.53692777667E+02 -0.14756412627E+03  0.20609270322E+03  0.12508983523E+03 0.  0.
         24    2    1    2    0    0  0.29086557394E+02  0.65899457018E+01  0.63234105582E+03  0.63809235212E+03  0.80107326478E+02 0.  0.
        -11    1    5    5    0    0 -0.18518800125E+02 -0.20067629957E+01  0.41564915567E+03  0.41606633326E+03  0.00000000000E+00 0.  1.
         12    1    5    5    0    0  0.47605357519E+02  0.85967086975E+01  0.21669190014E+03  0.22202601886E+03  0.00000000000E+00 0. -1.
         13    1    3    3    0    0 -0.21896729053E+02 -0.18257846794E+01 -0.26820083919E+03  0.26909940612E+03  0.00000000000E+00 0. -1.
        -14    1    3    3    0    0  0.39378934861E+02 -0.58456938690E+02 -0.31714963202E+03  0.32488737015E+03  0.00000000000E+00 0.  1.
          5    1    4    4  501    0 -0.86513646138E+02  0.31761355649E+02 -0.12419460508E+03  0.15470994477E+03  0.41800000000E+01 0. -1.
         -5    1    4    4    0  501  0.39944882936E+02  0.21931422019E+02 -0.23369521193E+02  0.51382758444E+02  0.41800000000E+01 0. -1.
</event>
<event>
11    1  0.7882745E-009  0.1948306E+03  0.7561462E-02  0.1058241E+00
         22   -1    0    0    0    0  0.00000000000E+00  0.00000000000E+00  0.58373236313E+03  0.58373236313E+03  0.00000000000E+00 0. -1.
         22   -1    0    0    0    0 -0.00000000000E+00 -0.00000000000E+00 -0.42484289103E+03  0.42484289103E+03  0.00000000000E+00 0.  1.
         24    2    1    2    0    0 -0.62653376334E+02 -0.39765415091E+02 -0.12944560987E+03  0.17952741435E+03  0.99835829169E+02 0.  0.
         25    2    1    2    0    0  0.19822958391E+03 -0.17391845343E+02 -0.20239211316E+03  0.31017496664E+03  0.12509395765E+03 0.  0.
        -24    2    1    2    0    0 -0.13557620757E+03  0.57157260434E+02  0.49072719513E+03  0.51887287317E+03  0.82267964582E+02 0.  0.
        -13    1    3    3    0    0 -0.22091019237E+01  0.91290472508E+01 -0.93334352598E+02  0.93805762136E+02  0.00000000000E+00 0.  1.
         14    1    3    3    0    0 -0.60444274410E+02 -0.48894462342E+02 -0.36111257268E+02  0.85721652213E+02  0.00000000000E+00 0. -1.
         11    1    5    5    0    0 -0.83015608018E+02  0.75931285419E+02  0.34114282270E+03  0.35921522345E+03  0.00000000000E+00 0. -1.
        -12    1    5    5    0    0 -0.52560599556E+02 -0.18774024985E+02  0.14958437243E+03  0.15965764972E+03  0.00000000000E+00 0.  1.
          5    1    4    4  501    0 -0.82983201909E+01  0.15049449494E+02 -0.45322945733E+02  0.48651719990E+02  0.41800000000E+01 0. -1.
         -5    1    4    4    0  501  0.20652790410E+03 -0.32441294836E+02 -0.15706916743E+03  0.26152324665E+03  0.41800000000E+01 0. -1.
</event>
<event>
11    1  0.7882745E-009  0.1431384E+03  0.7561462E-02  0.1104104E+00
         22   -1    0    0    0    0  0.00000000000E+00  0.00000000000E+00  0.11559398030E+03  0.11559398030E+03  0.00000000000E+00 0. -1.
         22   -1    0    0    0    0 -0.00000000000E+00 -0.00000000000E+00 -0.19427222942E+04  0.19427222942E+04  0.00000000000E+00 0. -1.
        -24    2    1    2    0    0 -0.44395170838E+02 -0.54531488040E+02 -0.13948511861E+04  0.13989049878E+04  0.79879404798E+02 0.  0.
         25    2    1    2    0    0  0.34328962049E+02  0.57142529723E+02 -0.51907002022E+03  0.53807541724E+03  0.12509085664E+03 0.  0.
         24    2    1    2    0    0  0.10066208789E+02 -0.26110416821E+01  0.86792892409E+02  0.12133586941E+03  0.84150109535E+02 0.  0.
        -13    1    5    5    0    0 -0.26657527377E+02  0.26661246413E+02  0.41942828658E+02  0.56397222467E+02  0.00000000000E+00 0.  1.
         14    1    5    5    0    0  0.36723736166E+02 -0.29272288095E+02  0.44850063751E+02  0.64938646943E+02  0.00000000000E+00 0. -1.
         11    1    3    3    0    0 -0.57530068944E+02 -0.35872590214E+02 -0.12808215137E+04  0.12826146349E+04  0.00000000000E+00 0. -1.
        -12    1    3    3    0    0  0.13134898106E+02 -0.18658897826E+02 -0.11402967235E+03  0.11629035297E+03  0.00000000000E+00 0.  1.
          5    1    4    4  501    0  0.23683655975E+02  0.80747455713E+02 -0.49611937792E+03  0.50322259161E+03  0.41800000000E+01 0. -1.
         -5    1    4    4    0  501  0.10645306074E+02 -0.23604925991E+02 -0.22950642300E+02  0.34852825630E+02  0.41800000000E+01 0. -1.
</event>
<event>
11    1  0.7882745E-009  0.1389204E+03  0.7561462E-02  0.1108770E+00
         22   -1    0    0    0    0  0.00000000000E+00  0.00000000000E+00  0.54739311250E+03  0.54739311250E+03  0.00000000000E+00 0. -1.
         22   -1    0    0    0    0 -0.00000000000E+00 -0.00000000000E+00 -0.16775125724E+03  0.16775125724E+03  0.00000000000E+00 0. -1.
         24    2    1    2    0    0 -0.96595993130E+01  0.10150740754E+03 -0.20386480604E+02  0.12939948078E+03  0.77016591657E+02 0.  0.
         25    2    1    2    0    0 -0.17063030814E+02 -0.23429126736E+02 -0.36010172562E+02  0.13335805132E+03  0.12509023272E+03 0.  0.
        -24    2    1    2    0    0  0.26722630127E+02 -0.78078280799E+02  0.43603850843E+03  0.45238683764E+03  0.87829113331E+02 0.  0.
        -13    1    3    3    0    0  0.19061323781E+02  0.38405905276E+02  0.21946818877E+02  0.48166487137E+02  0.00000000000E+00 0.  1.
         14    1    3    3    0    0 -0.28720923094E+02  0.63101502259E+02 -0.42333299480E+02  0.81232993639E+02  0.00000000000E+00 0. -1.
         11    1    5    5    0    0  0.43985298245E+02 -0.64438946088E+01  0.20954993369E+03  0.21421345650E+03  0.00000000000E+00 0. -1.
        -12    1    5    5    0    0 -0.17262668118E+02 -0.71634386191E+02  0.22648857474E+03  0.23817338114E+03  0.00000000000E+00 0.  1.
          5    1    4    4  501    0  0.52591078799E+02 -0.82394634859E+01 -0.31060303841E+02  0.61773175429E+02  0.41800000000E+01 0.  1.
         -5    1    4    4    0  501 -0.69654109613E+02 -0.15189663250E+02 -0.49498687205E+01  0.71584875889E+02  0.41800000000E+01 0.  1.
</event>
<event>
11    1  0.7882745E-009  0.1769242E+03  0.7561462E-02  0.1072158E+00
         22   -1    0    0    0    0  0.00000000000E+00  0.00000000000E+00  0.28426795502E+04  0.28426795502E+04  0.00000000000E+00 0. -1.
         22   -1    0    0    0    0 -0.00000000000E+00 -0.00000000000E+00 -0.44282108159E+03  0.44282108159E+03  0.00000000000E+00 0. -1.
        -24    2    1    2    0    0 -0.67866462849E+02 -0.11164159377E+03 -0.38097928615E+03  0.41068011980E+03  0.80269808028E+02 0.  0.
         25    2    1    2    0    0  0.59855952324E+01  0.86918627971E+02  0.80330046639E+02  0.17231131133E+03  0.12509035286E+03 0.  0.
         24    2    1    2    0    0  0.61880867616E+02  0.24722965796E+02  0.27005077081E+04  0.27025092006E+04  0.79835024962E+02 0.  0.
        -13    1    5    5    0    0  0.12984384018E+02  0.32143075731E+02  0.40860151738E+03  0.41006947161E+03  0.00000000000E+00 0.  1.
         14    1    5    5    0    0  0.48896483598E+02 -0.74201099358E+01  0.22919061907E+04  0.22924397290E+04  0.00000000000E+00 0. -1.
         11    1    3    3    0    0  0.13072325258E+02 -0.48800926430E+02 -0.11309010627E+03  0.12386197255E+03  0.00000000000E+00 0. -1.
        -12    1    3    3    0    0 -0.80938788107E+02 -0.62840667337E+02 -0.26788917988E+03  0.28681814725E+03  0.00000000000E+00 0.  1.
          5    1    4    4  501    0  0.24564759611E+02 -0.89422827802E+01  0.69022179426E+02  0.73925134351E+02  0.41800000000E+01 0.  1.
         -5    1    4    4    0  501 -0.18579164379E+02  0.95860910751E+02  0.11307867213E+02  0.98386176976E+02  0.41800000000E+01 0.  1.
</event>
<event>
11    1  0.7882745E-009  0.1531441E+03  0.7561462E-02  0.1093709E+00
         22   -1    0    0    0    0  0.00000000000E+00  0.00000000000E+00  0.18433594978E+03  0.18433594978E+03  0.00000000000E+00 0.  1.
         22   -1    0    0    0    0 -0.00000000000E+00 -0.00000000000E+00 -0.16060096354E+04  0.16060096354E+04  0.00000000000E+00 0. -1.
        -24    2    1    2    0    0  0.19479951538E+02 -0.50171507697E+02 -0.12715140845E+04  0.12753200031E+04  0.82440247699E+02 0.  0.
         25    2    1    2    0    0 -0.10323321852E+03  0.70765309928E+02 -0.28527976002E+03  0.33570348854E+03  0.12508982469E+03 0.  0.
         24    2    1    2    0    0  0.83753266985E+02 -0.20593802231E+02  0.13512015886E+03  0.17932209362E+03  0.80375627581E+02 0.  0.
        -11    1    5    5    0    0  0.95881245349E+02 -0.21838143642E+02  0.13513868402E+03  0.16713043303E+03  0.00000000000E+00 0.  1.
         12    1    5    5    0    0 -0.12127978364E+02  0.12443414104E+01 -0.18525156751E-01  0.12191660589E+02  0.00000000000E+00 0. -1.
         13    1    3    3    0    0  0.40221392061E+02 -0.12077190006E+02 -0.94562418217E+03  0.94655623858E+03  0.00000000000E+00 0. -1.
        -14    1    3    3    0    0 -0.20741440523E+02 -0.38094317692E+02 -0.32588990233E+03  0.32876376448E+03  0.00000000000E+00 0.  1.
          5    1    4    4  501    0 -0.18852799916E+02 -0.21575717600E+02 -0.58718122176E+01  0.29544715828E+02  0.41800000000E+01 0. -1.
         -5    1    4    4    0  501 -0.84380418607E+02  0.92341027528E+02 -0.27940794781E+03  0.30615877271E+03  0.41800000000E+01 0. -1.
</event>
<event>
11    1  0.7882745E-009  0.1263614E+03  0.7561462E-02  0.1123822E+00
         22   -1    0    0    0    0  0.00000000000E+00  0.00000000000E+00  0.81837692916E+03  0.81837692916E+03  0.00000000000E+00 0. -1.
         22   -1    0    0    0    0 -0.00000000000E+00 -0.00000000000E+00 -0.13056889614E+03  0.13056889614E+03  0.00000000000E+00 0.  1.
         24    2    1    2    0    0 -0.10204043453E+02  0.69347640824E+01 -0.58262565092E+02  0.11800325605E+03  0.10187260914E+03 0.  0.
         25    2    1    2    0    0  0.29604985710E+01 -0.48960059387E+02  0.75232694905E+02  0.15399065317E+03  0.12508921182E+03 0.  0.
        -24    2    1    2    0    0  0.72435448816E+01  0.42025295305E+02  0.67083790321E+03  0.67695191607E+03  0.80136195961E+02 0.  0.
        -13    1    3    3    0    0 -0.87673033610E+01 -0.42746710933E+02 -0.30915555029E+01  0.43745909743E+02  0.00000000000E+00 0.  1.
         14    1    3    3    0    0 -0.14367400916E+01  0.49681475016E+02 -0.55171009589E+02  0.74257346309E+02  0.00000000000E+00 0. -1.
         11    1    5    5    0    0  0.18135239497E+02  0.58472842430E+02  0.60838559500E+03  0.61145808721E+03  0.00000000000E+00 0. -1.
        -12    1    5    5    0    0 -0.10891694616E+02 -0.16447547125E+02  0.62452308209E+02  0.65493828859E+02  0.00000000000E+00 0.  1.
          5    1    4    4  501    0  0.54074863751E+02 -0.22511283406E+02  0.76295601577E+02  0.96277411630E+02  0.41800000000E+01 0.  1.
         -5    1    4    4    0  501 -0.51114365180E+02 -0.26448775982E+02 -0.10629066716E+01  0.57713241542E+02  0.41800000000E+01 0.  1.
</event>
<event>
11    1  0.7882745E-009  0.1656283E+03  0.7561462E-02  0.1081900E+00
         22   -1    0    0    0    0  0.00000000000E+00  0.00000000000E+00  0.42232931864E+03  0.42232931864E+03  0.00000000000E+00 0. -1.
         22   -1    0    0    0    0 -0.00000000000E+00 -0.00000000000E+00 -0.54524008381E+03  0.54524008381E+03  0.00000000000E+00 0. -1.
        -24    2    1    2    0    0  0.96260293468E+02  0.62216465317E+02 -0.42600470359E+03  0.44852358089E+03  0.80971985735E+02 0.  0.
         25    2    1    2    0    0 -0.29569943943E+02 -0.88610553713E+02 -0.36864222168E+02  0.16041138633E+03  0.12508649077E+03 0.  0.
         24    2    1    2    0    0 -0.66690349525E+02  0.26394088396E+02  0.33995816059E+03  0.35863443524E+03  0.88898012183E+02 0.  0.
        -13    1    5    5    0    0  0.15247026085E+02 -0.22555204082E+00  0.14102644669E+03  0.14184844498E+03  0.00000000000E+00 0.  1.
         14    1    5    5    0    0 -0.81937375610E+02  0.26619640436E+02  0.19893171390E+03  0.21678599026E+03  0.00000000000E+00 0. -1.
         11    1    3    3    0    0  0.51212311253E+02  0.77156222706E+02 -0.29448524617E+03  0.30870267854E+03  0.00000000000E+00 0. -1.
        -12    1    3    3    0    0  0.45047982215E+02 -0.14939757388E+02 -0.13151945742E+03  0.13982090235E+03  0.00000000000E+00 0.  1.
          5    1    4    4  501    0  0.36980040474E+02  0.74576562837E+01 -0.54571577379E+00  0.37959323445E+02  0.41800000000E+01 0.  1.
         -5    1    4    4    0  501 -0.66549984417E+02 -0.96068209997E+02 -0.36318506394E+02  0.12245206288E+03  0.41800000000E+01 0.  1.
</event>
<event>
11    1  0.7882745E-009  0.1792346E+03  0.7561462E-02  0.1070264E+00
         22   -1    0    0    0    0  0.00000000000E+00  0.00000000000E+00  0.29078108133E+03  0.29078108133E+03  0.00000000000E+00 0.  1.
         22   -1    0    0    0    0 -0.00000000000E+00 -0.00000000000E+00 -0.14638503621E+04  0.14638503621E+04  0.00000000000E+00 0. -1.
         24    2    1    2    0    0 -0.73668220768E+02 -0.96134436827E+02 -0.98575161722E+03  0.99643337808E+03  0.80649794792E+02 0.  0.
         25    2    1    2    0    0  0.92845412415E+02  0.12790610249E+03 -0.44326919717E+03  0.48694476293E+03  0.12508948526E+03 0.  0.
        -24    2    1    2    0    0 -0.19177191646E+02 -0.31771665663E+02  0.25595153361E+03  0.27125330243E+03  0.81792194627E+02 0.  0.
        -11    1    3    3    0    0  0.13774359036E+02 -0.12569970669E+02 -0.60470945195E+02  0.63280900296E+02  0.00000000000E+00 0.  1.
         12    1    3    3    0    0 -0.87442579804E+02 -0.83564466158E+02 -0.92528067203E+03  0.93315247778E+03  0.00000000000E+00 0. -1.
         13    1    5    5    0    0  0.30405384600E+02 -0.54349127296E+01  0.12527739148E+03  0.12902887470E+03  0.00000000000E+00 0. -1.
        -14    1    5    5    0    0 -0.49582576246E+02 -0.26336752934E+02  0.13067414213E+03  0.14222442773E+03  0.00000000000E+00 0.  1.
          5    1    4    4  501    0  0.69241108623E+02  0.56524139076E+02 -0.37425329989E+03  0.38480165579E+03  0.41800000000E+01 0.  1.
         -5    1    4    4    0  501  0.23604303791E+02  0.71381963414E+02 -0.69015897281E+02  0.10214310714E+03  0.41800000000E+01 0.  1.
</event>
<event>
11    1  0.7882745E-009  0.1268081E+03  0.7561462E-02  0.1123254E+00
         22   -1    0    0    0    0  0.00000000000E+00  0.00000000000E+00  0.50038944527E+03  0.50038944527E+03  0.00000000000E+00 0.  1.
         22   -1    0    0    0    0 -0.00000000000E+00 -0.00000000000E+00 -0.13074723006E+03  0.13074723006E+03  0.00000000000E+00 0.  1.
        -24    2    1    2    0    0 -0.86388740210E+01 -0.18097116590E+02 -0.60611418144E+02  0.10337549918E+03  0.81305682749E+02 0.  0.
         25    2    1    2    0    0  0.26592602877E+02  0.12325013540E+02  0.48809457766E+02  0.13743464229E+03  0.12508735047E+03 0.  0.
         24    2    1    2    0    0 -0.17953728856E+02  0.57721030506E+01  0.38144417559E+03  0.39032653387E+03  0.80619416997E+02 0.  0.
        -11    1    5    5    0    0  0.11810174741E+02 -0.67049500248E+01  0.32517959334E+03  0.32546306167E+03  0.00000000000E+00 0.  1.
         12    1    5    5    0    0 -0.29763903597E+02  0.12477053075E+02  0.56264582248E+02  0.64863472203E+02  0.00000000000E+00 0. -1.
         13    1    3    3    0    0  0.16522581289E+02  0.15440014511E+02  0.71280582002E+01  0.23710735000E+02  0.00000000000E+00 0. -1.
        -14    1    3    3    0    0 -0.25161455310E+02 -0.33537131101E+02 -0.67739476345E+02  0.79664764176E+02  0.00000000000E+00 0.  1.
          5    1    4    4  501    0  0.66225626711E+02 -0.19337535546E+02  0.51910917841E+02  0.86440671593E+02  0.41800000000E+01 0.  1.
         -5    1    4    4    0  501 -0.39633023834E+02  0.31662549085E+02 -0.31014600753E+01  0.50993970697E+02  0.41800000000E+01 0.  1.
</event>
<event>
11    1  0.7882745E-009  0.2138432E+03  0.7561462E-02  0.1045144E+00
         22   -1    0    0    0    0  0.00000000000E+00  0.00000000000E+00  0.52507074483E+03  0.52507074483E+03  0.00000000000E+00 0. -1.
         22   -1    0    0    0    0 -0.00000000000E+00 -0.00000000000E+00 -0.50653572739E+03  0.50653572739E+03  0.00000000000E+00 0.  1.
        -24    2    1    2    0    0  0.18087849967E+02  0.48732277646E+02 -0.35411478826E+03  0.36734244122E+03  0.82711430035E+02 0.  0.
         25    2    1    2    0    0 -0.16577130741E+03  0.44919141478E+02 -0.33168905206E+02  0.21505655876E+03  0.12510512205E+03 0.  0.
         24    2    1    2    0    0  0.14768345744E+03 -0.93651419124E+02  0.40581871090E+03  0.44920747224E+03  0.80731252298E+02 0.  0.
        -11    1    5    5    0    0  0.46977155680E+02  0.18379873140E+01  0.16172554822E+03  0.16842026095E+03  0.00000000000E+00 0.  1.
         12    1    5    5    0    0  0.10070630176E+03 -0.95489406438E+02  0.24409316268E+03  0.28078721129E+03  0.00000000000E+00 0. -1.
         11    1    3    3    0    0 -0.13550322825E+02  0.14658611980E+02 -0.14783355906E+02  0.24840164365E+02  0.00000000000E+00 0. -1.
        -12    1    3    3    0    0  0.31638172792E+02  0.34073665666E+02 -0.33933143235E+03  0.34250227685E+03  0.00000000000E+00 0.  1.
          5    1    4    4  501    0 -0.74220014181E+02  0.33004763544E+02 -0.77687057812E+02  0.11247522515E+03  0.41800000000E+01 0.  1.
         -5    1    4    4    0  501 -0.91551293229E+02  0.11914377934E+02  0.44518152606E+02  0.10258133361E+03  0.41800000000E+01 0.  1.
</event>
<event>
11    1  0.7882745E-009  0.3490072E+03  0.7561462E-02  0.9813489E-01
         22   -1    0    0    0    0  0.00000000000E+00  0.00000000000E+00  0.12934031579E+04  0.12934031579E+04  0.00000000000E+00 0.  1.
         22   -1    0    0    0    0 -0.00000000000E+00 -0.00000000000E+00 -0.13176555690E+04  0.13176555690E+04  0.00000000000E+00 0. -1.
        -24    2    1    2    0    0  0.56893655616E+02 -0.14541127596E+02 -0.82284616416E+03  0.82881309227E+03  0.80043735593E+02 0.  0.
         25    2    1    2    0    0  0.16944639385E+03 -0.22312036322E+03 -0.41804598649E+03  0.51856039104E+03  0.12509058905E+03 0.  0.
         24    2    1    2    0    0 -0.22634004947E+03  0.23766149081E+03  0.12166397395E+04  0.12636852436E+04  0.94738254251E+02 0.  0.
        -11    1    5    5    0    0 -0.14044304463E+03  0.20594765205E+03  0.92581195288E+03  0.95878384230E+03  0.00000000000E+00 0.  1.
         12    1    5    5    0    0 -0.85897004834E+02  0.31713838761E+02  0.29082778667E+03  0.30490140129E+03  0.00000000000E+00 0. -1.
         13    1    3    3    0    0  0.36074773308E+02  0.28957757105E+02 -0.27652361406E+03  0.28036627846E+03  0.00000000000E+00 0. -1.
        -14    1    3    3    0    0  0.20818882308E+02 -0.43498884701E+02 -0.54632255010E+03  0.54844681381E+03  0.00000000000E+00 0.  1.
          5    1    4    4  501    0  0.96813590691E+02 -0.20900782103E+03 -0.28717650016E+03  0.36816430468E+03  0.41800000000E+01 0.  1.
         -5    1    4    4    0  501  0.72632803161E+02 -0.14112542184E+02 -0.13086948633E+03  0.15039608637E+03  0.41800000000E+01 0.  1.
</event>
<event>
11    1  0.7882745E-009  0.1291584E+03  0.7561462E-02  0.1120307E+00
         22   -1    0    0    0    0  0.00000000000E+00  0.00000000000E+00  0.13014095791E+03  0.13014095791E+03  0.00000000000E+00 0. -1.
         22   -1    0    0    0    0 -0.00000000000E+00 -0.00000000000E+00 -0.27847015160E+03  0.27847015160E+03  0.00000000000E+00 0. -1.
        -24    2    1    2    0    0  0.17293750116E+02 -0.21384769201E+02 -0.15053744722E+03  0.17349647155E+03  0.81750354607E+02 0.  0.
         25    2    1    2    0    0 -0.33669601788E+02  0.41025502322E+02 -0.38388176129E+02  0.14119976751E+03  0.12508792249E+03 0.  0.
         24    2    1    2    0    0  0.16375851672E+02 -0.19640733120E+02  0.40596429654E+02  0.93914870464E+02  0.80734167971E+02 0.  0.
        -11    1    5    5    0    0 -0.29620941180E+01 -0.44884027070E+01 -0.24109567264E+02  0.24702044330E+02  0.00000000000E+00 0.  1.
         12    1    5    5    0    0  0.19337945790E+02 -0.15152330413E+02  0.64705996918E+02  0.69212826134E+02  0.00000000000E+00 0. -1.
         11    1    3    3    0    0 -0.73727143749E+01  0.17460134664E+02 -0.11165917016E+03  0.11325627356E+03  0.00000000000E+00 0. -1.
        -12    1    3    3    0    0  0.24666464491E+02 -0.38844903865E+02 -0.38878277054E+02  0.60240197986E+02  0.00000000000E+00 0.  1.
          5    1    4    4  501    0  0.19185565412E+02  0.59595671316E+02 -0.54117829323E+02  0.82860978817E+02  0.41800000000E+01 0.  1.
         -5    1    4    4    0  501 -0.52855167200E+02 -0.18570168995E+02  0.15729653195E+02  0.58338788690E+02  0.41800000000E+01 0.  1.
</event>
<event>
11    1  0.7882745E-009  0.1402641E+03  0.7561462E-02  0.1107264E+00
         22   -1    0    0    0    0  0.00000000000E+00  0.00000000000E+00  0.66983896101E+03  0.66983896101E+03  0.00000000000E+00 0. -1.
         22   -1    0    0    0    0 -0.00000000000E+00 -0.00000000000E+00 -0.84595966956E+03  0.84595966956E+03  0.00000000000E+00 0. -1.
         24    2    1    2    0    0  0.17602676391E+02 -0.61148179322E+01 -0.67372493995E+03  0.67863937313E+03  0.79365350340E+02 0.  0.
         25    2    1    2    0    0  0.98588493598E+01  0.63396590905E+02 -0.13595870149E+03  0.19556554835E+03  0.12507913713E+03 0.  0.
        -24    2    1    2    0    0 -0.27461525751E+02 -0.57281772973E+02  0.63356293289E+03  0.64159370908E+03  0.78772842311E+02 0.  0.
        -13    1    3    3    0    0 -0.27514105439E+02 -0.56374808409E+01 -0.12762968546E+03  0.13068337232E+03  0.00000000000E+00 0.  1.
         14    1    3    3    0    0  0.45116781830E+02 -0.47733709130E+00 -0.54609525449E+03  0.54795600081E+03  0.00000000000E+00 0. -1.
         11    1    5    5    0    0 -0.52370722318E+02 -0.31111477839E+02  0.47935220818E+03  0.48320715651E+03  0.00000000000E+00 0. -1.
        -12    1    5    5    0    0  0.24909196566E+02 -0.26170295134E+02  0.15421072471E+03  0.15838655257E+03  0.00000000000E+00 0.  1.
          5    1    4    4  501    0  0.36740945443E+02 -0.27007655095E+02 -0.37836993385E+02  0.59400513249E+02  0.41800000000E+01 0.  1.
         -5    1    4    4    0  501 -0.26882096084E+02  0.90404246000E+02 -0.98121708102E+02  0.13616503511E+03  0.41800000000E+01 0.  1.
</event>
<event>
11    1  0.7882745E-009  0.1807567E+03  0.7561462E-02  0.1069032E+00
         22   -1    0    0    0    0  0.00000000000E+00  0.00000000000E+00  0.17549857635E+04  0.17549857635E+04  0.00000000000E+00 0.  1.
         22   -1    0    0    0    0 -0.00000000000E+00 -0.00000000000E+00 -0.14299081339E+03  0.14299081339E+03  0.00000000000E+00 0. -1.
         24    2    1    2    0    0 -0.11280172997E+03  0.21767768705E+02 -0.27491344704E+02  0.14323432731E+03  0.81007607357E+02 0.  0.
         25    2    1    2    0    0  0.19992865688E+03 -0.96260113122E+01  0.19815390381E+03  0.30818385404E+03  0.12509272703E+03 0.  0.
        -24    2    1    2    0    0 -0.87126926916E+02 -0.12141757393E+02  0.14413323910E+04  0.14465583955E+04  0.85753173100E+02 0.  0.
        -11    1    3    3    0    0 -0.38236707449E+01  0.11268658895E+02  0.20493442379E+02  0.23697770186E+02  0.00000000000E+00 0.  1.
         12    1    3    3    0    0 -0.10897805922E+03  0.10499109810E+02 -0.47984787083E+02  0.11953655713E+03  0.00000000000E+00 0. -1.
         11    1    5    5    0    0  0.80951105115E+01 -0.15557421929E+02  0.80203254134E+02  0.82098271388E+02  0.00000000000E+00 0. -1.
        -12    1    5    5    0    0 -0.95222037427E+02  0.34156645359E+01  0.13611291368E+04  0.13644601241E+04  0.00000000000E+00 0.  1.
          5    1    4    4  501    0  0.20808053212E+03  0.13811309252E+02  0.18879775653E+03  0.28133667621E+03  0.41800000000E+01 0. -1.
         -5    1    4    4    0  501 -0.81518752399E+01 -0.23437320564E+02  0.93561472819E+01  0.26847177824E+02  0.41800000000E+01 0. -1.
</event>
<event>
11    1  0.7882745E-009  0.1925555E+03  0.7561462E-02  0.1059917E+00
         22   -1    0    0    0    0  0.00000000000E+00  0.00000000000E+00  0.56719748835E+03  0.56719748835E+03  0.00000000000E+00 0.  1.
         22   -1    0    0    0    0 -0.00000000000E+00 -0.00000000000E+00 -0.46358497185E+03  0.46358497185E+03  0.00000000000E+00 0. -1.
        -24    2    1    2    0    0 -0.14259618292E+03 -0.60108209582E+01 -0.32674312245E+03  0.36579887804E+03  0.81718723417E+02 0.  0.
         25    2    1    2    0    0  0.16415624657E+03 -0.70040034050E+00 -0.19694609389E+02  0.20732303848E+03  0.12508877166E+03 0.  0.
         24    2    1    2    0    0 -0.21560063648E+02  0.67112212987E+01  0.45005024833E+03  0.45766054368E+03  0.79987938956E+02 0.  0.
        -11    1    5    5    0    0 -0.24263538843E+02  0.29113433484E+02  0.40953956990E+03  0.41128940011E+03  0.00000000000E+00 0.  1.
         12    1    5    5    0    0  0.27034751951E+01 -0.22402212185E+02  0.40510678433E+02  0.46371143570E+02  0.00000000000E+00 0. -1.
         11    1    3    3    0    0 -0.58762130291E+02  0.37449464035E+02 -0.12702639961E+03  0.14488325131E+03  0.00000000000E+00 0. -1.
        -12    1    3    3    0    0 -0.83834052634E+02 -0.43460284993E+02 -0.19971672284E+03  0.22091562673E+03  0.00000000000E+00 0.  1.
          5    1    4    4  501    0  0.78302968024E+02 -0.85823631530E+01  0.52532886466E+02  0.94774407511E+02  0.41800000000E+01 0.  1.
         -5    1    4    4    0  501  0.85853278549E+02  0.78819628125E+01 -0.72227495855E+02  0.11254863097E+03  0.41800000000E+01 0.  1.
</event>
<event>
11    1  0.7882745E-009  0.1716818E+03  0.7561462E-02  0.1076577E+00
         22   -1    0    0    0    0  0.00000000000E+00  0.00000000000E+00  0.67322835181E+02  0.67322835181E+02  0.00000000000E+00 0. -1.
         22   -1    0    0    0    0 -0.00000000000E+00 -0.00000000000E+00 -0.13488717106E+04  0.13488717106E+04  0.00000000000E+00 0.  1.
        -24    2    1    2    0    0  0.42880005977E+02  0.40597511417E+02 -0.89953209094E+03  0.90516917819E+03  0.81770444944E+02 0.  0.
         25    2    1    2    0    0 -0.77265911042E+02 -0.13791234831E+03 -0.29502957342E+03  0.35731870693E+03  0.12507746520E+03 0.  0.
         24    2    1    2    0    0  0.34385905066E+02  0.97314836891E+02 -0.86987211008E+02  0.15370666061E+03  0.73528189778E+02 0.  0.
        -13    1    5    5    0    0 -0.20121177991E+02  0.26434496464E+02 -0.74743712668E+01  0.34051587817E+02  0.00000000000E+00 0.  1.
         14    1    5    5    0    0  0.54507083057E+02  0.70880340427E+02 -0.79512839741E+02  0.11965507280E+03  0.00000000000E+00 0. -1.
         13    1    3    3    0    0  0.16923715216E+01 -0.23527811208E+02 -0.16172484011E+03  0.16343606068E+03  0.00000000000E+00 0. -1.
        -14    1    3    3    0    0  0.41187634455E+02  0.64125322625E+02 -0.73780725083E+03  0.74173311751E+03  0.00000000000E+00 0.  1.
          5    1    4    4  501    0 -0.63514094674E+02 -0.69754942854E+02 -0.26526041650E+03  0.28156767079E+03  0.41800000000E+01 0.  1.
         -5    1    4    4    0  501 -0.13751816368E+02 -0.68157405453E+02 -0.29769156923E+02  0.75751036135E+02  0.41800000000E+01 0.  1.
</event>
<event>
11    1  0.7882745E-009  0.1531957E+03  0.7561462E-02  0.1093657E+00
         22   -1    0    0    0    0  0.00000000000E+00  0.00000000000E+00  0.24302261526E+04  0.24302261526E+04  0.00000000000E+00 0.  1.
         22   -1    0    0    0    0 -0.00000000000E+00 -0.00000000000E+00 -0.84847827556E+02  0.84847827556E+02  0.00000000000E+00 0. -1.
         24    2    1    2    0    0 -0.53367127106E+02  0.30632614687E+02 -0.26467446897E+02  0.10529453491E+03  0.81240420971E+02 0.  0.
         25    2    1    2    0    0  0.19000086167E+02 -0.11110761673E+03  0.39819830828E+03  0.43233692220E+03  0.12508963111E+03 0.  0.
        -24    2    1    2    0    0  0.34367040939E+02  0.80475002041E+02  0.19736474636E+04  0.19774425230E+04  0.85658050724E+02 0.  0.
        -11    1    3    3    0    0  0.72126456523E+01 -0.20520805252E+02 -0.11506476289E+02  0.24607411528E+02  0.00000000000E+00 0.  1.
         12    1    3    3    0    0 -0.60579772759E+02  0.51153419939E+02 -0.14960970608E+02  0.80687123387E+02  0.00000000000E+00 0. -1.
         13    1    5    5    0    0  0.51010060671E+02  0.31463515675E+02  0.64253890658E+03  0.64532799845E+03  0.00000000000E+00 0. -1.
        -14    1    5    5    0    0 -0.16643019732E+02  0.49011486365E+02  0.13311085570E+04  0.13321145245E+04  0.00000000000E+00 0.  1.
          5    1    4    4  501    0 -0.44617405892E+02 -0.54980997757E+02  0.10227130893E+03  0.12446090171E+03  0.41800000000E+01 0. -1.
         -5    1    4    4    0  501  0.63617492060E+02 -0.56126618971E+02  0.29592699934E+03  0.30787602049E+03  0.41800000000E+01 0. -1.
</event>
<event>
11    1  0.7882745E-009  0.1314592E+03  0.7561462E-02  0.1117489E+00
         22   -1    0    0    0    0  0.00000000000E+00  0.00000000000E+00  0.82038382181E+02  0.82038382181E+02  0.00000000000E+00 0. -1.
         22   -1    0    0    0    0 -0.00000000000E+00 -0.00000000000E+00 -0.94865093915E+03  0.94865093915E+03  0.00000000000E+00 0. -1.
         24    2    1    2    0    0 -0.34937434572E+02 -0.22429807192E+02 -0.78804750661E+03  0.79326802475E+03  0.80818103375E+02 0.  0.
         25    2    1    2    0    0  0.10910935367E+02  0.30971166404E+02 -0.81478815312E+02  0.15284030180E+03  0.12507237445E+03 0.  0.
        -24    2    1    2    0    0  0.24026499204E+02 -0.85413592117E+01  0.29137649470E+01  0.84580994789E+02  0.80592972225E+02 0.  0.
        -13    1    3    3    0    0  0.26407648853E+02 -0.61256797075E+01 -0.20853355369E+03  0.21028820909E+03  0.00000000000E+00 0.  1.
         14    1    3    3    0    0 -0.61345083425E+02 -0.16304127485E+02 -0.57951395292E+03  0.58297981566E+03  0.00000000000E+00 0. -1.
         11    1    5    5    0    0 -0.27504812140E+02  0.98105864677E+01  0.59227069452E+01  0.29796656780E+02  0.00000000000E+00 0. -1.
        -12    1    5    5    0    0  0.51531311344E+02 -0.18351945679E+02 -0.30089419982E+01  0.54784338009E+02  0.00000000000E+00 0.  1.
          5    1    4    4  501    0 -0.39575511566E+02  0.59163394631E+02 -0.46665675505E+02  0.85215527050E+02  0.41800000000E+01 0.  1.
         -5    1    4    4    0  501  0.50486446933E+02 -0.28192228228E+02 -0.34813139807E+02  0.67624774747E+02  0.41800000000E+01 0.  1.
</event>
<event>
11    1  0.7882745E-009  0.2293079E+03  0.7561462E-02  0.1035539E+00
         22   -1    0    0    0    0  0.00000000000E+00  0.00000000000E+00  0.31684587061E+04  0.31684587061E+04  0.00000000000E+00 0. -1.
         22   -1    0    0    0    0 -0.00000000000E+00 -0.00000000000E+00 -0.25885957294E+03  0.25885957294E+03  0.00000000000E+00 0. -1.
        -24    2    1    2    0    0  0.37296120274E+02  0.18755186336E+03 -0.18796343945E+03  0.27670473135E+03  0.68326801045E+02 0.  0.
         25    2    1    2    0    0 -0.85996308358E+02 -0.19126323336E+03  0.55555465199E+03  0.60684838822E+03  0.12508799084E+03 0.  0.
         24    2    1    2    0    0  0.48700188083E+02  0.37113700059E+01  0.25420079207E+04  0.25437651595E+04  0.80940937732E+02 0.  0.
        -13    1    5    5    0    0  0.23405046368E+02 -0.21179900261E+02  0.33780867091E+03  0.33928024185E+03  0.00000000000E+00 0.  1.
         14    1    5    5    0    0  0.25295141715E+02  0.24891270267E+02  0.22041992498E+04  0.22044849177E+04  0.00000000000E+00 0. -1.
         13    1    3    3    0    0  0.39521054874E+02  0.16626847067E+03 -0.12942660085E+03  0.21437901746E+03  0.00000000000E+00 0. -1.
        -14    1    3    3    0    0 -0.22249345995E+01  0.21283392687E+02 -0.58536838602E+02  0.62325713889E+02  0.00000000000E+00 0.  1.
          5    1    4    4  501    0 -0.24022975690E+02  0.12769048280E+02  0.36745237583E+02  0.45911184258E+02  0.41800000000E+01 0. -1.
         -5    1    4    4    0  501 -0.61973332668E+02 -0.20403228164E+03  0.51880941441E+03  0.56093720397E+03  0.41800000000E+01 0. -1.
</event>
<event>
11    1  0.7882745E-009  0.1276623E+03  0.7561462E-02  0.1122175E+00
         22   -1    0    0    0    0  0.00000000000E+00  0.00000000000E+00  0.43789852403E+03  0.43789852403E+03  0.00000000000E+00 0.  1.
         22   -1    0    0    0    0 -0.00000000000E+00 -0.00000000000E+00 -0.10129849371E+04  0.10129849371E+04  0.00000000000E+00 0. -1.
        -24    2    1    2    0    0  0.50924169814E+01 -0.10457653166E+02 -0.62120020540E+03  0.62638747858E+03  0.79600772111E+02 0.  0.
         25    2    1    2    0    0 -0.14232601962E+02  0.34124716616E+02 -0.37383484099E+03  0.39593816200E+03  0.12508987388E+03 0.  0.
         24    2    1    2    0    0  0.91401849810E+01 -0.23667063450E+02  0.41994863328E+03  0.42855782059E+03  0.81616653421E+02 0.  0.
        -13    1    5    5    0    0  0.74516470771E+01 -0.38021617915E+02  0.40791400791E+03  0.40974993389E+03  0.00000000000E+00 0.  1.
         14    1    5    5    0    0  0.16885379040E+01  0.14354554465E+02  0.12034625374E+02  0.18807886698E+02  0.00000000000E+00 0. -1.
         13    1    3    3    0    0  0.24093209781E+02  0.62860194048E+01 -0.55422406347E+03  0.55478311918E+03  0.00000000000E+00 0. -1.
        -14    1    3    3    0    0 -0.19000792800E+02 -0.16743672571E+02 -0.66976141924E+02  0.71604359401E+02  0.00000000000E+00 0.  1.
          5    1    4    4  501    0  0.37136072270E+02  0.60543370356E+02 -0.17714308981E+03  0.19089718234E+03  0.41800000000E+01 0.  1.
         -5    1    4    4    0  501 -0.51368674233E+02 -0.26418653740E+02 -0.19669175118E+03  0.20504097966E+03  0.41800000000E+01 0.  1.
</event>
<event>
11    1  0.7882745E-009  0.1357522E+03  0.7561462E-02  0.1112397E+00
         22   -1    0    0    0    0  0.00000000000E+00  0.00000000000E+00  0.25043114722E+03  0.25043114722E+03  0.00000000000E+00 0. -1.
         22   -1    0    0    0    0 -0.00000000000E+00 -0.00000000000E+00 -0.63081151058E+03  0.63081151058E+03  0.00000000000E+00 0. -1.
        -24    2    1    2    0    0  0.26121442489E+02  0.47536515216E+02 -0.51240080733E+03  0.52134677043E+03  0.79409178609E+02 0.  0.
         25    2    1    2    0    0 -0.93446836499E+01 -0.39202272507E+02 -0.64921058590E+02  0.14658392334E+03  0.12509181209E+03 0.  0.
         24    2    1    2    0    0 -0.16776758839E+02 -0.83342427089E+01  0.19694150256E+03  0.21331196402E+03  0.79781697944E+02 0.  0.
        -13    1    5    5    0    0 -0.24115846052E+02 -0.17975668835E+02  0.20373638376E+02  0.36328829344E+02  0.00000000000E+00 0.  1.
         14    1    5    5    0    0  0.73390872128E+01  0.96414261259E+01  0.17656786418E+03  0.17698313468E+03  0.00000000000E+00 0. -1.
         13    1    3    3    0    0  0.16216528462E+02 -0.86987247058E+01 -0.32304663535E+03  0.32357035127E+03  0.00000000000E+00 0. -1.
        -14    1    3    3    0    0  0.99049140269E+01  0.56235239922E+02 -0.18935417198E+03  0.19777641917E+03  0.00000000000E+00 0.  1.
          5    1    4    4  501    0  0.48826643255E+02 -0.41070608473E+02 -0.60564573526E+02  0.88070289759E+02  0.41800000000E+01 0.  1.
         -5    1    4    4    0  501 -0.58171326905E+02  0.18683359656E+01 -0.43564850633E+01  0.58513633584E+02  0.41800000000E+01 0.  1.
</event>
<event>
11    1  0.7882745E-009  0.1941686E+03  0.7561462E-02  0.1058726E+00
         22   -1    0    0    0    0  0.00000000000E+00  0.00000000000E+00  0.36985778665E+03  0.36985778665E+03  0.00000000000E+00 0. -1.
         22   -1    0    0    0    0 -0.00000000000E+00 -0.00000000000E+00 -0.68877122516E+03  0.68877122516E+03  0.00000000000E+00 0. -1.
        -24    2    1    2    0    0  0.12352299199E+03 -0.90307185112E+02 -0.57033001107E+03  0.59599607500E+03  0.80756935604E+02 0.  0.
         25    2    1    2    0    0 -0.98668673915E+02  0.71020327945E+02 -0.22432161664E+02  0.17586790119E+03  0.12508765965E+03 0.  0.
         24    2    1    2    0    0 -0.24854318077E+02  0.19286857166E+02  0.27384873423E+03  0.28676503563E+03  0.79065393397E+02 0.  0.
        -13    1    5    5    0    0  0.22440784550E+02  0.12891896276E+02  0.36982640574E+02  0.45138736188E+02  0.00000000000E+00 0.  1.
         14    1    5    5    0    0 -0.47295102627E+02  0.63949608904E+01  0.23686609366E+03  0.24162629944E+03  0.00000000000E+00 0. -1.
         13    1    3    3    0    0  0.16277653875E+02 -0.38244972532E+02 -0.26461161074E+03  0.26785620112E+03  0.00000000000E+00 0. -1.
        -14    1    3    3    0    0  0.10724533812E+03 -0.52062212580E+02 -0.30571840033E+03  0.32813987388E+03  0.00000000000E+00 0.  1.
          5    1    4    4  501    0  0.12316044749E+02 -0.24147048058E+02 -0.95496511662E+01  0.29041920143E+02  0.41800000000E+01 0.  1.
         -5    1    4    4    0  501 -0.11098471866E+03  0.95167376004E+02 -0.12882510497E+02  0.14682598104E+03  0.41800000000E+01 0.  1.
</event>
<event>
11    1  0.7882745E-009  0.1504283E+03  0.7561462E-02  0.1096442E+00
         22   -1    0    0    0    0  0.00000000000E+00  0.00000000000E+00  0.12901738324E+04  0.12901738324E+04  0.00000000000E+00 0.  1.
         22   -1    0    0    0    0 -0.00000000000E+00 -0.00000000000E+00 -0.64134045331E+03  0.64134045331E+03  0.00000000000E+00 0. -1.
         24    2    1    2    0    0  0.65744257535E+02  0.26374180339E-01 -0.58182201054E+03  0.59170602175E+03  0.85304490691E+02 0.  0.
         25    2    1    2    0    0 -0.26318546626E+02 -0.75354927675E+02  0.54282293492E+02  0.15800196577E+03  0.12508806010E+03 0.  0.
        -24    2    1    2    0    0 -0.39425710910E+02  0.75328553495E+02  0.11763730961E+04  0.11818062982E+04  0.74724075498E+02 0.  0.
        -11    1    3    3    0    0  0.62445452113E+02 -0.18359484893E+02 -0.22061318885E+03  0.23001453056E+03  0.00000000000E+00 0.  1.
         12    1    3    3    0    0  0.32988054223E+01  0.18385859073E+02 -0.36120882169E+03  0.36169149119E+03  0.00000000000E+00 0. -1.
         11    1    5    5    0    0  0.14311168158E+02  0.16883465085E+02  0.95933070480E+02  0.98453110357E+02  0.00000000000E+00 0. -1.
        -12    1    5    5    0    0 -0.53736879068E+02  0.58445088410E+02  0.10804400257E+04  0.10833531878E+04  0.00000000000E+00 0.  1.
          5    1    4    4  501    0  0.46900829751E+02 -0.34008240493E+02  0.47555468966E+00  0.58085685027E+02  0.41800000000E+01 0. -1.
         -5    1    4    4    0  501 -0.73219376377E+02 -0.41346687182E+02  0.53806738802E+02  0.99916280748E+02  0.41800000000E+01 0. -1.
</event>
<event>
11    1  0.7882745E-009  0.1361658E+03  0.7561462E-02  0.1111917E+00
         22   -1    0    0    0    0  0.00000000000E+00  0.00000000000E+00  0.12441584931E+04  0.12441584931E+04  0.00000000000E+00 0.  1.
         22   -1    0    0    0    0 -0.00000000000E+00 -0.00000000000E+00 -0.32638237746E+03  0.32638237746E+03  0.00000000000E+00 0. -1.
        -24    2    1    2    0    0 -0.84220096503E+01 -0.15745071613E+02 -0.25873091898E+03  0.26796063008E+03  0.67397131343E+02 0.  0.
         25    2    1    2    0    0 -0.45358939697E+02  0.20696965342E+02  0.13237104912E+02  0.13530969344E+03  0.12509074469E+03 0.  0.
         24    2    1    2    0    0  0.53780949347E+02 -0.49518937287E+01  0.11632699297E+04  0.11672705471E+04  0.80041794309E+02 0.  0.
        -13    1    5    5    0    0  0.35550556505E+02 -0.77244115548E+01  0.11150759132E+04  0.11156692166E+04  0.00000000000E+00 0.  1.
         14    1    5    5    0    0  0.18230392843E+02  0.27725178261E+01  0.48194016536E+02  0.51601330489E+02  0.00000000000E+00 0. -1.
         13    1    3    3    0    0 -0.81595521773E+00  0.24067625755E+02 -0.52160433801E+02  0.57451085688E+02  0.00000000000E+00 0. -1.
        -14    1    3    3    0    0 -0.76060544326E+01 -0.39812697368E+02 -0.20657048518E+03  0.21050954440E+03  0.00000000000E+00 0.  1.
          5    1    4    4  501    0 -0.17402736122E+02 -0.12843217064E+02 -0.52127937032E+02  0.56591498197E+02  0.41800000000E+01 0.  1.
         -5    1    4    4    0  501 -0.27956203575E+02  0.33540182405E+02  0.65365041943E+02  0.78718195243E+02  0.41800000000E+01 0.  1.
</event>
<event>
11    1  0.7882745E-009  0.5335147E+03  0.7561462E-02  0.9321600E-01
         22   -1    0    0    0    0  0.00000000000E+00  0.00000000000E+00  0.19009398329E+04  0.19009398329E+04  0.00000000000E+00 0.  1.
         22   -1    0    0    0    0 -0.00000000000E+00 -0.00000000000E+00 -0.24482189643E+04  0.24482189643E+04  0.00000000000E+00 0.  1.
         24    2    1    2    0    0  0.50104243661E+03 -0.13257304694E+03 -0.23115342943E+04  0.23702482139E+04  0.79162274718E+02 0.  0.
         25    2    1    2    0    0 -0.51669526128E+03  0.10780588834E+03  0.58980104777E+03  0.80131736896E+03  0.12509255473E+03 0.  0.
        -24    2    1    2    0    0  0.15652824670E+02  0.24767158609E+02  0.11744541151E+04  0.11775932144E+04  0.80776772545E+02 0.  0.
        -11    1    3    3    0    0  0.47141335483E+03 -0.10520978396E+03 -0.21681145556E+04  0.22212654897E+04  0.00000000000E+00 0.  1.
         12    1    3    3    0    0  0.29629081782E+02 -0.27363262980E+02 -0.14341973875E+03  0.14898272420E+03  0.00000000000E+00 0. -1.
         13    1    5    5    0    0 -0.20875029784E+02 -0.12638481771E+02  0.66844024654E+03  0.66888553676E+03  0.00000000000E+00 0. -1.
        -14    1    5    5    0    0  0.36527854454E+02  0.37405640381E+02  0.50601386858E+03  0.50870767763E+03  0.00000000000E+00 0.  1.
          5    1    4    4  501    0 -0.49325028801E+03  0.10868417543E+03  0.50902665218E+03  0.71710090060E+03  0.41800000000E+01 0. -1.
         -5    1    4    4    0  501 -0.23444973278E+02 -0.87828709441E+00  0.80774395590E+02  0.84216468361E+02  0.41800000000E+01 0. -1.
</event>
<event>
11    1  0.7882745E-009  0.1397183E+03  0.7561462E-02  0.1107873E+00
         22   -1    0    0    0    0  0.00000000000E+00  0.00000000000E+00  0.18500121931E+04  0.18500121931E+04  0.00000000000E+00 0. -1.
         22   -1    0    0    0    0 -0.00000000000E+00 -0.00000000000E+00 -0.86831576214E+02  0.86831576214E+02  0.00000000000E+00 0.  1.
         24    2    1    2    0    0  0.44783970026E+02 -0.44022957332E+02 -0.37243419312E+02  0.10838180020E+03  0.80099423157E+02 0.  0.
         25    2    1    2    0    0 -0.69255947100E+02  0.74058816242E+01  0.39620522691E+03  0.42128087754E+03  0.12509101750E+03 0.  0.
        -24    2    1    2    0    0  0.24471977074E+02  0.36617075708E+02  0.14042188093E+04  0.14071810916E+04  0.79927918858E+02 0.  0.
        -11    1    3    3    0    0  0.58123394834E+02 -0.49608594872E+02 -0.48104258149E+02  0.90295965382E+02  0.00000000000E+00 0.  1.
         12    1    3    3    0    0 -0.13339424809E+02  0.55856375404E+01  0.10860838838E+02  0.18085834822E+02  0.00000000000E+00 0. -1.
         11    1    5    5    0    0  0.33311164475E+02  0.15192711440E+02  0.12956013096E+04  0.12961185153E+04  0.00000000000E+00 0. -1.
        -12    1    5    5    0    0 -0.88391874006E+01  0.21424364268E+02  0.10861749974E+03  0.11106257636E+03  0.00000000000E+00 0.  1.
          5    1    4    4  501    0 -0.69301121676E+02 -0.26851702889E+02  0.10890052422E+03  0.13191078799E+03  0.41800000000E+01 0.  1.
         -5    1    4    4    0  501  0.45174576811E-01  0.34257584513E+02  0.28730470269E+03  0.28937008955E+03  0.41800000000E+01 0.  1.
</event>
<event>
11    1  0.7882745E-009  0.1284165E+03  0.7561462E-02  0.1121230E+00
         22   -1    0    0    0    0  0.00000000000E+00  0.00000000000E+00  0.25618944291E+03  0.25618944291E+03  0.00000000000E+00 0. -1.
         22   -1    0    0    0    0 -0.00000000000E+00 -0.00000000000E+00 -0.46477341404E+03  0.46477341404E+03  0.00000000000E+00 0.  1.
         24    2    1    2    0    0 -0.25607731780E+02  0.33195099353E+02 -0.41076556586E+03  0.42046882748E+03  0.79423008250E+02 0.  0.
         25    2    1    2    0    0  0.12222827154E+01  0.10205060589E+02  0.13757031281E+03  0.18622955899E+03  0.12510084108E+03 0.  0.
        -24    2    1    2    0    0  0.24385449065E+02 -0.43400159942E+02  0.64611281913E+02  0.11426447048E+03  0.80022043552E+02 0.  0.
        -11    1    3    3    0    0 -0.39800077283E+02  0.43495479287E+02 -0.38380526684E+03  0.38830707658E+03  0.00000000000E+00 0.  1.
         12    1    3    3    0    0  0.14192345503E+02 -0.10300379934E+02 -0.26960299020E+02  0.32161750899E+02  0.00000000000E+00 0. -1.
         13    1    5    5    0    0 -0.41279626760E+01 -0.11166667380E+02  0.69899193750E+02  0.70905795413E+02  0.00000000000E+00 0. -1.
        -14    1    5    5    0    0  0.28513411741E+02 -0.32233492562E+02 -0.52879118374E+01  0.43358675065E+02  0.00000000000E+00 0.  1.
          5    1    4    4  501    0  0.26416302726E+02 -0.13364369936E+02 -0.12339373855E+02  0.32344396434E+02  0.41800000000E+01 0. -1.
         -5    1    4    4    0  501 -0.25194020011E+02  0.23569430525E+02  0.14990968667E+03  0.15388516256E+03  0.41800000000E+01 0. -1.
</event>
<event>
11    1  0.7882745E-009  0.1924364E+03  0.7561462E-02  0.1060005E+00
         22   -1    0    0    0    0  0.00000000000E+00  0.00000000000E+00  0.74905007852E+03  0.74905007852E+03  0.00000000000E+00 0.  1.
         22   -1    0    0    0    0 -0.00000000000E+00 -0.00000000000E+00 -0.70692207364E+03  0.70692207364E+03  0.00000000000E+00 0.  1.
         24    2    1    2    0    0 -0.66032868669E+01 -0.14837958023E+03 -0.62432452212E+03  0.64677815494E+03  0.80503226949E+02 0.  0.
         25    2    1    2    0    0  0.24449274789E+02  0.12163242486E+03  0.47366193883E+02  0.18244110838E+03  0.12509591475E+03 0.  0.
        -24    2    1    2    0    0 -0.17845987922E+02  0.26747155371E+02  0.61908633312E+03  0.62675288885E+03  0.92289794801E+02 0.  0.
        -11    1    3    3    0    0  0.35006648740E+02 -0.94797624191E+02 -0.36622804703E+03  0.37991451334E+03  0.00000000000E+00 0.  1.
         12    1    3    3    0    0 -0.41609935607E+02 -0.53581956038E+02 -0.25809647509E+03  0.26686364160E+03  0.00000000000E+00 0. -1.
         11    1    5    5    0    0 -0.36040411490E+02 -0.17413187076E+02  0.42481801687E+03  0.42669951700E+03  0.00000000000E+00 0. -1.
        -12    1    5    5    0    0  0.18194423568E+02  0.44160342447E+02  0.19426831625E+03  0.20005337186E+03  0.00000000000E+00 0.  1.
          5    1    4    4  501    0  0.25989028979E+02  0.12114879261E+03 -0.10483645575E+02  0.12441800032E+03  0.41800000000E+01 0.  1.
         -5    1    4    4    0  501 -0.15397541897E+01  0.48363224338E+00  0.57849839459E+02  0.58023108056E+02  0.41800000000E+01 0. -1.
</event>
<event>
11    1  0.7882745E-009  0.1531777E+03  0.7561462E-02  0.1093675E+00
         22   -1    0    0    0    0  0.00000000000E+00  0.00000000000E+00  0.22582665589E+03  0.22582665589E+03  0.00000000000E+00 0. -1.
         22   -1    0    0    0    0 -0.00000000000E+00 -0.00000000000E+00 -0.58437506368E+03  0.58437506368E+03  0.00000000000E+00 0. -1.
        -24    2    1    2    0    0  0.73129704224E+02  0.35617527259E+02 -0.30888897101E+03  0.32888267541E+03  0.78325320829E+02 0.  0.
         25    2    1    2    0    0 -0.94612284077E+02 -0.50418130690E+02 -0.22949504574E+03  0.28250298295E+03  0.12508591911E+03 0.  0.
         24    2    1    2    0    0  0.21482579853E+02  0.14800603431E+02  0.17983560896E+03  0.19881606120E+03  0.80662388033E+02 0.  0.
        -11    1    5    5    0    0  0.30546492031E+02  0.36922872520E+02  0.60857494401E+02  0.77459804514E+02  0.00000000000E+00 0.  1.
         12    1    5    5    0    0 -0.90639121782E+01 -0.22122269089E+02  0.11897811456E+03  0.12135625669E+03  0.00000000000E+00 0. -1.
         13    1    3    3    0    0  0.22697105571E+02  0.28871158284E+02 -0.24236025124E+03  0.24512689318E+03  0.00000000000E+00 0. -1.
        -14    1    3    3    0    0  0.50432598653E+02  0.67463689744E+01 -0.66528719775E+02  0.83755782225E+02  0.00000000000E+00 0.  1.
          5    1    4    4  501    0 -0.10526610063E+02 -0.44523493885E+02 -0.17756134614E+03  0.18340843784E+03  0.41800000000E+01 0.  1.
         -5    1    4    4    0  501 -0.84085674014E+02 -0.58946368044E+01 -0.51933699594E+02  0.99094545112E+02  0.41800000000E+01 0.  1.
</event>
<event>
11    1  0.7882745E-009  0.1794772E+03  0.7561462E-02  0.1070066E+00
         22   -1    0    0    0    0  0.00000000000E+00  0.00000000000E+00  0.17086612236E+03  0.17086612236E+03  0.00000000000E+00 0.  1.
         22   -1    0    0    0    0 -0.00000000000E+00 -0.00000000000E+00 -0.53629880541E+03  0.53629880541E+03  0.00000000000E+00 0. -1.
        -24    2    1    2    0    0  0.67982307498E+02 -0.11336509056E+03 -0.28082384940E+03  0.32034625697E+03  0.79287149459E+02 0.  0.
         25    2    1    2    0    0  0.62122787508E+02  0.14664135864E+03 -0.10972952917E+03  0.23032822489E+03  0.12509033862E+03 0.  0.
         24    2    1    2    0    0 -0.13010509501E+03 -0.33276268078E+02  0.25120695515E+02  0.15649044591E+03  0.76312283122E+02 0.  0.
        -11    1    5    5    0    0 -0.12574329207E+03 -0.37587077241E+02  0.62871646905E+00  0.13124236800E+03  0.00000000000E+00 0.  1.
         12    1    5    5    0    0 -0.43618029409E+01  0.43108091635E+01  0.24491979045E+02  0.25248077909E+02  0.00000000000E+00 0. -1.
         11    1    3    3    0    0  0.55085938265E+02 -0.12202969581E+03 -0.27011603221E+03  0.30147699433E+03  0.00000000000E+00 0. -1.
        -12    1    3    3    0    0  0.12896369233E+02  0.86646052478E+01 -0.10707817197E+02  0.18869262641E+02  0.00000000000E+00 0.  1.
          5    1    4    4  501    0  0.27108904778E+02  0.14779630592E+03 -0.45514971123E+02  0.15705962485E+03  0.41800000000E+01 0. -1.
         -5    1    4    4    0  501  0.35013882730E+02 -0.11549472767E+01 -0.64214558043E+02  0.73268600039E+02  0.41800000000E+01 0. -1.
</event>
<event>
11    1  0.7882745E-009  0.3223781E+03  0.7561462E-02  0.9911412E-01
         22   -1    0    0    0    0  0.00000000000E+00  0.00000000000E+00  0.35511586746E+04  0.35511586746E+04  0.00000000000E+00 0. -1.
         22   -1    0    0    0    0 -0.00000000000E+00 -0.00000000000E+00 -0.16968086096E+03  0.16968086096E+03  0.00000000000E+00 0.  1.
         24    2    1    2    0    0  0.28650292245E+03 -0.43362557624E+02  0.52278257792E+02  0.30593436675E+03  0.83057718174E+02 0.  0.
         25    2    1    2    0    0 -0.32304576548E+03  0.52823150510E+02  0.69359960755E+03  0.77709465949E+03  0.12508733907E+03 0.  0.
        -24    2    1    2    0    0  0.36542843031E+02 -0.94605928860E+01  0.26355999483E+04  0.26378105093E+04  0.10115489817E+03 0.  0.
        -11    1    3    3    0    0  0.15791046546E+03 -0.63369310922E+02  0.16398926668E+02  0.17093949065E+03  0.00000000000E+00 0.  1.
         12    1    3    3    0    0  0.12859245699E+03  0.20006753298E+02  0.35879331125E+02  0.13499487610E+03  0.00000000000E+00 0. -1.
         13    1    5    5    0    0  0.32021720434E+02  0.35092548193E+02  0.20305224352E+04  0.20310780973E+04  0.00000000000E+00 0. -1.
        -14    1    5    5    0    0  0.45211225971E+01 -0.44553141079E+02  0.60507751310E+03  0.60673241202E+03  0.00000000000E+00 0.  1.
          5    1    4    4  501    0 -0.14694472588E+03 -0.24677896168E+02  0.21854051127E+03  0.26453577922E+03  0.41800000000E+01 0. -1.
         -5    1    4    4    0  501 -0.17610103960E+03  0.77501046678E+02  0.47505909628E+03  0.51255888027E+03  0.41800000000E+01 0. -1.
</event>
<event>
11    1  0.7882745E-009  0.1302704E+03  0.7561462E-02  0.1118937E+00
         22   -1    0    0    0    0  0.00000000000E+00  0.00000000000E+00  0.52599105157E+03  0.52599105157E+03  0.00000000000E+00 0. -1.
         22   -1    0    0    0    0 -0.00000000000E+00 -0.00000000000E+00 -0.88756036666E+02  0.88756036666E+02  0.00000000000E+00 0. -1.
         24    2    1    2    0    0 -0.37527480177E+02 -0.12997770139E+02 -0.17413952758E+02  0.91954759250E+02  0.81087472529E+02 0.  0.
         25    2    1    2    0    0  0.43957030935E+01  0.43251183215E+02  0.12634343900E+03  0.18303008741E+03  0.12508941307E+03 0.  0.
        -24    2    1    2    0    0  0.33131777084E+02 -0.30253413076E+02  0.32830552866E+03  0.33976224158E+03  0.75105772055E+02 0.  0.
        -11    1    3    3    0    0  0.20507308032E+01 -0.31391596187E+02  0.17559170844E+02  0.36027243701E+02  0.00000000000E+00 0.  1.
         12    1    3    3    0    0 -0.39578210980E+02  0.18393826048E+02 -0.34973123602E+02  0.55927515549E+02  0.00000000000E+00 0. -1.
         11    1    5    5    0    0  0.29997610530E+02  0.89374533169E+01  0.25187483916E+03  0.25381227179E+03  0.00000000000E+00 0. -1.
        -12    1    5    5    0    0  0.31341665535E+01 -0.39190866393E+02  0.76430689501E+02  0.85949969786E+02  0.00000000000E+00 0.  1.
          5    1    4    4  501    0 -0.18044159337E+02 -0.31255663194E+02  0.89980492756E+02  0.97038495683E+02  0.41800000000E+01 0.  1.
         -5    1    4    4    0  501  0.22439862430E+02  0.74506846409E+02  0.36362946242E+02  0.85991591723E+02  0.41800000000E+01 0.  1.
</event>
<event>
11    1  0.7882745E-009  0.1412666E+03  0.7561462E-02  0.1106152E+00
         22   -1    0    0    0    0  0.00000000000E+00  0.00000000000E+00  0.36974255543E+03  0.36974255543E+03  0.00000000000E+00 0.  1.
         22   -1    0    0    0    0 -0.00000000000E+00 -0.00000000000E+00 -0.38336756218E+03  0.38336756218E+03  0.00000000000E+00 0. -1.
         24    2    1    2    0    0  0.98038178982E+02  0.47077377623E+02 -0.20283366269E+03  0.24379854322E+03  0.80426804814E+02 0.  0.
         25    2    1    2    0    0 -0.14156450353E+02  0.12757901224E+02 -0.11954299028E+03  0.17407138860E+03  0.12508857931E+03 0.  0.
        -24    2    1    2    0    0 -0.83881728629E+02 -0.59835278847E+02  0.30875164622E+03  0.33524018579E+03  0.80262059112E+02 0.  0.
        -11    1    3    3    0    0  0.85642919757E+01  0.39723961799E+02 -0.35751805379E+02  0.54125149661E+02  0.00000000000E+00 0.  1.
         12    1    3    3    0    0  0.89473887006E+02  0.73534158242E+01 -0.16708185731E+03  0.18967339356E+03  0.00000000000E+00 0. -1.
         11    1    5    5    0    0 -0.28592010882E+01 -0.17407187409E+02  0.54714381878E+01  0.18469484026E+02  0.00000000000E+00 0. -1.
        -12    1    5    5    0    0 -0.81022527541E+02 -0.42428091438E+02  0.30328020804E+03  0.31677070177E+03  0.00000000000E+00 0.  1.
          5    1    4    4  501    0  0.43839717323E+02 -0.13551595509E+02 -0.97808732359E+01  0.47103125555E+02  0.41800000000E+01 0. -1.
         -5    1    4    4    0  501 -0.57996167676E+02  0.26309496734E+02 -0.10976211704E+03  0.12696826305E+03  0.41800000000E+01 0. -1.
</event>
<event>
11    1  0.7882745E-009  0.1603705E+03  0.7561462E-02  0.1086729E+00
         22   -1    0    0    0    0  0.00000000000E+00  0.00000000000E+00  0.36256368775E+03  0.36256368775E+03  0.00000000000E+00 0.  1.
         22   -1    0    0    0    0 -0.00000000000E+00 -0.00000000000E+00 -0.23246393923E+03  0.23246393923E+03  0.00000000000E+00 0.  1.
        -24    2    1    2    0    0 -0.27226422220E+02 -0.13758890187E+02 -0.12723349280E+03  0.15061850081E+03  0.74612237395E+02 0.  0.
         25    2    1    2    0    0 -0.46836126924E+02 -0.60791904537E+02 -0.91733844821E+01  0.14706064836E+03  0.12511356789E+03 0.  0.
         24    2    1    2    0    0  0.74062549143E+02  0.74550794724E+02  0.26650662581E+03  0.29734847781E+03  0.79669652171E+02 0.  0.
        -13    1    5    5    0    0  0.48927496816E+02  0.34878186873E+02  0.23040650420E+03  0.23811246301E+03  0.00000000000E+00 0.  1.
         14    1    5    5    0    0  0.25135052328E+02  0.39672607851E+02  0.36100121613E+02  0.59236014803E+02  0.00000000000E+00 0. -1.
         13    1    3    3    0    0  0.11431276255E+02 -0.27781043763E+02 -0.20860377992E+02  0.36573430785E+02  0.00000000000E+00 0. -1.
        -14    1    3    3    0    0 -0.38657698475E+02  0.14022153576E+02 -0.10637311481E+03  0.11404507003E+03  0.00000000000E+00 0.  1.
          5    1    4    4  501    0 -0.75539107076E+02 -0.62852329513E+02 -0.38628286656E+02  0.10567018952E+03  0.41800000000E+01 0.  1.
         -5    1    4    4    0  501  0.28702980153E+02  0.20604249760E+01  0.29454902174E+02  0.41390458838E+02  0.41800000000E+01 0.  1.
</event>
<event>
11    1  0.7882745E-009  0.1847490E+03  0.7561462E-02  0.1065865E+00
         22   -1    0    0    0    0  0.00000000000E+00  0.00000000000E+00  0.41119848180E+03  0.41119848180E+03  0.00000000000E+00 0. -1.
         22   -1    0    0    0    0 -0.00000000000E+00 -0.00000000000E+00 -0.46752338746E+03  0.46752338746E+03  0.00000000000E+00 0. -1.
         24    2    1    2    0    0 -0.32146295801E+02  0.47842685599E+02 -0.35766308540E+03  0.37231034537E+03  0.85847560887E+02 0.  0.
         25    2    1    2    0    0  0.99694320244E+02  0.76066122825E+02  0.15831900610E+02  0.17782948140E+03  0.12509061855E+03 0.  0.
        -24    2    1    2    0    0 -0.67548024442E+02 -0.12390880842E+03  0.28550627912E+03  0.32858204249E+03  0.80846736572E+02 0.  0.
        -11    1    3    3    0    0 -0.15016122029E+02 -0.22890646766E+02 -0.61186009457E+02  0.67031286601E+02  0.00000000000E+00 0.  1.
         12    1    3    3    0    0 -0.17130173772E+02  0.70733332365E+02 -0.29647707595E+03  0.30527905877E+03  0.00000000000E+00 0. -1.
         11    1    5    5    0    0 -0.81020736056E+01 -0.88168371595E+02  0.19819054743E+03  0.21706864914E+03  0.00000000000E+00 0. -1.
        -12    1    5    5    0    0 -0.59445950837E+02 -0.35740436828E+02  0.87315731692E+02  0.11151339335E+03  0.00000000000E+00 0.  1.
          5    1    4    4  501    0 -0.20010647016E+02 -0.14781205370E+00 -0.22874317324E+02  0.30678243682E+02  0.41800000000E+01 0. -1.
         -5    1    4    4    0  501  0.11970496726E+03  0.76213934878E+02  0.38706217934E+02  0.14715123772E+03  0.41800000000E+01 0. -1.
</event>
<event>
11    1  0.7882745E-009  0.2010923E+03  0.7561462E-02  0.1053754E+00
         22   -1    0    0    0    0  0.00000000000E+00  0.00000000000E+00  0.31977880238E+03  0.31977880238E+03  0.00000000000E+00 0.  1.
         22   -1    0    0    0    0 -0.00000000000E+00 -0.00000000000E+00 -0.16682105893E+04  0.16682105893E+04  0.00000000000E+00 0.  1.
         24    2    1    2    0    0  0.79754472259E+02 -0.12924804074E+03 -0.13156953317E+04  0.13283104059E+04  0.10143222718E+03 0.  0.
         25    2    1    2    0    0 -0.41032059190E+02  0.20261600835E+03 -0.29060229477E+03  0.37793526179E+03  0.12509393133E+03 0.  0.
        -24    2    1    2    0    0 -0.38722413069E+02 -0.73367967606E+02  0.25786583957E+03  0.28174372398E+03  0.77475485407E+02 0.  0.
        -13    1    3    3    0    0  0.68058851042E+02 -0.14245037057E+03 -0.10256477083E+04  0.10377270049E+04  0.00000000000E+00 0.  1.
         14    1    3    3    0    0  0.11695621217E+02  0.13202329823E+02 -0.29004762342E+03  0.29058340098E+03  0.00000000000E+00 0. -1.
         11    1    5    5    0    0 -0.22627569809E+02  0.10136507029E+01  0.14835125071E+02  0.27076102731E+02  0.00000000000E+00 0. -1.
        -12    1    5    5    0    0 -0.16094843260E+02 -0.74381618309E+02  0.24303071450E+03  0.25466762124E+03  0.00000000000E+00 0.  1.
          5    1    4    4  501    0 -0.71518104457E+02  0.17540234871E+03 -0.27509028146E+03  0.33402538609E+03  0.41800000000E+01 0.  1.
         -5    1    4    4    0  501  0.30486045268E+02  0.27213659636E+02 -0.15512013315E+02  0.43909875699E+02  0.41800000000E+01 0.  1.
</event>
<event>
11    1  0.7882745E-009  0.1352248E+03  0.7561462E-02  0.1113011E+00
         22   -1    0    0    0    0  0.00000000000E+00  0.00000000000E+00  0.11554996458E+04  0.11554996458E+04  0.00000000000E+00 0. -1.
         22   -1    0    0    0    0 -0.00000000000E+00 -0.00000000000E+00 -0.13162357982E+03  0.13162357982E+03  0.00000000000E+00 0.  1.
         24    2    1    2    0    0  0.47397268549E+02 -0.14622027027E+02 -0.70036265455E+02  0.11690348736E+03  0.79379103908E+02 0.  0.
         25    2    1    2    0    0 -0.65402819675E+02 -0.44500549781E+01  0.10068763233E+03  0.17343107440E+03  0.12507200506E+03 0.  0.
        -24    2    1    2    0    0  0.18005551127E+02  0.19072082005E+02  0.99322469911E+03  0.99678866388E+03  0.80027453557E+02 0.  0.
        -11    1    3    3    0    0  0.26999187670E+02 -0.21583676875E+01 -0.84655588084E+02  0.88882975196E+02  0.00000000000E+00 0.  1.
         12    1    3    3    0    0  0.20398080879E+02 -0.12463659340E+02  0.14619322629E+02  0.28020512162E+02  0.00000000000E+00 0. -1.
         13    1    5    5    0    0  0.19872376246E+02  0.40467511297E+02  0.89973600526E+03  0.90086481226E+03  0.00000000000E+00 0. -1.
        -14    1    5    5    0    0 -0.18668251196E+01 -0.21395429292E+02  0.93488693855E+02  0.95923851619E+02  0.00000000000E+00 0.  1.
          5    1    4    4  501    0  0.33735694152E+02 -0.21924559229E+02  0.29572495833E+02  0.50107766535E+02  0.41800000000E+01 0. -1.
         -5    1    4    4    0  501 -0.99138513827E+02  0.17474504251E+02  0.71115136500E+02  0.12332330786E+03  0.41800000000E+01 0. -1.
</event>
<event>
11    1  0.7882745E-009  0.2175770E+03  0.7561462E-02  0.1042746E+00
         22   -1    0    0    0    0  0.00000000000E+00  0.00000000000E+00  0.14728076156E+03  0.14728076156E+03  0.00000000000E+00 0.  1.
         22   -1    0    0    0    0 -0.00000000000E+00 -0.00000000000E+00 -0.58147140692E+03  0.58147140692E+03  0.00000000000E+00 0. -1.
        -24    2    1    2    0    0 -0.15655158202E+03 -0.10836872235E+03 -0.25979659570E+03  0.33269672298E+03  0.83310626715E+02 0.  0.
         25    2    1    2    0    0  0.93170050025E+02  0.14189131426E+03 -0.19597765590E+03  0.28786698479E+03  0.12508539498E+03 0.  0.
         24    2    1    2    0    0  0.63381531992E+02 -0.33522591910E+02  0.21583606241E+02  0.10818846071E+03  0.78089104274E+02 0.  0.
        -11    1    5    5    0    0  0.46833960343E+01 -0.12345055532E+02  0.40809461043E+02  0.42892268594E+02  0.00000000000E+00 0.  1.
         12    1    5    5    0    0  0.58698135958E+02 -0.21177536378E+02 -0.19225854802E+02  0.65296192116E+02  0.00000000000E+00 0. -1.
         13    1    3    3    0    0 -0.96518804130E+02 -0.61931346166E+02 -0.86932680778E+02  0.14390504569E+03  0.00000000000E+00 0. -1.
        -14    1    3    3    0    0 -0.60032777886E+02 -0.46437376183E+02 -0.17286391493E+03  0.18879167728E+03  0.00000000000E+00 0.  1.
          5    1    4    4  501    0  0.34990406859E+02 -0.65137691534E+01 -0.88745380147E+02  0.95707746072E+02  0.41800000000E+01 0.  1.
         -5    1    4    4    0  501  0.58179643166E+02  0.14840508341E+03 -0.10723227575E+03  0.19215923872E+03  0.41800000000E+01 0.  1.
</event>
<event>
11    1  0.7882745E-009  0.1492575E+03  0.7561462E-02  0.1097640E+00
         22   -1    0    0    0    0  0.00000000000E+00  0.00000000000E+00  0.10927851528E+03  0.10927851528E+03  0.00000000000E+00 0.  1.
         22   -1    0    0    0    0 -0.00000000000E+00 -0.00000000000E+00 -0.59147709240E+03  0.59147709240E+03  0.00000000000E+00 0.  1.
        -24    2    1    2    0    0 -0.45602374503E+02  0.60890508777E+02 -0.31265076392E+03  0.33110723068E+03  0.78065788971E+02 0.  0.
         25    2    1    2    0    0  0.39929653629E+02  0.31141441822E+02 -0.20202282620E+03  0.24295128012E+03  0.12509170864E+03 0.  0.
         24    2    1    2    0    0  0.56727208741E+01 -0.92031950599E+02  0.32475012990E+02  0.12669709688E+03  0.80594467525E+02 0.  0.
        -11    1    5    5    0    0 -0.20472794100E+02 -0.88075861970E+02  0.40476528336E+02  0.99069884961E+02  0.00000000000E+00 0.  1.
         12    1    5    5    0    0  0.26145514974E+02 -0.39560886289E+01 -0.80015153458E+01  0.27627211918E+02  0.00000000000E+00 0. -1.
         11    1    3    3    0    0 -0.75899317501E+01  0.43681007635E+02 -0.57709419918E+02  0.72773722175E+02  0.00000000000E+00 0. -1.
        -12    1    3    3    0    0 -0.38012442753E+02  0.17209501142E+02 -0.25494134400E+03  0.25833350850E+03  0.00000000000E+00 0.  1.
          5    1    4    4  501    0  0.40196431456E+02 -0.43863878797E+02 -0.95795609589E+02  0.11284531085E+03  0.41800000000E+01 0. -1.
         -5    1    4    4    0  501 -0.26677782704E+00  0.75005320619E+02 -0.10622721661E+03  0.13010596927E+03  0.41800000000E+01 0. -1.
</event>
<event>
11    1  0.7882745E-009  0.1389556E+03  0.7561462E-02  0.1108730E+00
         22   -1    0    0    0    0  0.00000000000E+00  0.00000000000E+00  0.43712076614E+03  0.43712076614E+03  0.00000000000E+00 0.  1.
         22   -1    0    0    0    0 -0.00000000000E+00 -0.00000000000E+00 -0.11867615091E+04  0.11867615091E+04  0.00000000000E+00 0. -1.
        -24    2    1    2    0    0  0.40136040657E+02 -0.45260966288E+02 -0.65145885061E+03  0.65906819833E+03  0.79453125733E+02 0.  0.
         25    2    1    2    0    0 -0.29444174026E+02 -0.14881258005E+02 -0.51759965238E+03  0.53352133705E+03  0.12508879134E+03 0.  0.
         24    2    1    2    0    0 -0.10691866631E+02  0.60142224293E+02  0.41941776005E+03  0.43129273985E+03  0.79817083680E+02 0.  0.
        -13    1    5    5    0    0  0.13356647394E+02  0.62557030055E+02  0.37770750061E+03  0.38308581031E+03  0.00000000000E+00 0.  1.
         14    1    5    5    0    0 -0.24048514025E+02 -0.24148057613E+01  0.41710259432E+02  0.48206929538E+02  0.00000000000E+00 0. -1.
         13    1    3    3    0    0  0.55377103725E+02 -0.56751520372E+02 -0.56430920404E+03  0.56985281999E+03  0.00000000000E+00 0. -1.
        -14    1    3    3    0    0 -0.15241063068E+02  0.11490554084E+02 -0.87149646566E+02  0.89215378345E+02  0.00000000000E+00 0.  1.
          5    1    4    4  501    0 -0.11716000683E+02 -0.37745739346E+02 -0.49494449048E+03  0.49653753792E+03  0.41800000000E+01 0. -1.
         -5    1    4    4    0  501 -0.17728173343E+02  0.22864481341E+02 -0.22655161902E+02  0.36983799127E+02  0.41800000000E+01 0. -1.
</event>
<event>
11    1  0.7882745E-009  0.2996276E+03  0.7561462E-02  0.1000349E+00
         22   -1    0    0    0    0  0.00000000000E+00  0.00000000000E+00  0.10035774666E+04  0.10035774666E+04  0.00000000000E+00 0. -1.
         22   -1    0    0    0    0 -0.00000000000E+00 -0.00000000000E+00 -0.88000715240E+02  0.88000715240E+02  0.00000000000E+00 0. -1.
         24    2    1    2    0    0  0.17435703390E+03  0.12191922409E+03  0.15761247458E+03  0.27654042812E+03  0.79801276748E+02 0.  0.
         25    2    1    2    0    0 -0.44931051292E+02 -0.70072939640E+02  0.37721156503E+03  0.40603574646E+03  0.12508975326E+03 0.  0.
        -24    2    1    2    0    0 -0.12942598261E+03 -0.51846284450E+02  0.38075271174E+03  0.40900200725E+03  0.53580707777E+02 0.  0.
        -11    1    3    3    0    0  0.86020157600E+02  0.31454605924E+02  0.28728985760E+02  0.95990699394E+02  0.00000000000E+00 0.  1.
         12    1    3    3    0    0  0.88336876303E+02  0.90464618166E+02  0.12888348882E+03  0.18054972873E+03  0.00000000000E+00 0. -1.
         11    1    5    5    0    0 -0.27245850494E+02 -0.35721321112E+02  0.13796516872E+03  0.14509561307E+03  0.00000000000E+00 0. -1.
        -12    1    5    5    0    0 -0.10218013212E+03 -0.16124963338E+02  0.24278754302E+03  0.26390639418E+03  0.00000000000E+00 0.  1.
          5    1    4    4  501    0 -0.66427008370E+01 -0.68445315014E+02  0.35483630039E+03  0.36146252793E+03  0.41800000000E+01 0.  1.
         -5    1    4    4    0  501 -0.38288350455E+02 -0.16276246258E+01  0.22375264637E+02  0.44573218529E+02  0.41800000000E+01 0.  1.
</event>
<event>
11    1  0.7882745E-009  0.1427799E+03  0.7561462E-02  0.1104493E+00
         22   -1    0    0    0    0  0.00000000000E+00  0.00000000000E+00  0.15493984873E+04  0.15493984873E+04  0.00000000000E+00 0. -1.
         22   -1    0    0    0    0 -0.00000000000E+00 -0.00000000000E+00 -0.26322433240E+03  0.26322433240E+03  0.00000000000E+00 0. -1.
        -24    2    1    2    0    0 -0.34551501503E+02  0.60136074200E+02 -0.24292830571E+03  0.26551602572E+03  0.81697273681E+02 0.  0.
         25    2    1    2    0    0  0.49383704871E+02 -0.11589760490E+02  0.73740830422E+03  0.74966090024E+03  0.12508950935E+03 0.  0.
         24    2    1    2    0    0 -0.14832203368E+02 -0.48546313709E+02  0.79169415636E+03  0.79744589373E+03  0.81015908126E+02 0.  0.
        -11    1    5    5    0    0  0.10202951755E+02 -0.33829872681E+02  0.11924912846E+03  0.12437409356E+03  0.00000000000E+00 0.  1.
         12    1    5    5    0    0 -0.25035155123E+02 -0.14716441028E+02  0.67244502790E+03  0.67307180017E+03  0.00000000000E+00 0. -1.
         13    1    3    3    0    0 -0.20243906936E+02  0.60314321061E+02 -0.24301717290E+03  0.25120704492E+03  0.00000000000E+00 0. -1.
        -14    1    3    3    0    0 -0.14307594568E+02 -0.17824686102E+00  0.88867194969E-01  0.14308980804E+02  0.00000000000E+00 0.  1.
          5    1    4    4  501    0  0.56504318612E+01  0.34838132430E+02  0.63835309112E+02  0.73061904854E+02  0.41800000000E+01 0.  1.
         -5    1    4    4    0  501  0.43733273010E+02 -0.46427892921E+02  0.67357299511E+03  0.67659899538E+03  0.41800000000E+01 0.  1.
</event>
<event>
11    1  0.7882745E-009  0.1832321E+03  0.7561462E-02  0.1067058E+00
         22   -1    0    0    0    0  0.00000000000E+00  0.00000000000E+00  0.12986675370E+04  0.12986675370E+04  0.00000000000E+00 0. -1.
         22   -1    0    0    0    0 -0.00000000000E+00 -0.00000000000E+00 -0.93223022528E+03  0.93223022528E+03  0.00000000000E+00 0.  1.
        -24    2    1    2    0    0  0.15326718755E+01 -0.13287858478E+03 -0.87225330624E+03  0.88607955089E+03  0.81560240757E+02 0.  0.
         25    2    1    2    0    0 -0.77286474785E+01  0.16374301811E+03  0.15567454367E+03  0.25836852304E+03  0.12509285424E+03 0.  0.
         24    2    1    2    0    0  0.61959756030E+01 -0.30864433333E+02  0.10830160743E+04  0.10864496883E+04  0.80362334209E+02 0.  0.
        -11    1    5    5    0    0 -0.40786108641E+01 -0.57338308642E+02  0.67226229471E+03  0.67471542860E+03  0.00000000000E+00 0.  1.
         12    1    5    5    0    0  0.10274586467E+02  0.26473875308E+02  0.41075377959E+03  0.41173425974E+03  0.00000000000E+00 0. -1.
         13    1    3    3    0    0 -0.33690818706E+02 -0.46236522581E+02 -0.22775124618E+03  0.23482656882E+03  0.00000000000E+00 0. -1.
        -14    1    3    3    0    0  0.35223490581E+02 -0.86642062195E+02 -0.64450206006E+03  0.65125298207E+03  0.00000000000E+00 0.  1.
          5    1    4    4  501    0  0.28591001517E+02  0.16224674044E+03  0.14683758543E+03  0.22072652548E+03  0.41800000000E+01 0.  1.
         -5    1    4    4    0  501 -0.36319648995E+02  0.14962776657E+01  0.88369582337E+01  0.37641997567E+02  0.41800000000E+01 0.  1.
</event>
<event>
11    1  0.7882745E-009  0.1382106E+03  0.7561462E-02  0.1109573E+00
         22   -1    0    0    0    0  0.00000000000E+00  0.00000000000E+00  0.18336273083E+04  0.18336273083E+04  0.00000000000E+00 0. -1.
         22   -1    0    0    0    0 -0.00000000000E+00 -0.00000000000E+00 -0.13491897230E+03  0.13491897230E+03  0.00000000000E+00 0.  1.
         24    2    1    2    0    0  0.15013892042E+02  0.14623637159E+02 -0.60323075569E+02  0.10293916685E+03  0.80736180914E+02 0.  0.
         25    2    1    2    0    0  0.42313937619E+02 -0.28854918277E+02  0.36396217320E+02  0.13998964362E+03  0.12509732236E+03 0.  0.
        -24    2    1    2    0    0 -0.57327829661E+02  0.14231281117E+02  0.17226351943E+04  0.17256174701E+04  0.82429553424E+02 0.  0.
        -11    1    3    3    0    0  0.24094117776E+02  0.45255772414E+02 -0.40532298340E+02  0.65356550222E+02  0.00000000000E+00 0.  1.
         12    1    3    3    0    0 -0.90802257345E+01 -0.30632135254E+02 -0.19790777229E+02  0.37582616632E+02  0.00000000000E+00 0. -1.
         11    1    5    5    0    0  0.18312971942E+01 -0.17835504627E+02  0.91750112471E+03  0.91767628972E+03  0.00000000000E+00 0. -1.
        -12    1    5    5    0    0 -0.59159126855E+02  0.32066785744E+02  0.80513406955E+03  0.80794118040E+03  0.00000000000E+00 0.  1.
          5    1    4    4  501    0  0.46594475500E+02 -0.33296068286E+02 -0.35631382268E+02  0.67577667263E+02  0.41800000000E+01 0. -1.
         -5    1    4    4    0  501 -0.42805378810E+01  0.44411500093E+01  0.72027599588E+02  0.72411976360E+02  0.41800000000E+01 0. -1.
</event>
<event>
11    1  0.9065564E-009  0.1636904E+03  0.7561462E-02  0.1083657E+00
         22   -1    0    0    0    0  0.00000000000E+00  0.00000000000E+00  0.31783093434E+03  0.31783093434E+03  0.00000000000E+00 0. -1.
         22   -1    0    0    0    0 -0.00000000000E+00 -0.00000000000E+00 -0.10694526308E+04  0.10694526308E+04  0.00000000000E+00 0. -1.
        -24    2    1    2    0    0 -0.32379231759E+02 -0.74673223025E+02 -0.57271905130E+03  0.58381193850E+03  0.78770317522E+02 0.  0.
         25    2    1    2    0    0  0.74064153984E+02 -0.24134311108E+02 -0.46514366883E+03  0.48792860829E+03  0.12509088798E+03 0.  0.
         24    2    1    2    0    0 -0.41684922226E+02  0.98807534133E+02  0.28624102371E+03  0.31554301832E+03  0.78312905811E+02 0.  0.
        -11    1    5    5    0    0 -0.35226292367E+02  0.13893613035E+02  0.40409455760E+02  0.55379132098E+02  0.00000000000E+00 0.  1.
         12    1    5    5    0    0 -0.64586298584E+01  0.84913921098E+02  0.24583156795E+03  0.26016388622E+03  0.00000000000E+00 0. -1.
         11    1    3    3    0    0 -0.33208668148E+02 -0.88311671951E+02 -0.41921813926E+03  0.42970410206E+03  0.00000000000E+00 0. -1.
        -12    1    3    3    0    0  0.82943638925E+00  0.13638448926E+02 -0.15350091204E+03  0.15410783644E+03  0.00000000000E+00 0.  1.
          5    1    4    4  501    0 -0.28633546403E+02 -0.13951254866E+02 -0.21365098377E+03  0.21605261571E+03  0.41800000000E+01 0.  1.
         -5    1    4    4    0  501  0.10269770039E+03 -0.10183056242E+02 -0.25149268506E+03  0.27187599258E+03  0.41800000000E+01 0.  1.
</event>
<event>
11    1  0.7882745E-009  0.1340725E+03  0.7561462E-02  0.1114364E+00
         22   -1    0    0    0    0  0.00000000000E+00  0.00000000000E+00  0.71427957319E+03  0.71427957319E+03  0.00000000000E+00 0. -1.
         22   -1    0    0    0    0 -0.00000000000E+00 -0.00000000000E+00 -0.67414791567E+03  0.67414791567E+03  0.00000000000E+00 0.  1.
        -24    2    1    2    0    0 -0.30167422811E+02  0.38823451337E+02 -0.54496691008E+03  0.55291133204E+03  0.79401978839E+02 0.  0.
         25    2    1    2    0    0  0.54580782459E+02 -0.56544845464E+01 -0.83996823158E+02  0.16035413504E+03  0.12508775845E+03 0.  0.
         24    2    1    2    0    0 -0.24413359648E+02 -0.33168966791E+02  0.66909539075E+03  0.67516202179E+03  0.80367414158E+02 0.  0.
        -11    1    5    5    0    0  0.25535615420E+02 -0.29750966805E+02  0.34532258739E+03  0.34754118755E+03  0.00000000000E+00 0.  1.
         12    1    5    5    0    0 -0.49948975068E+02 -0.34179999859E+01  0.32377280336E+03  0.32762083424E+03  0.00000000000E+00 0. -1.
         11    1    3    3    0    0  0.22914340953E+02  0.17702923529E+02 -0.94515179274E+02  0.98851300629E+02  0.00000000000E+00 0. -1.
        -12    1    3    3    0    0 -0.53081763764E+02  0.21120527808E+02 -0.45045173080E+03  0.45406003141E+03  0.00000000000E+00 0.  1.
          5    1    4    4  501    0 -0.23472423237E+02  0.38484916378E+02 -0.17064428242E+02  0.48380890364E+02  0.41800000000E+01 0. -1.
         -5    1    4    4    0  501  0.78053205696E+02 -0.44139400924E+02 -0.66932394916E+02  0.11197324467E+03  0.41800000000E+01 0. -1.
</event>
<event>
11    1  0.7882745E-009  0.2191288E+03  0.7561462E-02  0.1041765E+00
         22   -1    0    0    0    0  0.00000000000E+00  0.00000000000E+00  0.11545626404E+03  0.11545626404E+03  0.00000000000E+00 0.  1.
         22   -1    0    0    0    0 -0.00000000000E+00 -0.00000000000E+00 -0.12652411110E+04  0.12652411110E+04  0.00000000000E+00 0.  1.
        -24    2    1    2    0    0  0.23698955017E+02  0.77758964390E+00 -0.63775507563E+03  0.64314165394E+03  0.79607822682E+02 0.  0.
         25    2    1    2    0    0 -0.18967299235E+03 -0.59180677650E+02 -0.48881556699E+03  0.54228165252E+03  0.12510210029E+03 0.  0.
         24    2    1    2    0    0  0.16597403733E+03  0.58403088006E+02 -0.23214204373E+02  0.19527406861E+03  0.81454041217E+02 0.  0.
        -13    1    5    5    0    0  0.39859051692E+02 -0.55976629637E+00  0.26023724791E+02  0.47605583623E+02  0.00000000000E+00 0.  1.
         14    1    5    5    0    0  0.12611498564E+03  0.58962854302E+02 -0.49237929165E+02  0.14766848499E+03  0.00000000000E+00 0. -1.
         13    1    3    3    0    0  0.29739833104E+02  0.20157903189E+02 -0.12702053053E+03  0.13200384051E+03  0.00000000000E+00 0. -1.
        -14    1    3    3    0    0 -0.60408780867E+01 -0.19380313545E+02 -0.51073454510E+03  0.51113781343E+03  0.00000000000E+00 0.  1.
          5    1    4    4  501    0 -0.51881589796E+02 -0.57805200775E+02 -0.29064891216E+03  0.30087772123E+03  0.41800000000E+01 0.  1.
         -5    1    4    4    0  501 -0.13779140255E+03 -0.13754768751E+01 -0.19816665484E+03  0.24140393129E+03  0.41800000000E+01 0.  1.
</event>
<event>
11    1  0.7882745E-009  0.1321570E+03  0.7561462E-02  0.1116647E+00
         22   -1    0    0    0    0  0.00000000000E+00  0.00000000000E+00  0.36209286031E+03  0.36209286031E+03  0.00000000000E+00 0. -1.
         22   -1    0    0    0    0 -0.00000000000E+00 -0.00000000000E+00 -0.45643546532E+03  0.45643546532E+03  0.00000000000E+00 0.  1.
        -24    2    1    2    0    0 -0.26679326576E+02 -0.33906018553E+02 -0.37874351780E+03  0.39010030439E+03  0.82886613197E+02 0.  0.
         25    2    1    2    0    0  0.41133571645E+02  0.13784578014E+02  0.84936742233E+00  0.13239933514E+03  0.12508747824E+03 0.  0.
         24    2    1    2    0    0 -0.14454245069E+02  0.20121440539E+02  0.28355154537E+03  0.29602868611E+03  0.81349287329E+02 0.  0.
        -13    1    5    5    0    0 -0.21763894617E+02 -0.52095020783E+01  0.16814005727E+02  0.27991370266E+02  0.00000000000E+00 0.  1.
         14    1    5    5    0    0  0.73096495480E+01  0.25330942618E+02  0.26673753964E+03  0.26803731584E+03  0.00000000000E+00 0. -1.
         13    1    3    3    0    0  0.17751585320E+02  0.15343040118E+02 -0.15386275514E+03  0.15564149537E+03  0.00000000000E+00 0. -1.
        -14    1    3    3    0    0 -0.44430911896E+02 -0.49249058671E+02 -0.22488076266E+03  0.23445880902E+03  0.00000000000E+00 0.  1.
          5    1    4    4  501    0  0.46753192936E+02 -0.46788191804E+02  0.18700936689E+02  0.68863585261E+02  0.41800000000E+01 0. -1.
         -5    1    4    4    0  501 -0.56196212908E+01  0.60572769818E+02 -0.17851569267E+02  0.63535749875E+02  0.41800000000E+01 0. -1.
</event>
<event>
11    1  0.7882745E-009  0.1563473E+03  0.7561462E-02  0.1090564E+00
         22   -1    0    0    0    0  0.00000000000E+00  0.00000000000E+00  0.29104203547E+03  0.29104203547E+03  0.00000000000E+00 0. -1.
         22   -1    0    0    0    0 -0.00000000000E+00 -0.00000000000E+00 -0.25911784189E+03  0.25911784189E+03  0.00000000000E+00 0.  1.
        -24    2    1    2    0    0 -0.65064030912E+02 -0.50674766289E+02 -0.11780768123E+03  0.16801320967E+03  0.86882269815E+02 0.  0.
         25    2    1    2    0    0  0.10192290909E+03  0.77806451785E+02 -0.28659387581E+02  0.18141636504E+03  0.12509361963E+03 0.  0.
         24    2    1    2    0    0 -0.36858878173E+02 -0.27131685497E+02  0.17839126240E+03  0.20073030265E+03  0.79840507540E+02 0.  0.
        -13    1    5    5    0    0 -0.11994145103E+02  0.34134270269E+01 -0.47929563125E+01  0.13359769123E+02  0.00000000000E+00 0.  1.
         14    1    5    5    0    0 -0.24864733070E+02 -0.30545112523E+02  0.18318421871E+03  0.18737053353E+03  0.00000000000E+00 0. -1.
         13    1    3    3    0    0 -0.21256987761E+02 -0.29053789067E+02  0.45287230625E+01  0.36283488261E+02  0.00000000000E+00 0. -1.
        -14    1    3    3    0    0 -0.43807043151E+02 -0.21620977221E+02 -0.12233640430E+03  0.13172972141E+03  0.00000000000E+00 0.  1.
          5    1    4    4  501    0 -0.23964409387E+02  0.40053537431E+02 -0.12079100960E+00  0.46862199783E+02  0.41800000000E+01 0.  1.
         -5    1    4    4    0  501  0.12588731847E+03  0.37752914354E+02 -0.28538596571E+02  0.13455416526E+03  0.41800000000E+01 0.  1.
</event>
<event>
11    1  0.7882745E-009  0.2736162E+03  0.7561462E-02  0.1012020E+00
         22   -1    0    0    0    0  0.00000000000E+00  0.00000000000E+00  0.29488374665E+03  0.29488374665E+03  0.00000000000E+00 0. -1.
         22   -1    0    0    0    0 -0.00000000000E+00 -0.00000000000E+00 -0.12449132363E+04  0.12449132363E+04  0.00000000000E+00 0.  1.
        -24    2    1    2    0    0 -0.27274988894E+01  0.24589404098E+03 -0.10390997651E+04  0.10708206982E+04  0.80357495846E+02 0.  0.
         25    2    1    2    0    0  0.96830919810E+02 -0.22201331707E+03 -0.54981155798E+02  0.27809260426E+03  0.12508568689E+03 0.  0.
         24    2    1    2    0    0 -0.94103420920E+02 -0.23880723914E+02  0.14405143129E+03  0.19088368049E+03  0.79120299645E+02 0.  0.
        -11    1    5    5    0    0  0.49698784674E+01 -0.17780638219E+02  0.34610615381E+01  0.18783762520E+02  0.00000000000E+00 0.  1.
         12    1    5    5    0    0 -0.99073299387E+02 -0.61000856948E+01  0.14059036975E+03  0.17209991797E+03  0.00000000000E+00 0. -1.
         13    1    3    3    0    0  0.10931252538E+02  0.19672973680E+03 -0.67521442607E+03  0.70337515082E+03  0.00000000000E+00 0. -1.
        -14    1    3    3    0    0 -0.13658751427E+02  0.49164304183E+02 -0.36388533908E+03  0.36744554739E+03  0.00000000000E+00 0.  1.
          5    1    4    4  501    0  0.55885391124E+02 -0.22447965716E+03 -0.46300270337E+02  0.23595652322E+03  0.41800000000E+01 0. -1.
         -5    1    4    4    0  501  0.40945528686E+02  0.24663400886E+01 -0.86808854616E+01  0.42136081037E+02  0.41800000000E+01 0. -1.
</event>
<event>
11    1  0.7882745E-009  0.1460777E+03  0.7561462E-02  0.1100955E+00
         22   -1    0    0    0    0  0.00000000000E+00  0.00000000000E+00  0.22054423209E+03  0.22054423209E+03  0.00000000000E+00 0.  1.
         22   -1    0    0    0    0 -0.00000000000E+00 -0.00000000000E+00 -0.22746621904E+03  0.22746621904E+03  0.00000000000E+00 0. -1.
        -24    2    1    2    0    0 -0.64686816049E+02 -0.36243822711E+02 -0.12158730079E+03  0.16408782618E+03  0.81506712187E+02 0.  0.
         25    2    1    2    0    0  0.87698446128E+02  0.45720407665E+01  0.19532537969E+02  0.15408078836E+03  0.12508976094E+03 0.  0.
         24    2    1    2    0    0 -0.23011630079E+02  0.31671781945E+02  0.95132775862E+02  0.12984183659E+03  0.79221339267E+02 0.  0.
        -13    1    5    5    0    0  0.30738230015E+01  0.30901151881E+02  0.98729754085E+02  0.10349827978E+03  0.00000000000E+00 0.  1.
         14    1    5    5    0    0 -0.26085453080E+02  0.77063006340E+00 -0.35969782235E+01  0.26343556811E+02  0.00000000000E+00 0. -1.
         11    1    3    3    0    0  0.88113522740E+01 -0.68222531588E+01 -0.67009777836E+02  0.67930062511E+02  0.00000000000E+00 0. -1.
        -12    1    3    3    0    0 -0.73498168323E+02 -0.29421569552E+02 -0.54577522950E+02  0.96157763666E+02  0.00000000000E+00 0.  1.
          5    1    4    4  501    0  0.14998277998E+02 -0.55018234159E+02 -0.32370194472E+01  0.57270455977E+02  0.41800000000E+01 0. -1.
         -5    1    4    4    0  501  0.72700168130E+02  0.59590274926E+02  0.22769557417E+02  0.96810332387E+02  0.41800000000E+01 0. -1.
</event>
<event>
11    1  0.7882745E-009  0.1680051E+03  0.7561462E-02  0.1079781E+00
         22   -1    0    0    0    0  0.00000000000E+00  0.00000000000E+00  0.54696795333E+03  0.54696795333E+03  0.00000000000E+00 0.  1.
         22   -1    0    0    0    0 -0.00000000000E+00 -0.00000000000E+00 -0.10636023237E+04  0.10636023237E+04  0.00000000000E+00 0. -1.
        -24    2    1    2    0    0  0.51892078211E+02 -0.50276079546E+02 -0.96309896763E+03  0.96982723650E+03  0.88231373402E+02 0.  0.
         25    2    1    2    0    0 -0.15291876781E+03  0.10329765301E+02  0.26784241493E+02  0.19963728254E+03  0.12508715117E+03 0.  0.
         24    2    1    2    0    0  0.10102668960E+03  0.39946314245E+02  0.41968035579E+03  0.44110575797E+03  0.81489807046E+02 0.  0.
        -11    1    5    5    0    0  0.16434669489E+02  0.12154130085E+02  0.23701120166E+03  0.23789100645E+03  0.00000000000E+00 0.  1.
         12    1    5    5    0    0  0.84592020108E+02  0.27792184160E+02  0.18266915413E+03  0.20321475152E+03  0.00000000000E+00 0. -1.
         11    1    3    3    0    0  0.57130507313E+02  0.52733082011E+01 -0.42833614822E+03  0.43216149588E+03  0.00000000000E+00 0. -1.
        -12    1    3    3    0    0 -0.52384291022E+01 -0.55549387747E+02 -0.53476281941E+03  0.53766574063E+03  0.00000000000E+00 0.  1.
          5    1    4    4  501    0 -0.95488850351E+02  0.57939519835E+02  0.48486570862E+02  0.12183402010E+03  0.41800000000E+01 0.  1.
         -5    1    4    4    0  501 -0.57429917457E+02 -0.47609754533E+02 -0.21702329369E+02  0.77803262437E+02  0.41800000000E+01 0.  1.
</event>
<event>
11    1  0.7882745E-009  0.2204009E+03  0.7561462E-02  0.1040967E+00
         22   -1    0    0    0    0  0.00000000000E+00  0.00000000000E+00  0.16694673512E+04  0.16694673512E+04  0.00000000000E+00 0.  1.
         22   -1    0    0    0    0 -0.00000000000E+00 -0.00000000000E+00 -0.28304090453E+03  0.28304090453E+03  0.00000000000E+00 0.  1.
        -24    2    1    2    0    0  0.18008732503E+03  0.27267176302E+02 -0.22696615992E+03  0.30190407836E+03  0.80358516928E+02 0.  0.
         25    2    1    2    0    0 -0.17160515274E+03  0.44065115559E+01  0.66173211417E+03  0.69498642819E+03  0.12509595777E+03 0.  0.
         24    2    1    2    0    0 -0.84821722820E+01 -0.31673687857E+02  0.95166049241E+03  0.95561774918E+03  0.80451351651E+02 0.  0.
        -11    1    5    5    0    0 -0.30258298851E+02  0.98610698991E+01  0.60007508408E+03  0.60091839037E+03  0.00000000000E+00 0.  1.
         12    1    5    5    0    0  0.21776126569E+02 -0.41534757756E+02  0.35158540833E+03  0.35469935881E+03  0.00000000000E+00 0. -1.
         11    1    3    3    0    0  0.29197316842E+02 -0.24099469337E+02 -0.28679294444E+02  0.47494943551E+02  0.00000000000E+00 0. -1.
        -12    1    3    3    0    0  0.15089000818E+03  0.51366645638E+02 -0.19828686548E+03  0.25440913481E+03  0.00000000000E+00 0.  1.
          5    1    4    4  501    0 -0.18168795719E+03 -0.22670257996E+02  0.56451651479E+03  0.59348194771E+03  0.41800000000E+01 0. -1.
         -5    1    4    4    0  501  0.10082804443E+02  0.27076769552E+02  0.97215599376E+02  0.10150448048E+03  0.41800000000E+01 0. -1.
</event>
<event>
11    1  0.7882745E-009  0.1402788E+03  0.7561462E-02  0.1107248E+00
         22   -1    0    0    0    0  0.00000000000E+00  0.00000000000E+00  0.91096403910E+03  0.91096403910E+03  0.00000000000E+00 0.  1.
         22   -1    0    0    0    0 -0.00000000000E+00 -0.00000000000E+00 -0.50032827188E+03  0.50032827188E+03  0.00000000000E+00 0.  1.
        -24    2    1    2    0    0 -0.41068361658E+02 -0.13331332669E+02 -0.33633255450E+03  0.34770606907E+03  0.76912862990E+02 0.  0.
         25    2    1    2    0    0  0.50889757753E+02 -0.49515482836E+02 -0.12201964856E+03  0.18862140639E+03  0.12509072639E+03 0.  0.
         24    2    1    2    0    0 -0.98213960951E+01  0.62846815505E+02  0.86898797027E+03  0.87496483551E+03  0.79857303124E+02 0.  0.
        -13    1    5    5    0    0 -0.23909466159E+02  0.77879910271E+02  0.68570729908E+03  0.69052982775E+03  0.00000000000E+00 0.  1.
         14    1    5    5    0    0  0.14088070064E+02 -0.15033094766E+02  0.18328067119E+03  0.18443500776E+03  0.00000000000E+00 0. -1.
         13    1    3    3    0    0  0.21114136322E+02 -0.65906619563E+01 -0.13750483519E+03  0.13927247854E+03  0.00000000000E+00 0. -1.
        -14    1    3    3    0    0 -0.62182497981E+02 -0.67406707124E+01 -0.19882771931E+03  0.20843359053E+03  0.00000000000E+00 0.  1.
          5    1    4    4  501    0  0.18383102807E+02 -0.85730496942E+02 -0.10509008021E+03  0.13692718479E+03  0.41800000000E+01 0. -1.
         -5    1    4    4    0  501  0.32506654947E+02  0.36215014105E+02 -0.16929568343E+02  0.51694221599E+02  0.41800000000E+01 0. -1.
</event>
<event>
11    1  0.7882745E-009  0.1325069E+03  0.7561462E-02  0.1116227E+00
         22   -1    0    0    0    0  0.00000000000E+00  0.00000000000E+00  0.47614419709E+03  0.47614419709E+03  0.00000000000E+00 0.  1.
         22   -1    0    0    0    0 -0.00000000000E+00 -0.00000000000E+00 -0.97867362510E+03  0.97867362510E+03  0.00000000000E+00 0. -1.
        -24    2    1    2    0    0  0.82576001339E+01  0.76077789110E+01 -0.88273705098E+03  0.88678021240E+03  0.83835420156E+02 0.  0.
         25    2    1    2    0    0 -0.39735731044E+02  0.22690717970E+02 -0.39307664295E+02  0.13886952987E+03  0.12508339958E+03 0.  0.
         24    2    1    2    0    0  0.31478130910E+02 -0.30298496881E+02  0.41951528727E+03  0.42916807992E+03  0.79267224796E+02 0.  0.
        -13    1    5    5    0    0  0.31183814112E+02 -0.56304312671E+02  0.28770200839E+03  0.29481358775E+03  0.00000000000E+00 0.  1.
         14    1    5    5    0    0  0.29431679753E+00  0.26005815789E+02  0.13181327888E+03  0.13435449217E+03  0.00000000000E+00 0. -1.
         11    1    3    3    0    0  0.16565558214E+02  0.23044490925E+02 -0.84141367751E+03  0.84189218014E+03  0.00000000000E+00 0. -1.
        -12    1    3    3    0    0 -0.83079580796E+01 -0.15436712014E+02 -0.41323373472E+02  0.44888032262E+02  0.00000000000E+00 0.  1.
          5    1    4    4  501    0  0.14160600687E+02  0.57657456118E+02  0.64755896510E+01  0.59869111561E+02  0.41800000000E+01 0.  1.
         -5    1    4    4    0  501 -0.53896331731E+02 -0.34966738148E+02 -0.45783253946E+02  0.79000418306E+02  0.41800000000E+01 0.  1.
</event>
<event>
11    1  0.7882745E-009  0.1476494E+03  0.7561462E-02  0.1099305E+00
         22   -1    0    0    0    0  0.00000000000E+00  0.00000000000E+00  0.64281916511E+03  0.64281916511E+03  0.00000000000E+00 0.  1.
         22   -1    0    0    0    0 -0.00000000000E+00 -0.00000000000E+00 -0.28043662593E+03  0.28043662593E+03  0.00000000000E+00 0.  1.
         24    2    1    2    0    0 -0.11002754523E+02 -0.86977817311E+02 -0.22278396505E+03  0.25339258112E+03  0.82999420310E+02 0.  0.
         25    2    1    2    0    0 -0.11483568453E+02  0.13905109146E+02  0.72908982677E+02  0.14590310450E+03  0.12508705665E+03 0.  0.
        -24    2    1    2    0    0  0.22486322976E+02  0.73072708164E+02  0.51225752155E+03  0.52396010542E+03  0.79253821852E+02 0.  0.
        -13    1    3    3    0    0 -0.73739378041E+01 -0.33773552428E+02 -0.18458744665E+03  0.18779657415E+03  0.00000000000E+00 0.  1.
         14    1    3    3    0    0 -0.36288167186E+01 -0.53204264883E+02 -0.38196518405E+02  0.65596006972E+02  0.00000000000E+00 0. -1.
         11    1    5    5    0    0  0.27834507384E+01  0.32658632175E+02  0.51709343077E+02  0.61222463320E+02  0.00000000000E+00 0. -1.
        -12    1    5    5    0    0  0.19702872238E+02  0.40414075989E+02  0.46054817848E+03  0.46273764210E+03  0.00000000000E+00 0.  1.
          5    1    4    4  501    0 -0.67832590226E+00  0.35439185241E+02 -0.25909516289E+02  0.44104097439E+02  0.41800000000E+01 0. -1.
         -5    1    4    4    0  501 -0.10805242551E+02 -0.21534076094E+02  0.98818498967E+02  0.10179900706E+03  0.41800000000E+01 0. -1.
</event>
<event>
11    1  0.7882745E-009  0.1625134E+03  0.7561462E-02  0.1084737E+00
         22   -1    0    0    0    0  0.00000000000E+00  0.00000000000E+00  0.11240816302E+04  0.11240816302E+04  0.00000000000E+00 0. -1.
         22   -1    0    0    0    0 -0.00000000000E+00 -0.00000000000E+00 -0.17864558574E+03  0.17864558574E+03  0.00000000000E+00 0.  1.
        -24    2    1    2    0    0  0.98888111222E+02 -0.14988524332E+02 -0.10678403579E+03  0.16799428758E+03  0.82557470636E+02 0.  0.
         25    2    1    2    0    0 -0.11986923760E+03  0.10012489241E+03  0.23410117311E+03  0.30796908038E+03  0.12509183434E+03 0.  0.
         24    2    1    2    0    0  0.20981126377E+02 -0.85136368079E+02  0.81811890719E+03  0.82676384801E+03  0.80817728537E+02 0.  0.
        -11    1    5    5    0    0 -0.30314774201E+02 -0.32328663941E+02  0.25044542700E+03  0.25433646996E+03  0.00000000000E+00 0.  1.
         12    1    5    5    0    0  0.51295900578E+02 -0.52807704139E+02  0.56767348019E+03  0.57242737805E+03  0.00000000000E+00 0. -1.
         11    1    3    3    0    0  0.85431903560E+01  0.54239836167E+01  0.13065116374E+02  0.16525827229E+02  0.00000000000E+00 0. -1.
        -12    1    3    3    0    0  0.90344920866E+02 -0.20412507948E+02 -0.11984915217E+03  0.15146846035E+03  0.00000000000E+00 0.  1.
          5    1    4    4  501    0 -0.65066683992E+01 -0.22036761047E+02  0.71005754331E+02  0.74747877021E+02  0.41800000000E+01 0.  1.
         -5    1    4    4    0  501 -0.11336256920E+03  0.12216165346E+03  0.16309541878E+03  0.23322120336E+03  0.41800000000E+01 0.  1.
</event>
<event>
11    1  0.7882745E-009  0.1461383E+03  0.7561462E-02  0.1100891E+00
         22   -1    0    0    0    0  0.00000000000E+00  0.00000000000E+00  0.86485970713E+02  0.86485970713E+02  0.00000000000E+00 0.  1.
         22   -1    0    0    0    0 -0.00000000000E+00 -0.00000000000E+00 -0.79288701030E+03  0.79288701030E+03  0.00000000000E+00 0.  1.
         24    2    1    2    0    0  0.45385570597E+02 -0.35941066885E+02 -0.41784490680E+03  0.42948440671E+03  0.80690018928E+02 0.  0.
         25    2    1    2    0    0 -0.10160809125E+03 -0.11658125804E+02 -0.29980330312E+03  0.34057217822E+03  0.12508905592E+03 0.  0.
        -24    2    1    2    0    0  0.56222520656E+02  0.47599192689E+02  0.11247170338E+02  0.10931639608E+03  0.79980751678E+02 0.  0.
        -11    1    3    3    0    0  0.14418552230E+02 -0.30692060609E+02 -0.37408831929E+03  0.37562210780E+03  0.00000000000E+00 0.  1.
         12    1    3    3    0    0  0.30967018367E+02 -0.52490062753E+01 -0.43756587511E+02  0.53862298911E+02  0.00000000000E+00 0. -1.
         13    1    5    5    0    0  0.30793867520E+02  0.50317187473E+02 -0.25728443422E+02  0.64358639148E+02  0.00000000000E+00 0. -1.
        -14    1    5    5    0    0  0.25428653135E+02 -0.27179947843E+01  0.36975613760E+02  0.44957756937E+02  0.00000000000E+00 0.  1.
          5    1    4    4  501    0 -0.82890498206E+02 -0.39931298390E+02 -0.92720507737E+02  0.13069012296E+03  0.41800000000E+01 0. -1.
         -5    1    4    4    0  501 -0.18717593046E+02  0.28273172586E+02 -0.20708279538E+03  0.20988205526E+03  0.41800000000E+01 0. -1.
</event>
<event>
11    1  0.7882745E-009  0.1323439E+03  0.7561462E-02  0.1116422E+00
         22   -1    0    0    0    0  0.00000000000E+00  0.00000000000E+00  0.38792660371E+03  0.38792660371E+03  0.00000000000E+00 0.  1.
         22   -1    0    0    0    0 -0.00000000000E+00 -0.00000000000E+00 -0.26290302684E+03  0.26290302684E+03  0.00000000000E+00 0.  1.
         24    2    1    2    0    0  0.32635364904E+02 -0.27617364575E+02 -0.19413340951E+03  0.21393237490E+03  0.79066392816E+02 0.  0.
         25    2    1    2    0    0 -0.47603012288E+02  0.16125192204E+02  0.30159006746E+02  0.13814044926E+03  0.12508856635E+03 0.  0.
        -24    2    1    2    0    0  0.14967647384E+02  0.11492172370E+02  0.28899797964E+03  0.29875680640E+03  0.73346415338E+02 0.  0.
        -11    1    3    3    0    0  0.10643614350E+02 -0.52112920252E+02 -0.88144863930E+02  0.10294930802E+03  0.00000000000E+00 0.  1.
         12    1    3    3    0    0  0.21991750555E+02  0.24495555677E+02 -0.10598854558E+03  0.11098306688E+03  0.00000000000E+00 0. -1.
         13    1    5    5    0    0 -0.13382885678E+02 -0.76024006696E+01  0.11631806800E+02  0.19292409244E+02  0.00000000000E+00 0. -1.
        -14    1    5    5    0    0  0.28350533061E+02  0.19094573040E+02  0.27736617284E+03  0.27946439716E+03  0.00000000000E+00 0.  1.
          5    1    4    4  501    0 -0.65949768563E+02  0.43083344296E+02 -0.16957372819E+02  0.80688112025E+02  0.41800000000E+01 0.  1.
         -5    1    4    4    0  501  0.18346756275E+02 -0.26958152092E+02  0.47116379566E+02  0.57452337232E+02  0.41800000000E+01 0.  1.
</event>
<event>
11    1  0.7882745E-009  0.2118184E+03  0.7561462E-02  0.1046467E+00
         22   -1    0    0    0    0  0.00000000000E+00  0.00000000000E+00  0.16938552469E+03  0.16938552469E+03  0.00000000000E+00 0.  1.
         22   -1    0    0    0    0 -0.00000000000E+00 -0.00000000000E+00 -0.10233942701E+04  0.10233942701E+04  0.00000000000E+00 0. -1.
        -24    2    1    2    0    0  0.67030666188E+02  0.12839682523E+03 -0.49721054918E+03  0.52448945033E+03  0.83018060404E+02 0.  0.
         25    2    1    2    0    0 -0.56480351900E+02 -0.26825792708E+03 -0.39999579254E+03  0.50079594552E+03  0.12509036496E+03 0.  0.
         24    2    1    2    0    0 -0.10550314288E+02  0.13986110185E+03  0.43197596281E+02  0.16749439897E+03  0.80721152248E+02 0.  0.
        -11    1    5    5    0    0  0.58638943482E+01  0.13546662994E+03  0.17544277908E+02  0.13672379007E+03  0.00000000000E+00 0.  1.
         12    1    5    5    0    0 -0.16414208636E+02  0.43944719095E+01  0.25653318373E+02  0.30770608900E+02  0.00000000000E+00 0. -1.
         11    1    3    3    0    0  0.65147272295E+02  0.84104471786E+02 -0.43673265122E+03  0.44950321234E+03  0.00000000000E+00 0. -1.
        -12    1    3    3    0    0  0.18833938929E+01  0.44292353447E+02 -0.60477897957E+02  0.74986237988E+02  0.00000000000E+00 0.  1.
          5    1    4    4  501    0 -0.29574188812E+02 -0.25210744154E+03 -0.39379704787E+03  0.46853642551E+03  0.41800000000E+01 0.  1.
         -5    1    4    4    0  501 -0.26906163088E+02 -0.16150485549E+02 -0.61987446686E+01  0.32259520006E+02  0.41800000000E+01 0.  1.
</event>
<event>
11    1  0.7882745E-009  0.1292566E+03  0.7561462E-02  0.1120186E+00
         22   -1    0    0    0    0  0.00000000000E+00  0.00000000000E+00  0.38486134637E+03  0.38486134637E+03  0.00000000000E+00 0. -1.
         22   -1    0    0    0    0 -0.00000000000E+00 -0.00000000000E+00 -0.19727195628E+04  0.19727195628E+04  0.00000000000E+00 0.  1.
         24    2    1    2    0    0 -0.13355490063E+02 -0.16223924381E+02 -0.19340427932E+04  0.19358137103E+04  0.80072530139E+02 0.  0.
         25    2    1    2    0    0  0.38352196653E+02 -0.41611181533E+01  0.11193860193E+03  0.17223831456E+03  0.12509028943E+03 0.  0.
        -24    2    1    2    0    0 -0.24996706590E+02  0.20385042535E+02  0.23424597483E+03  0.24952888436E+03  0.79706349222E+02 0.  0.
        -11    1    3    3    0    0  0.91299834700E+01 -0.34603152926E+02 -0.16286619196E+04  0.16290550584E+04  0.00000000000E+00 0.  1.
         12    1    3    3    0    0 -0.22485473533E+02  0.18379228544E+02 -0.30538087357E+03  0.30675865189E+03  0.00000000000E+00 0. -1.
         11    1    5    5    0    0 -0.10256615415E+01  0.48613437124E+02  0.14363910785E+03  0.15164600738E+03  0.00000000000E+00 0. -1.
        -12    1    5    5    0    0 -0.23971045048E+02 -0.28228394589E+02  0.90606866978E+02  0.97882876977E+02  0.00000000000E+00 0.  1.
          5    1    4    4  501    0  0.68658743228E+01 -0.30793496708E+02 -0.17503701246E+02  0.36321228325E+02  0.41800000000E+01 0. -1.
         -5    1    4    4    0  501  0.31486322330E+02  0.26632378555E+02  0.12944230317E+03  0.13591708624E+03  0.41800000000E+01 0. -1.
</event>
<event>
11    1  0.7882745E-009  0.1338547E+03  0.7561462E-02  0.1114621E+00
         22   -1    0    0    0    0  0.00000000000E+00  0.00000000000E+00  0.18665085338E+03  0.18665085338E+03  0.00000000000E+00 0.  1.
         22   -1    0    0    0    0 -0.00000000000E+00 -0.00000000000E+00 -0.35779315665E+03  0.35779315665E+03  0.00000000000E+00 0. -1.
        -24    2    1    2    0    0  0.31431138985E+01 -0.27574549873E+02 -0.22003222298E+03  0.23604743026E+03  0.80833008220E+02 0.  0.
         25    2    1    2    0    0 -0.36526376855E+02 -0.93350734196E+01 -0.77342753674E+02  0.15181088876E+03  0.12507327692E+03 0.  0.
         24    2    1    2    0    0  0.33383262957E+02  0.36909623293E+02  0.12623267338E+03  0.15658569101E+03  0.78151316455E+02 0.  0.
        -13    1    5    5    0    0 -0.14712605732E+02  0.37352366684E+02  0.81732036987E+02  0.91059244091E+02  0.00000000000E+00 0.  1.
         14    1    5    5    0    0  0.48095868688E+02 -0.44274339151E+00  0.44500636388E+02  0.65526446917E+02  0.00000000000E+00 0. -1.
         11    1    3    3    0    0  0.86817887107E+01  0.28031822986E+01 -0.19777048662E+03  0.19798079873E+03  0.00000000000E+00 0. -1.
        -12    1    3    3    0    0 -0.55386748123E+01 -0.30377732172E+02 -0.22261736355E+02  0.38066631531E+02  0.00000000000E+00 0.  1.
          5    1    4    4  501    0 -0.37341077032E+02 -0.55520327271E+02 -0.81166129584E+02  0.10527238843E+03  0.41800000000E+01 0.  1.
         -5    1    4    4    0  501  0.81470017701E+00  0.46185253851E+02  0.38233759106E+01  0.46538500331E+02  0.41800000000E+01 0.  1.
</event>
<event>
11    1  0.7882745E-009  0.1801270E+03  0.7561462E-02  0.1069540E+00
         22   -1    0    0    0    0  0.00000000000E+00  0.00000000000E+00  0.27225729941E+04  0.27225729941E+04  0.00000000000E+00 0. -1.
         22   -1    0    0    0    0 -0.00000000000E+00 -0.00000000000E+00 -0.26145273228E+03  0.26145273228E+03  0.00000000000E+00 0.  1.
         24    2    1    2    0    0  0.12228756493E+03 -0.52405748044E+02 -0.22459799105E+03  0.27496857406E+03  0.86387777935E+02 0.  0.
         25    2    1    2    0    0 -0.23717132646E+02  0.76092057137E+02  0.55702715181E+03  0.57643595907E+03  0.12508662405E+03 0.  0.
        -24    2    1    2    0    0 -0.98570432281E+02 -0.23686309093E+02  0.21286911011E+04  0.21326211933E+04  0.80437421845E+02 0.  0.
        -11    1    3    3    0    0  0.97089170591E+02 -0.25300846016E+02 -0.21418985198E+03  0.23652427475E+03  0.00000000000E+00 0.  1.
         12    1    3    3    0    0  0.25198394335E+02 -0.27104902028E+02 -0.10408139072E+02  0.38444299317E+02  0.00000000000E+00 0. -1.
         13    1    5    5    0    0 -0.47442940109E+02 -0.84159833889E+01  0.16914640287E+04  0.16921501771E+04  0.00000000000E+00 0. -1.
        -14    1    5    5    0    0 -0.51127492171E+02 -0.15270325704E+02  0.43722707236E+03  0.44047101619E+03  0.00000000000E+00 0.  1.
          5    1    4    4  501    0 -0.32627246371E+02  0.10758336777E+03  0.37767548270E+03  0.39407481632E+03  0.41800000000E+01 0. -1.
         -5    1    4    4    0  501  0.89101137252E+01 -0.31491310632E+02  0.17935166911E+03  0.18236114275E+03  0.41800000000E+01 0. -1.
</event>
<event>
11    1  0.7882745E-009  0.1551038E+03  0.7561462E-02  0.1091775E+00
         22   -1    0    0    0    0  0.00000000000E+00  0.00000000000E+00  0.16804387945E+04  0.16804387945E+04  0.00000000000E+00 0.  1.
         22   -1    0    0    0    0 -0.00000000000E+00 -0.00000000000E+00 -0.15511856900E+04  0.15511856900E+04  0.00000000000E+00 0.  1.
        -24    2    1    2    0    0  0.50306146013E+02  0.85605253774E+01 -0.14904083777E+04  0.14933108373E+04  0.77821163987E+02 0.  0.
         25    2    1    2    0    0 -0.15926065829E+02  0.77672359468E+02  0.39423691583E+02  0.15322350331E+03  0.12504630946E+03 0.  0.
         24    2    1    2    0    0 -0.34380080184E+02 -0.86232884845E+02  0.15802377907E+04  0.15850901439E+04  0.82104743120E+02 0.  0.
        -13    1    5    5    0    0 -0.54646833961E+02 -0.50769807484E+02  0.12679997581E+04  0.12701918109E+04  0.00000000000E+00 0.  1.
         14    1    5    5    0    0  0.20266753776E+02 -0.35463077361E+02  0.31223803252E+03  0.31489833298E+03  0.00000000000E+00 0. -1.
         13    1    3    3    0    0  0.55657539688E+02 -0.23319480094E+02 -0.90365513344E+03  0.90566779786E+03  0.00000000000E+00 0. -1.
        -14    1    3    3    0    0 -0.53513936747E+01  0.31880005471E+02 -0.58675324426E+03  0.58764303944E+03  0.00000000000E+00 0.  1.
          5    1    4    4  501    0  0.73735948956E+01  0.23496585128E+02  0.78484641277E+02  0.82363649328E+02  0.41800000000E+01 0.  1.
         -5    1    4    4    0  501 -0.23299660725E+02  0.54175774339E+02 -0.39060949694E+02  0.70859853980E+02  0.41800000000E+01 0.  1.
</event>
<event>
11    1  0.7882745E-009  0.1979242E+03  0.7561462E-02  0.1056001E+00
         22   -1    0    0    0    0  0.00000000000E+00  0.00000000000E+00  0.67928067355E+03  0.67928067355E+03  0.00000000000E+00 0. -1.
         22   -1    0    0    0    0 -0.00000000000E+00 -0.00000000000E+00 -0.56536804759E+03  0.56536804759E+03  0.00000000000E+00 0. -1.
         24    2    1    2    0    0 -0.10937773780E+03 -0.20352735331E+02 -0.47157129888E+03  0.49214387889E+03  0.86304022120E+02 0.  0.
         25    2    1    2    0    0  0.22643574579E+03  0.85426317295E+02  0.20377293199E+03  0.34020821274E+03  0.12508963804E+03 0.  0.
        -24    2    1    2    0    0 -0.11705800799E+03 -0.65073581964E+02  0.38171099284E+03  0.41229662951E+03  0.79674841369E+02 0.  0.
        -11    1    3    3    0    0 -0.32337111511E+02 -0.35593003600E+02 -0.84857618035E+02  0.97536485608E+02  0.00000000000E+00 0.  1.
         12    1    3    3    0    0 -0.77040626292E+02  0.15240268269E+02 -0.38671368085E+03  0.39460739328E+03  0.00000000000E+00 0. -1.
         11    1    5    5    0    0 -0.11165034036E+03 -0.81219982349E+02  0.32572842027E+03  0.35378169513E+03  0.00000000000E+00 0. -1.
        -12    1    5    5    0    0 -0.54076676340E+01  0.16146400384E+02  0.55982572568E+02  0.58514934384E+02  0.00000000000E+00 0.  1.
          5    1    4    4  501    0  0.15787402016E+03  0.86114282115E+02  0.76278949514E+02  0.19538635153E+03  0.41800000000E+01 0. -1.
         -5    1    4    4    0  501  0.68561725637E+02 -0.68796481970E+00  0.12749398248E+03  0.14482186122E+03  0.41800000000E+01 0. -1.
</event>
<event>
11    1  0.7882745E-009  0.3045829E+03  0.7561462E-02  0.9982701E-01
         22   -1    0    0    0    0  0.00000000000E+00  0.00000000000E+00  0.65264080574E+03  0.65264080574E+03  0.00000000000E+00 0. -1.
         22   -1    0    0    0    0 -0.00000000000E+00 -0.00000000000E+00 -0.11932315323E+04  0.11932315323E+04  0.00000000000E+00 0. -1.
         24    2    1    2    0    0 -0.25030726124E+03 -0.11012326370E+03 -0.10388538436E+04  0.10772991427E+04  0.81088077402E+02 0.  0.
         25    2    1    2    0    0  0.34348490094E+03  0.60214148040E+02  0.15666548788E+03  0.40224454218E+03  0.12509586653E+03 0.  0.
        -24    2    1    2    0    0 -0.93177639702E+02  0.49909115661E+02  0.34159762912E+03  0.36632865318E+03  0.79591139915E+02 0.  0.
        -11    1    3    3    0    0 -0.47197358405E+02 -0.34105182621E+02 -0.35903570957E+03  0.36372708845E+03  0.00000000000E+00 0.  1.
         12    1    3    3    0    0 -0.20310990284E+03 -0.76018081080E+02 -0.67981813401E+03  0.71357205426E+03  0.00000000000E+00 0. -1.
         11    1    5    5    0    0 -0.73271039280E+02  0.23152547807E+01  0.25691607280E+03  0.26717012196E+03  0.00000000000E+00 0. -1.
        -12    1    5    5    0    0 -0.19906600422E+02  0.47593860881E+02  0.84681556317E+02  0.99158531222E+02  0.00000000000E+00 0.  1.
          5    1    4    4  501    0  0.32982776041E+03  0.43653445983E+02  0.10954940856E+03  0.35030061404E+03  0.41800000000E+01 0.  1.
         -5    1    4    4    0  501  0.13657140536E+02  0.16560702057E+02  0.47116079323E+02  0.51943928143E+02  0.41800000000E+01 0.  1.
</event>
<event>
11    1  0.7882745E-009  0.1390178E+03  0.7561462E-02  0.1108660E+00
         22   -1    0    0    0    0  0.00000000000E+00  0.00000000000E+00  0.28940250583E+03  0.28940250583E+03  0.00000000000E+00 0.  1.
         22   -1    0    0    0    0 -0.00000000000E+00 -0.00000000000E+00 -0.24637292747E+04  0.24637292747E+04  0.00000000000E+00 0. -1.
        -24    2    1    2    0    0  0.55141205840E+02 -0.28239533336E+02 -0.23134366961E+04  0.23156805874E+04  0.80927201453E+02 0.  0.
         25    2    1    2    0    0 -0.28773496809E+02  0.29737426343E+01 -0.11274575568E+03  0.17086711811E+03  0.12508880590E+03 0.  0.
         24    2    1    2    0    0 -0.26367709030E+02  0.25265790702E+02  0.25185568294E+03  0.26658407506E+03  0.79386193929E+02 0.  0.
        -11    1    5    5    0    0 -0.34774001926E+02  0.30556192544E+01  0.23471469922E+03  0.23729635069E+03  0.00000000000E+00 0.  1.
         12    1    5    5    0    0  0.84062928961E+01  0.22210171447E+02  0.17140983717E+02  0.29287724370E+02  0.00000000000E+00 0. -1.
         11    1    3    3    0    0  0.33592419239E+02 -0.27579022257E+02 -0.21860810979E+04  0.21865131190E+04  0.00000000000E+00 0. -1.
        -12    1    3    3    0    0  0.21548786600E+02 -0.66051107918E+00 -0.12735559826E+03  0.12916746838E+03  0.00000000000E+00 0.  1.
          5    1    4    4  501    0 -0.59624276282E+01  0.57075339171E+02 -0.91892681685E+02  0.10841993466E+03  0.41800000000E+01 0.  1.
         -5    1    4    4    0  501 -0.22811069181E+02 -0.54101596537E+02 -0.20853073996E+02  0.62447183444E+02  0.41800000000E+01 0.  1.
</event>
<event>
11    1  0.7882745E-009  0.2450455E+03  0.7561462E-02  0.1026572E+00
         22   -1    0    0    0    0  0.00000000000E+00  0.00000000000E+00  0.12215925829E+04  0.12215925829E+04  0.00000000000E+00 0. -1.
         22   -1    0    0    0    0 -0.00000000000E+00 -0.00000000000E+00 -0.10849703048E+04  0.10849703048E+04  0.00000000000E+00 0.  1.
        -24    2    1    2    0    0  0.25676032979E+02  0.16718380231E+02 -0.73175965040E+03  0.73692864064E+03  0.81565142956E+02 0.  0.
         25    2    1    2    0    0 -0.21399854028E+03  0.76721047077E+02 -0.29030826236E+03  0.38937011784E+03  0.12509479275E+03 0.  0.
         24    2    1    2    0    0  0.18832250730E+03 -0.93439427308E+02  0.11586901908E+04  0.11802641292E+04  0.79146465092E+02 0.  0.
        -13    1    5    5    0    0 -0.58131963772E+01 -0.75333962374E+01  0.22802884320E+02  0.24708639062E+02  0.00000000000E+00 0.  1.
         14    1    5    5    0    0  0.19413570368E+03 -0.85906031070E+02  0.11358873065E+04  0.11555554901E+04  0.00000000000E+00 0. -1.
         11    1    3    3    0    0 -0.27732719629E+02  0.11151095972E+02 -0.16994778763E+03  0.17255637108E+03  0.00000000000E+00 0. -1.
        -12    1    3    3    0    0  0.53408752607E+02  0.55672842583E+01 -0.56181186277E+03  0.56437226957E+03  0.00000000000E+00 0.  1.
          5    1    4    4  501    0 -0.13547602289E+03  0.12356953743E+02 -0.85476969376E+02  0.16071786391E+03  0.41800000000E+01 0.  1.
         -5    1    4    4    0  501 -0.78522517384E+02  0.64364093335E+02 -0.20483129298E+03  0.22865225394E+03  0.41800000000E+01 0.  1.
</event>
<event>
11    1  0.1046010E-008  0.1612376E+03  0.7561462E-02  0.1085919E+00
         22   -1    0    0    0    0  0.00000000000E+00  0.00000000000E+00  0.38821895450E+03  0.38821895450E+03  0.00000000000E+00 0. -1.
         22   -1    0    0    0    0 -0.00000000000E+00 -0.00000000000E+00 -0.13183217142E+04  0.13183217142E+04  0.00000000000E+00 0.  1.
         24    2    1    2    0    0  0.16242696151E+02 -0.64547655380E+02 -0.11016198751E+04  0.11063185732E+04  0.77098711113E+02 0.  0.
         25    2    1    2    0    0 -0.14791180561E+02 -0.40869515003E+02 -0.18042549931E+03  0.22380838647E+03  0.12509091402E+03 0.  0.
        -24    2    1    2    0    0 -0.14515155902E+01  0.10541717038E+03  0.35194261471E+03  0.37641370900E+03  0.81907200916E+02 0.  0.
        -11    1    3    3    0    0  0.18728913965E+02 -0.30210873005E+02 -0.95691099217E+03  0.95757094567E+03  0.00000000000E+00 0.  1.
         12    1    3    3    0    0 -0.24862178137E+01 -0.34336782375E+02 -0.14470888292E+03  0.14874762754E+03  0.00000000000E+00 0. -1.
         13    1    5    5    0    0  0.20814797141E+02  0.12031276652E+02  0.16004922470E+03  0.16184486932E+03  0.00000000000E+00 0. -1.
        -14    1    5    5    0    0 -0.22266312731E+02  0.93385893731E+02  0.19189339001E+03  0.21456883968E+03  0.00000000000E+00 0.  1.
          5    1    4    4  501    0 -0.68996854158E+02 -0.15013976707E+02 -0.80621552370E+02  0.10725340315E+03  0.41800000000E+01 0.  1.
         -5    1    4    4    0  501  0.54205673597E+02 -0.25855538296E+02 -0.99803946943E+02  0.11655498332E+03  0.41800000000E+01 0.  1.
</event>
<event>
11    1  0.7882745E-009  0.1349231E+03  0.7561462E-02  0.1113364E+00
         22   -1    0    0    0    0  0.00000000000E+00  0.00000000000E+00  0.85481084098E+03  0.85481084098E+03  0.00000000000E+00 0.  1.
         22   -1    0    0    0    0 -0.00000000000E+00 -0.00000000000E+00 -0.25881138433E+03  0.25881138433E+03  0.00000000000E+00 0. -1.
        -24    2    1    2    0    0 -0.10141459940E+02 -0.16193068055E+01 -0.12233059574E+03  0.14703398849E+03  0.80924333502E+02 0.  0.
         25    2    1    2    0    0 -0.65359345469E+01 -0.46252769810E+02 -0.84579559682E+02  0.15805456027E+03  0.12508199291E+03 0.  0.
         24    2    1    2    0    0  0.16677394487E+02  0.47872076616E+02  0.80290961207E+03  0.80853367655E+03  0.80579090002E+02 0.  0.
        -11    1    5    5    0    0 -0.82702227048E+01  0.64164754735E+02  0.50177803689E+03  0.50593152762E+03  0.00000000000E+00 0.  1.
         12    1    5    5    0    0  0.24947617192E+02 -0.16292678119E+02  0.30113157518E+03  0.30260214892E+03  0.00000000000E+00 0. -1.
         11    1    3    3    0    0  0.18977698763E+02 -0.32621705394E+02 -0.44579161603E+02  0.58409163343E+02  0.00000000000E+00 0. -1.
        -12    1    3    3    0    0 -0.29119158703E+02  0.31002398589E+02 -0.77751434136E+02  0.88624825146E+02  0.00000000000E+00 0.  1.
          5    1    4    4  501    0 -0.56589404212E+02  0.52345670970E+00 -0.11692996720E+02  0.57938184717E+02  0.41800000000E+01 0.  1.
         -5    1    4    4    0  501  0.50053469665E+02 -0.46776226520E+02 -0.72886562962E+02  0.10011637555E+03  0.41800000000E+01 0.  1.
</event>
<event>
11    1  0.7882745E-009  0.1576826E+03  0.7561462E-02  0.1089277E+00
         22   -1    0    0    0    0  0.00000000000E+00  0.00000000000E+00  0.94998147084E+02  0.94998147084E+02  0.00000000000E+00 0. -1.
         22   -1    0    0    0    0 -0.00000000000E+00 -0.00000000000E+00 -0.30268205745E+04  0.30268205745E+04  0.00000000000E+00 0.  1.
        -24    2    1    2    0    0  0.40035009176E+01 -0.11625547664E+02 -0.15114979994E+04  0.15137008340E+04  0.80702113462E+02 0.  0.
         25    2    1    2    0    0 -0.68390123500E+02  0.82393268372E+02 -0.14658416352E+04  0.14750610391E+04  0.12509000739E+03 0.  0.
         24    2    1    2    0    0  0.64386622583E+02 -0.70767720708E+02  0.45517207209E+02  0.13305684850E+03  0.80489759100E+02 0.  0.
        -13    1    5    5    0    0  0.82229670587E+02 -0.52750347239E+02  0.26106808980E+02  0.10112310979E+03  0.00000000000E+00 0.  1.
         14    1    5    5    0    0 -0.17843048004E+02 -0.18017373469E+02  0.19410398229E+02  0.31933738714E+02  0.00000000000E+00 0. -1.
         13    1    3    3    0    0  0.32868600612E+02  0.19784374111E+02 -0.62398707464E+03  0.62516528669E+03  0.00000000000E+00 0. -1.
        -14    1    3    3    0    0 -0.28865099694E+02 -0.31409921775E+02 -0.88751092479E+03  0.88853554728E+03  0.00000000000E+00 0.  1.
          5    1    4    4  501    0 -0.91141889158E+01  0.28635524414E+02 -0.11055442453E+04  0.11059604932E+04  0.41800000000E+01 0. -1.
         -5    1    4    4    0  501 -0.59275934585E+02  0.53757743958E+02 -0.36029738985E+03  0.36910054591E+03  0.41800000000E+01 0. -1.
</event>
<event>
11    1  0.7882745E-009  0.1824995E+03  0.7561462E-02  0.1067639E+00
         22   -1    0    0    0    0  0.00000000000E+00  0.00000000000E+00  0.40411793382E+03  0.40411793382E+03  0.00000000000E+00 0.  1.
         22   -1    0    0    0    0 -0.00000000000E+00 -0.00000000000E+00 -0.35574791862E+03  0.35574791862E+03  0.00000000000E+00 0.  1.
         24    2    1    2    0    0 -0.12512790378E+03  0.78610131246E+02 -0.23393290248E+03  0.28784219859E+03  0.79322023354E+02 0.  0.
         25    2    1    2    0    0  0.87043366926E+02 -0.37650964678E+02 -0.16826507515E+02  0.15787274364E+03  0.12508608620E+03 0.  0.
        -24    2    1    2    0    0  0.38084536849E+02 -0.40959166568E+02  0.29912942520E+03  0.31415091021E+03  0.78001897978E+02 0.  0.
        -11    1    3    3    0    0 -0.40699474900E+02  0.54521337725E+02 -0.15699536557E+03  0.17110396937E+03  0.00000000000E+00 0.  1.
         12    1    3    3    0    0 -0.84428428875E+02  0.24088793521E+02 -0.76937536917E+02  0.11673822922E+03  0.00000000000E+00 0. -1.
         11    1    5    5    0    0  0.29745130334E+02 -0.28593464625E+02  0.51119646276E+02  0.65693053158E+02  0.00000000000E+00 0. -1.
        -12    1    5    5    0    0  0.83394065156E+01 -0.12365701943E+02  0.24800977893E+03  0.24845785705E+03  0.00000000000E+00 0.  1.
          5    1    4    4  501    0  0.15507861574E+02 -0.72314834097E+02  0.79553186950E+01  0.74502942872E+02  0.41800000000E+01 0. -1.
         -5    1    4    4    0  501  0.71535505352E+02  0.34663869419E+02 -0.24781826210E+02  0.83369800763E+02  0.41800000000E+01 0. -1.
</event>
<event>
11    1  0.7882745E-009  0.2254747E+03  0.7561462E-02  0.1037841E+00
         22   -1    0    0    0    0  0.00000000000E+00  0.00000000000E+00  0.18999897199E+04  0.18999897199E+04  0.00000000000E+00 0. -1.
         22   -1    0    0    0    0 -0.00000000000E+00 -0.00000000000E+00 -0.25857690309E+03  0.25857690309E+03  0.00000000000E+00 0.  1.
        -24    2    1    2    0    0 -0.27249075009E+02  0.17041747308E+03 -0.10792671594E+03  0.21637691552E+03  0.73390505765E+02 0.  0.
         25    2    1    2    0    0  0.56814458738E+02 -0.23584588814E+03  0.10205716410E+03  0.29139944882E+03  0.12508720300E+03 0.  0.
         24    2    1    2    0    0 -0.29565383729E+02  0.65428415059E+02  0.16472823687E+04  0.16507902587E+04  0.80089241214E+02 0.  0.
        -13    1    5    5    0    0  0.21985887938E+02  0.40995335641E+02  0.96775675453E+03  0.96887415734E+03  0.00000000000E+00 0.  1.
         14    1    5    5    0    0 -0.51551271667E+02  0.24433079418E+02  0.67952561413E+03  0.68191610132E+03  0.00000000000E+00 0. -1.
         11    1    3    3    0    0 -0.38238749974E+01  0.11999743940E+03 -0.35745260722E+02  0.12526664020E+03  0.00000000000E+00 0. -1.
        -12    1    3    3    0    0 -0.23425200012E+02  0.50420033684E+02 -0.72181455220E+02  0.91110275325E+02  0.00000000000E+00 0.  1.
          5    1    4    4  501    0 -0.10087126738E+02 -0.18395193482E+03  0.46525745059E+02  0.19005836420E+03  0.41800000000E+01 0. -1.
         -5    1    4    4    0  501  0.66901585476E+02 -0.51893953318E+02  0.55531419037E+02  0.10134108461E+03  0.41800000000E+01 0. -1.
</event>
<event>
11    1  0.7882745E-009  0.1573185E+03  0.7561462E-02  0.1089627E+00
         22   -1    0    0    0    0  0.00000000000E+00  0.00000000000E+00  0.53543847985E+03  0.53543847985E+03  0.00000000000E+00 0.  1.
         22   -1    0    0    0    0 -0.00000000000E+00 -0.00000000000E+00 -0.15221111625E+04  0.15221111625E+04  0.00000000000E+00 0. -1.
         24    2    1    2    0    0 -0.59609651767E+02  0.90380299175E+02 -0.10266663538E+04  0.10351056950E+04  0.75353094890E+02 0.  0.
         25    2    1    2    0    0 -0.12192566897E+02 -0.76789477032E+02 -0.47469234317E+03  0.49701676200E+03  0.12509020174E+03 0.  0.
        -24    2    1    2    0    0  0.71802218664E+02 -0.13590822143E+02  0.51468601427E+03  0.52542718531E+03  0.76365991950E+02 0.  0.
        -13    1    3    3    0    0  0.87310509011E+01  0.94605591236E+01 -0.34675136652E+03  0.34699026444E+03  0.00000000000E+00 0.  1.
         14    1    3    3    0    0 -0.68340702668E+02  0.80919740052E+02 -0.67991498724E+03  0.68811543061E+03  0.00000000000E+00 0. -1.
         11    1    5    5    0    0  0.11472342486E+02 -0.10867668041E+02  0.13999672679E+02  0.21111884944E+02  0.00000000000E+00 0. -1.
        -12    1    5    5    0    0  0.60329876178E+02 -0.27231541022E+01  0.50068634159E+03  0.50431530037E+03  0.00000000000E+00 0.  1.
          5    1    4    4  501    0  0.46917151910E+02 -0.64514601117E+02 -0.19262845072E+03  0.20853427854E+03  0.41800000000E+01 0.  1.
         -5    1    4    4    0  501 -0.59109718807E+02 -0.12274875915E+02 -0.28206389245E+03  0.28848248346E+03  0.41800000000E+01 0.  1.
</event>
<event>
11    1  0.7882745E-009  0.1442436E+03  0.7561462E-02  0.1102910E+00
         22   -1    0    0    0    0  0.00000000000E+00  0.00000000000E+00  0.40422968400E+03  0.40422968400E+03  0.00000000000E+00 0. -1.
         22   -1    0    0    0    0 -0.00000000000E+00 -0.00000000000E+00 -0.12530229871E+04  0.12530229871E+04  0.00000000000E+00 0.  1.
         24    2    1    2    0    0  0.44570924724E+02  0.56225379392E+02 -0.11771955382E+04  0.11821012379E+04  0.80163213101E+02 0.  0.
         25    2    1    2    0    0 -0.68613433205E+02 -0.40393730074E+02  0.13855851999E+02  0.14892442394E+03  0.12508813998E+03 0.  0.
        -24    2    1    2    0    0  0.24042508481E+02 -0.15831649318E+02  0.31454638317E+03  0.32622700925E+03  0.81584012332E+02 0.  0.
        -13    1    3    3    0    0  0.49752558486E+02  0.52903653569E+01 -0.78266912106E+03  0.78426670088E+03  0.00000000000E+00 0.  1.
         14    1    3    3    0    0 -0.51816337615E+01  0.50935014035E+02 -0.39452641716E+03  0.39783453699E+03  0.00000000000E+00 0. -1.
         11    1    5    5    0    0  0.26955976842E+02  0.13176921190E+02  0.27734157008E+03  0.27895985810E+03  0.00000000000E+00 0. -1.
        -12    1    5    5    0    0 -0.29134683604E+01 -0.29008570508E+02  0.37204813087E+02  0.47267151148E+02  0.00000000000E+00 0.  1.
          5    1    4    4  501    0  0.20107938195E+02  0.22120008138E+02 -0.18735636774E+02  0.35526334230E+02  0.41800000000E+01 0. -1.
         -5    1    4    4    0  501 -0.88721371400E+02 -0.62513738212E+02  0.32591488773E+02  0.11339808971E+03  0.41800000000E+01 0. -1.
</event>
<event>
11    1  0.7882745E-009  0.1823098E+03  0.7561462E-02  0.1067790E+00
         22   -1    0    0    0    0  0.00000000000E+00  0.00000000000E+00  0.19895246697E+04  0.19895246697E+04  0.00000000000E+00 0.  1.
         22   -1    0    0    0    0 -0.00000000000E+00 -0.00000000000E+00 -0.12468616758E+03  0.12468616758E+03  0.00000000000E+00 0.  1.
         24    2    1    2    0    0  0.90779183478E+02 -0.39439763138E+02  0.70853999988E+02  0.14932740252E+03  0.86498721152E+02 0.  0.
         25    2    1    2    0    0 -0.14228101741E+03  0.10697412896E+03  0.58333485433E+02  0.22524984882E+03  0.12508935481E+03 0.  0.
        -24    2    1    2    0    0  0.51501833936E+02 -0.67534365826E+02  0.17356510167E+04  0.17396335859E+04  0.81407813316E+02 0.  0.
        -11    1    3    3    0    0  0.43636717464E+02 -0.64248267035E+02  0.35522113766E+02  0.85403884539E+02  0.00000000000E+00 0.  1.
         12    1    3    3    0    0  0.47142466014E+02  0.24808503897E+02  0.35331886222E+02  0.63923517984E+02  0.00000000000E+00 0. -1.
         11    1    5    5    0    0 -0.13613052365E+02 -0.18374603512E+02  0.82999390814E+03  0.83030887554E+03  0.00000000000E+00 0. -1.
        -12    1    5    5    0    0  0.65114886301E+02 -0.49159762314E+02  0.90565710854E+03  0.90932471037E+03  0.00000000000E+00 0.  1.
          5    1    4    4  501    0 -0.39346939962E+02  0.10493072428E+03  0.46982698828E+02  0.12158735531E+03  0.41800000000E+01 0.  1.
         -5    1    4    4    0  501 -0.10293407745E+03  0.20434046814E+01  0.11350786606E+02  0.10366249351E+03  0.41800000000E+01 0.  1.
</event>
<event>
11    1  0.7882745E-009  0.1628318E+03  0.7561462E-02  0.1084444E+00
         22   -1    0    0    0    0  0.00000000000E+00  0.00000000000E+00  0.11705790622E+04  0.11705790622E+04  0.00000000000E+00 0. -1.
         22   -1    0    0    0    0 -0.00000000000E+00 -0.00000000000E+00 -0.12497189204E+04  0.12497189204E+04  0.00000000000E+00 0.  1.
        -24    2    1    2    0    0  0.30842372582E+02  0.99718532777E+02 -0.12171182088E+04  0.12241785732E+04  0.79632952536E+02 0.  0.
         25    2    1    2    0    0 -0.92646563887E+02 -0.69080673879E+02  0.25294571233E+03  0.30493311700E+03  0.12508855723E+03 0.  0.
         24    2    1    2    0    0  0.61804191305E+02 -0.30637858898E+02  0.88503263829E+03  0.89118629245E+03  0.78560808020E+02 0.  0.
        -11    1    5    5    0    0  0.15068104117E+02 -0.25839961546E+02  0.91524912571E+02  0.96288945344E+02  0.00000000000E+00 0.  1.
         12    1    5    5    0    0  0.46736087187E+02 -0.47978973525E+01  0.79350772572E+03  0.79489734711E+03  0.00000000000E+00 0. -1.
         13    1    3    3    0    0  0.30478887844E+02  0.23480703943E+01 -0.18857873780E+03  0.19104035278E+03  0.00000000000E+00 0. -1.
        -14    1    3    3    0    0  0.36348473820E+00  0.97370462383E+02 -0.10285394710E+04  0.10331382204E+04  0.00000000000E+00 0.  1.
          5    1    4    4  501    0 -0.12845738079E+02 -0.59893917145E+02  0.19855982087E+03  0.20783591884E+03  0.41800000000E+01 0. -1.
         -5    1    4    4    0  501 -0.79800825808E+02 -0.91867567340E+01  0.54385891462E+02  0.97097198152E+02  0.41800000000E+01 0. -1.
</event>
<event>
11    1  0.7882745E-009  0.1822898E+03  0.7561462E-02  0.1067806E+00
         22   -1    0    0    0    0  0.00000000000E+00  0.00000000000E+00  0.74712292349E+02  0.74712292349E+02  0.00000000000E+00 0.  1.
         22   -1    0    0    0    0 -0.00000000000E+00 -0.00000000000E+00 -0.72483397749E+03  0.72483397749E+03  0.00000000000E+00 0.  1.
         24    2    1    2    0    0  0.14541304704E+03  0.66200375679E+02 -0.39387504534E+03  0.43269439871E+03  0.80990415183E+02 0.  0.
         25    2    1    2    0    0 -0.81274308945E+02 -0.26026250207E+02 -0.13413419418E+03  0.20229126060E+03  0.12508754164E+03 0.  0.
        -24    2    1    2    0    0 -0.64138738091E+02 -0.40174125472E+02 -0.12211244562E+03  0.16456061053E+03  0.80255885013E+02 0.  0.
        -11    1    3    3    0    0  0.13638195231E+03  0.57520154510E+02 -0.39321504027E+03  0.42015077411E+03  0.00000000000E+00 0.  1.
         12    1    3    3    0    0  0.90310947224E+01  0.86802211686E+01 -0.66000506327E+00  0.12543624600E+02  0.00000000000E+00 0. -1.
         13    1    5    5    0    0  0.11166783980E+02 -0.29109195405E+02 -0.54329063937E+02  0.62639360707E+02  0.00000000000E+00 0. -1.
        -14    1    5    5    0    0 -0.75305522071E+02 -0.11064930066E+02 -0.67783381688E+02  0.10192124982E+03  0.00000000000E+00 0.  1.
          5    1    4    4  501    0 -0.41029978413E+02 -0.72723851628E+02 -0.10431668561E+03  0.13368493192E+03  0.41800000000E+01 0.  1.
         -5    1    4    4    0  501 -0.40244330532E+02  0.46697601421E+02 -0.29817508572E+02  0.68606328687E+02  0.41800000000E+01 0.  1.
</event>
<event>
11    1  0.7882745E-009  0.1686831E+03  0.7561462E-02  0.1079183E+00
         22   -1    0    0    0    0  0.00000000000E+00  0.00000000000E+00  0.12526223949E+04  0.12526223949E+04  0.00000000000E+00 0. -1.
         22   -1    0    0    0    0 -0.00000000000E+00 -0.00000000000E+00 -0.75707146523E+03  0.75707146523E+03  0.00000000000E+00 0. -1.
        -24    2    1    2    0    0  0.11781257014E+03  0.95120227681E+01 -0.63284878096E+03  0.64865031927E+03  0.79242519242E+02 0.  0.
         25    2    1    2    0    0 -0.82762912543E+02  0.26222426615E+02 -0.64262110272E+02  0.16526928538E+03  0.12508797914E+03 0.  0.
         24    2    1    2    0    0 -0.35049657599E+02 -0.35734449384E+02  0.11926618209E+04  0.11957742555E+04  0.70202718281E+02 0.  0.
        -11    1    5    5    0    0 -0.52390904822E+02 -0.11609066385E+02  0.90288761269E+03  0.90448085578E+03  0.00000000000E+00 0.  1.
         12    1    5    5    0    0  0.17341247223E+02 -0.24125382999E+02  0.28977420826E+03  0.29129339974E+03  0.00000000000E+00 0. -1.
         11    1    3    3    0    0  0.74152167563E+02 -0.90782749512E+01 -0.53170966828E+03  0.53693214690E+03  0.00000000000E+00 0. -1.
        -12    1    3    3    0    0  0.43660402580E+02  0.18590297719E+02 -0.10113911268E+03  0.11171817237E+03  0.00000000000E+00 0.  1.
          5    1    4    4  501    0 -0.67051948999E+02  0.53002436502E+02 -0.90393158906E+02  0.12447336147E+03  0.41800000000E+01 0. -1.
         -5    1    4    4    0  501 -0.15710963544E+02 -0.26780009886E+02  0.26131048634E+02  0.40795923911E+02  0.41800000000E+01 0. -1.
</event>
<event>
11    1  0.7882745E-009  0.1304089E+03  0.7561462E-02  0.1118768E+00
         22   -1    0    0    0    0  0.00000000000E+00  0.00000000000E+00  0.68995296482E+03  0.68995296482E+03  0.00000000000E+00 0.  1.
         22   -1    0    0    0    0 -0.00000000000E+00 -0.00000000000E+00 -0.37135410019E+03  0.37135410019E+03  0.00000000000E+00 0. -1.
        -24    2    1    2    0    0 -0.33857450985E+02 -0.13739978035E+02 -0.33072700411E+03  0.34260654119E+03  0.81631959661E+02 0.  0.
         25    2    1    2    0    0  0.43196279156E+02  0.12905769007E+02  0.10800309093E+03  0.17129948184E+03  0.12508544049E+03 0.  0.
         24    2    1    2    0    0 -0.93388281713E+01  0.83420902839E+00  0.54132277781E+03  0.54740104197E+03  0.80806196339E+02 0.  0.
        -11    1    5    5    0    0 -0.25919435529E+02  0.26223039221E+02  0.44242908011E+03  0.44396278656E+03  0.00000000000E+00 0.  1.
         12    1    5    5    0    0  0.16580607358E+02 -0.25388830193E+02  0.98893697692E+02  0.10343825541E+03  0.00000000000E+00 0. -1.
         13    1    3    3    0    0 -0.44162695494E+02 -0.28661617073E+02 -0.31246829853E+03  0.31687263932E+03  0.00000000000E+00 0. -1.
        -14    1    3    3    0    0  0.10305244509E+02  0.14921639038E+02 -0.18258705580E+02  0.25733901870E+02  0.00000000000E+00 0.  1.
          5    1    4    4  501    0 -0.42461137576E+02  0.18829799173E+02  0.44100924472E+02  0.64186240585E+02  0.41800000000E+01 0.  1.
         -5    1    4    4    0  501  0.85657416732E+02 -0.59240301666E+01  0.63902166455E+02  0.10711324126E+03  0.41800000000E+01 0.  1.
</event>
<event>
11    1  0.7882745E-009  0.1305864E+03  0.7561462E-02  0.1118551E+00
         22   -1    0    0    0    0  0.00000000000E+00  0.00000000000E+00  0.65729934920E+03  0.65729934920E+03  0.00000000000E+00 0.  1.
         22   -1    0    0    0    0 -0.00000000000E+00 -0.00000000000E+00 -0.69553364160E+03  0.69553364160E+03  0.00000000000E+00 0.  1.
         24    2    1    2    0    0  0.59417664481E+01 -0.97296125008E+00 -0.63217910421E+03  0.63739836278E+03  0.81178826251E+02 0.  0.
         25    2    1    2    0    0 -0.20815010100E+02 -0.33347825823E+02  0.17406222850E+02  0.13227200839E+03  0.12509022934E+03 0.  0.
        -24    2    1    2    0    0  0.14873243652E+02  0.34320787073E+02  0.57653858896E+03  0.58316261963E+03  0.79263904636E+02 0.  0.
        -13    1    3    3    0    0  0.26449398744E+02 -0.45231538006E+01 -0.58746815185E+03  0.58808065693E+03  0.00000000000E+00 0.  1.
         14    1    3    3    0    0 -0.20507632296E+02  0.35501925505E+01 -0.44710952361E+02  0.49317705852E+02  0.00000000000E+00 0. -1.
         13    1    5    5    0    0  0.83843429076E+00 -0.22933913153E+02  0.82943112359E+02  0.86059440112E+02  0.00000000000E+00 0. -1.
        -14    1    5    5    0    0  0.14034809361E+02  0.57254700225E+02  0.49359547660E+03  0.49710317952E+03  0.00000000000E+00 0.  1.
          5    1    4    4  501    0  0.25878688919E+02 -0.43362577266E+02  0.52421527636E+02  0.72907534638E+02  0.41800000000E+01 0. -1.
         -5    1    4    4    0  501 -0.46693699019E+02  0.10014751443E+02 -0.35015304786E+02  0.59364473751E+02  0.41800000000E+01 0. -1.
</event>
<event>
11    1  0.7882745E-009  0.1784625E+03  0.7561462E-02  0.1070893E+00
         22   -1    0    0    0    0  0.00000000000E+00  0.00000000000E+00  0.51632254656E+03  0.51632254656E+03  0.00000000000E+00 0. -1.
         22   -1    0    0    0    0 -0.00000000000E+00 -0.00000000000E+00 -0.16600789636E+03  0.16600789636E+03  0.00000000000E+00 0. -1.
        -24    2    1    2    0    0 -0.72588153829E+02  0.51894000712E+02 -0.51797876791E+02  0.13087267742E+03  0.80514658717E+02 0.  0.
         25    2    1    2    0    0 -0.29544697448E+02  0.56589667918E+02  0.31818055667E+02  0.14399791234E+03  0.12509088867E+03 0.  0.
         24    2    1    2    0    0  0.10213285128E+03 -0.10848366863E+03  0.37029447133E+03  0.40745985317E+03  0.81888404412E+02 0.  0.
        -13    1    5    5    0    0  0.35939010187E+02 -0.89281533269E+02  0.26173738956E+03  0.27887141433E+03  0.00000000000E+00 0.  1.
         14    1    5    5    0    0  0.66193841090E+02 -0.19202135361E+02  0.10855708176E+03  0.12858843883E+03  0.00000000000E+00 0. -1.
         13    1    3    3    0    0 -0.40155625005E+02  0.54809932309E+02  0.20137669995E+01  0.67975423182E+02  0.00000000000E+00 0. -1.
        -14    1    3    3    0    0 -0.32432528824E+02 -0.29159315973E+01 -0.53811643790E+02  0.62897254236E+02  0.00000000000E+00 0.  1.
          5    1    4    4  501    0 -0.51712339606E+02  0.41261867974E+02 -0.32727087720E+02  0.73927278368E+02  0.41800000000E+01 0. -1.
         -5    1    4    4    0  501  0.22167642158E+02  0.15327799944E+02  0.64545143387E+02  0.70070633969E+02  0.41800000000E+01 0. -1.
</event>
<event>
11    1  0.7882745E-009  0.1857115E+03  0.7561462E-02  0.1065114E+00
         22   -1    0    0    0    0  0.00000000000E+00  0.00000000000E+00  0.31545413223E+03  0.31545413223E+03  0.00000000000E+00 0.  1.
         22   -1    0    0    0    0 -0.00000000000E+00 -0.00000000000E+00 -0.88623675502E+03  0.88623675502E+03  0.00000000000E+00 0. -1.
         24    2    1    2    0    0  0.17658528984E+02 -0.15421821576E+02 -0.54502986533E+03  0.55249483257E+03  0.87426138497E+02 0.  0.
         25    2    1    2    0    0 -0.15122371492E+03  0.40385512870E+02 -0.28234744893E+03  0.34621656369E+03  0.12508487300E+03 0.  0.
        -24    2    1    2    0    0  0.13356518594E+03 -0.24963691294E+02  0.25659469146E+03  0.30297949099E+03  0.86561489672E+02 0.  0.
        -13    1    3    3    0    0 -0.19205691544E+02  0.18136358567E+02 -0.69360794337E+02  0.74220656699E+02  0.00000000000E+00 0.  1.
         14    1    3    3    0    0  0.36864220529E+02 -0.33558180142E+02 -0.47566907099E+03  0.47827417587E+03  0.00000000000E+00 0. -1.
         11    1    5    5    0    0  0.16406091889E+02 -0.30692262960E+02  0.10917200376E+03  0.11458490853E+03  0.00000000000E+00 0. -1.
        -12    1    5    5    0    0  0.11715909405E+03  0.57285716663E+01  0.14742268770E+03  0.18839458246E+03  0.00000000000E+00 0.  1.
          5    1    4    4  501    0 -0.12593919430E+03  0.54009612149E+02 -0.12280334522E+03  0.18405394009E+03  0.41800000000E+01 0. -1.
         -5    1    4    4    0  501 -0.25284520619E+02 -0.13624099280E+02 -0.15954410371E+03  0.16216262360E+03  0.41800000000E+01 0. -1.
</event>
<event>
11    1  0.7882745E-009  0.1542814E+03  0.7561462E-02  0.1092583E+00
         22   -1    0    0    0    0  0.00000000000E+00  0.00000000000E+00  0.24261753273E+03  0.24261753273E+03  0.00000000000E+00 0.  1.
         22   -1    0    0    0    0 -0.00000000000E+00 -0.00000000000E+00 -0.81014011883E+03  0.81014011883E+03  0.00000000000E+00 0. -1.
        -24    2    1    2    0    0 -0.46136006246E+02  0.77958001852E+02 -0.61168202485E+03  0.62352477410E+03  0.80139024645E+02 0.  0.
         25    2    1    2    0    0  0.52112579531E+02 -0.72223921942E+02 -0.15295855138E+03  0.21674191556E+03  0.12509485870E+03 0.  0.
         24    2    1    2    0    0 -0.59765732858E+01 -0.57340799101E+01  0.19711799013E+03  0.21249096190E+03  0.78919628444E+02 0.  0.
        -13    1    5    5    0    0  0.14066625870E+02 -0.28620970611E+02  0.34220031051E+02  0.46776494602E+02  0.00000000000E+00 0.  1.
         14    1    5    5    0    0 -0.20043199156E+02  0.22886890701E+02  0.16289795908E+03  0.16571446730E+03  0.00000000000E+00 0. -1.
         11    1    3    3    0    0 -0.53066004184E+02  0.80138937415E+02 -0.38810146230E+03  0.39982620616E+03  0.00000000000E+00 0. -1.
        -12    1    3    3    0    0  0.69299979380E+01 -0.21809355632E+01 -0.22358056255E+03  0.22369856795E+03  0.00000000000E+00 0.  1.
          5    1    4    4  501    0 -0.32479489064E+02  0.59968581044E+01 -0.13823255962E+02  0.36047667363E+02  0.41800000000E+01 0. -1.
         -5    1    4    4    0  501  0.84592068595E+02 -0.78220780046E+02 -0.13913529542E+03  0.18069424820E+03  0.41800000000E+01 0. -1.
</event>
<event>
11    1  0.7882745E-009  0.1320968E+03  0.7561462E-02  0.1116719E+00
         22   -1    0    0    0    0  0.00000000000E+00  0.00000000000E+00  0.94198253740E+02  0.94198253740E+02  0.00000000000E+00 0. -1.
         22   -1    0    0    0    0 -0.00000000000E+00 -0.00000000000E+00 -0.23481402794E+04  0.23481402794E+04  0.00000000000E+00 0.  1.
         24    2    1    2    0    0  0.44267515865E+02 -0.13672905527E+01 -0.19997083126E+04  0.20018936155E+04  0.82360367380E+02 0.  0.
         25    2    1    2    0    0 -0.18957415658E+02  0.28166069078E+02 -0.31139167991E+03  0.33729215768E+03  0.12509400569E+03 0.  0.
        -24    2    1    2    0    0 -0.25310100207E+02 -0.26798778525E+02  0.57157966849E+02  0.10315275989E+03  0.77554387346E+02 0.  0.
        -13    1    3    3    0    0  0.37736634283E+02  0.33912101857E+02 -0.15195198698E+04  0.15203666396E+04  0.00000000000E+00 0.  1.
         14    1    3    3    0    0  0.65308815815E+01 -0.35279392410E+02 -0.48018844279E+03  0.48152697591E+03  0.00000000000E+00 0. -1.
         11    1    5    5    0    0 -0.49526296686E+02 -0.34478281869E+02  0.37718583634E+02  0.71163878024E+02  0.00000000000E+00 0. -1.
        -12    1    5    5    0    0  0.24216196480E+02  0.76795033437E+01  0.19439383215E+02  0.31988881871E+02  0.00000000000E+00 0.  1.
          5    1    4    4  501    0 -0.47112246270E+02 -0.30436061890E+02 -0.20466277392E+03  0.21225042059E+03  0.41800000000E+01 0. -1.
         -5    1    4    4    0  501  0.28154830612E+02  0.58602130968E+02 -0.10672890598E+03  0.12504173709E+03  0.41800000000E+01 0. -1.
</event>
<event>
11    1  0.7882745E-009  0.1293265E+03  0.7561462E-02  0.1120099E+00
         22   -1    0    0    0    0  0.00000000000E+00  0.00000000000E+00  0.90930980663E+02  0.90930980663E+02  0.00000000000E+00 0.  1.
         22   -1    0    0    0    0 -0.00000000000E+00 -0.00000000000E+00 -0.14933453948E+04  0.14933453948E+04  0.00000000000E+00 0. -1.
         24    2    1    2    0    0  0.17428730800E+02 -0.26756876979E+02 -0.12980836180E+04  0.13009144051E+04  0.79608534329E+02 0.  0.
         25    2    1    2    0    0 -0.15749921812E+02 -0.10201704503E+02 -0.13939715124E+03  0.18823202411E+03  0.12509034461E+03 0.  0.
        -24    2    1    2    0    0 -0.16788089879E+01  0.36958581482E+02  0.35066355191E+02  0.95129946246E+02  0.80319999138E+02 0.  0.
        -11    1    3    3    0    0  0.16310338215E+02 -0.54869823085E+02 -0.80952699602E+03  0.81154832382E+03  0.00000000000E+00 0.  1.
         12    1    3    3    0    0  0.11183925849E+01  0.28112946106E+02 -0.48855662203E+03  0.48936608124E+03  0.00000000000E+00 0. -1.
         11    1    5    5    0    0  0.74944941492E+01  0.30577601612E+02 -0.21076170260E+02  0.37886173147E+02  0.00000000000E+00 0. -1.
        -12    1    5    5    0    0 -0.91733031371E+01  0.63809798704E+01  0.56142525451E+02  0.57243773099E+02  0.00000000000E+00 0.  1.
          5    1    4    4  501    0  0.15246389981E+02 -0.61767270890E+02 -0.89885475958E+02  0.11020217488E+03  0.41800000000E+01 0.  1.
         -5    1    4    4    0  501 -0.30996311793E+02  0.51565566387E+02 -0.49511675280E+02  0.78029849229E+02  0.41800000000E+01 0.  1.
</event>
<event>
11    1  0.7882745E-009  0.1623739E+03  0.7561462E-02  0.1084866E+00
         22   -1    0    0    0    0  0.00000000000E+00  0.00000000000E+00  0.27758663230E+04  0.27758663230E+04  0.00000000000E+00 0.  1.
         22   -1    0    0    0    0 -0.00000000000E+00 -0.00000000000E+00 -0.28432167520E+03  0.28432167520E+03  0.00000000000E+00 0.  1.
        -24    2    1    2    0    0 -0.29735459559E+02  0.24601061932E+02 -0.26483075822E+03  0.27933032573E+03  0.80004315942E+02 0.  0.
         25    2    1    2    0    0  0.69756346675E+02 -0.11369684058E+03  0.81079970541E+03  0.83116489725E+03  0.12508399049E+03 0.  0.
         24    2    1    2    0    0 -0.40020887117E+02  0.89095778649E+02  0.19455757007E+04  0.19496927753E+04  0.80606337941E+02 0.  0.
        -13    1    5    5    0    0 -0.21733845930E+02  0.10149481177E+03  0.16775101416E+04  0.16807182489E+04  0.00000000000E+00 0.  1.
         14    1    5    5    0    0 -0.18287041186E+02 -0.12399033121E+02  0.26806555905E+03  0.26897452639E+03  0.00000000000E+00 0. -1.
         11    1    3    3    0    0  0.19382338069E+02 -0.54958382051E+01 -0.22302195044E+02  0.30054403511E+02  0.00000000000E+00 0. -1.
        -12    1    3    3    0    0 -0.49117797628E+02  0.30096900137E+02 -0.24252856318E+03  0.24927592222E+03  0.00000000000E+00 0.  1.
          5    1    4    4  501    0  0.54731793657E+02 -0.92385006291E+00  0.13323281214E+03  0.14410023375E+03  0.41800000000E+01 0. -1.
         -5    1    4    4    0  501  0.15024553019E+02 -0.11277299052E+03  0.67756689327E+03  0.68706466351E+03  0.41800000000E+01 0. -1.
</event>
<event>
11    1  0.7882745E-009  0.2226287E+03  0.7561462E-02  0.1039583E+00
         22   -1    0    0    0    0  0.00000000000E+00  0.00000000000E+00  0.23831596050E+03  0.23831596050E+03  0.00000000000E+00 0.  1.
         22   -1    0    0    0    0 -0.00000000000E+00 -0.00000000000E+00 -0.95210855634E+03  0.95210855634E+03  0.00000000000E+00 0. -1.
        -24    2    1    2    0    0 -0.14580984751E+03  0.12263725539E+03 -0.62778892633E+03  0.66106301043E+03  0.81147764573E+02 0.  0.
         25    2    1    2    0    0  0.16097829016E+03 -0.68054129052E+02 -0.25537624863E+03  0.33378356900E+03  0.12509623569E+03 0.  0.
         24    2    1    2    0    0 -0.15168442651E+02 -0.54583126338E+02  0.16937257912E+03  0.19557793741E+03  0.79713610571E+02 0.  0.
        -13    1    5    5    0    0 -0.27073181803E+02 -0.71668050971E+02  0.13969787664E+03  0.15932596600E+03  0.00000000000E+00 0.  1.
         14    1    5    5    0    0  0.11904739152E+02  0.17084924633E+02  0.29674702474E+02  0.36251971407E+02  0.00000000000E+00 0. -1.
         11    1    3    3    0    0 -0.14564892136E+03  0.10085642307E+03 -0.60083109031E+03  0.62640532042E+03  0.00000000000E+00 0. -1.
        -12    1    3    3    0    0 -0.16092614732E+00  0.21780832321E+02 -0.26957836018E+02  0.34657690007E+02  0.00000000000E+00 0.  1.
          5    1    4    4  501    0 -0.53014143434E-01  0.26001075144E+02 -0.48794082733E+02  0.55447214798E+02  0.41800000000E+01 0.  1.
         -5    1    4    4    0  501  0.16103130431E+03 -0.94055204195E+02 -0.20658216590E+03  0.27833635420E+03  0.41800000000E+01 0.  1.
</event>
<event>
11    1  0.9151724E-009  0.1644413E+03  0.7561462E-02  0.1082973E+00
         22   -1    0    0    0    0  0.00000000000E+00  0.00000000000E+00  0.14229651603E+04  0.14229651603E+04  0.00000000000E+00 0. -1.
         22   -1    0    0    0    0 -0.00000000000E+00 -0.00000000000E+00 -0.76046864879E+03  0.76046864879E+03  0.00000000000E+00 0.  1.
        -24    2    1    2    0    0 -0.52254988846E+02 -0.10993953235E+03 -0.65221946938E+03  0.66844593328E+03  0.81316940760E+02 0.  0.
         25    2    1    2    0    0 -0.99947262108E+01  0.33904410809E+02 -0.53763724539E+02  0.14063961867E+03  0.12505822899E+03 0.  0.
         24    2    1    2    0    0  0.62249715057E+02  0.76035121546E+02  0.13684797054E+04  0.13743482571E+04  0.80249990613E+02 0.  0.
        -11    1    5    5    0    0 -0.17771960958E+02  0.42822811346E+01  0.27191868911E+03  0.27253248250E+03  0.00000000000E+00 0.  1.
         12    1    5    5    0    0  0.80021676015E+02  0.71752840412E+02  0.10965610163E+04  0.11018157746E+04  0.00000000000E+00 0. -1.
         11    1    3    3    0    0  0.48436809291E+00 -0.15868080823E+02 -0.13963422048E+02  0.21142557952E+02  0.00000000000E+00 0. -1.
        -12    1    3    3    0    0 -0.52739356939E+02 -0.94071451532E+02 -0.63825604733E+03  0.64730337533E+03  0.00000000000E+00 0.  1.
          5    1    4    4  501    0  0.30632951996E+02 -0.77195082741E+01  0.26488406669E+02  0.41437623530E+02  0.41800000000E+01 0.  1.
         -5    1    4    4    0  501 -0.40627678207E+02  0.41623919083E+02 -0.80252131208E+02  0.99201995140E+02  0.41800000000E+01 0.  1.
</event>
<event>
11    1  0.7882745E-009  0.1307478E+03  0.7561462E-02  0.1118354E+00
         22   -1    0    0    0    0  0.00000000000E+00  0.00000000000E+00  0.55091747981E+03  0.55091747981E+03  0.00000000000E+00 0. -1.
         22   -1    0    0    0    0 -0.00000000000E+00 -0.00000000000E+00 -0.17854072402E+03  0.17854072402E+03  0.00000000000E+00 0. -1.
        -24    2    1    2    0    0 -0.40467199407E+01 -0.81322378584E+01 -0.13010231524E+03  0.15333447791E+03  0.80637091039E+02 0.  0.
         25    2    1    2    0    0  0.13671479320E+02  0.43681713717E+02  0.10785987641E+03  0.17139340117E+03  0.12508774347E+03 0.  0.
         24    2    1    2    0    0 -0.96247593793E+01 -0.35549475858E+02  0.39461919462E+03  0.40473032475E+03  0.82011741726E+02 0.  0.
        -11    1    5    5    0    0 -0.14183824692E+02  0.15130250239E+02  0.29372661684E+02  0.35956343106E+02  0.00000000000E+00 0.  1.
         12    1    5    5    0    0  0.45590653130E+01 -0.50679726097E+02  0.36524653294E+03  0.36877398164E+03  0.00000000000E+00 0. -1.
         11    1    3    3    0    0  0.21526838131E+02 -0.18199360595E+01 -0.12455624288E+03  0.12641587941E+03  0.00000000000E+00 0. -1.
        -12    1    3    3    0    0 -0.25573558072E+02 -0.63123017989E+01 -0.55460723551E+01  0.26918598497E+02  0.00000000000E+00 0.  1.
          5    1    4    4  501    0  0.34469975164E+02  0.20150025856E+01 -0.16527863608E+02  0.38508208199E+02  0.41800000000E+01 0. -1.
         -5    1    4    4    0  501 -0.20798495845E+02  0.41666711131E+02  0.12438774001E+03  0.13288519297E+03  0.41800000000E+01 0. -1.
</event>
<event>
11    1  0.7882745E-009  0.1454006E+03  0.7561462E-02  0.1101673E+00
         22   -1    0    0    0    0  0.00000000000E+00  0.00000000000E+00  0.32073904095E+03  0.32073904095E+03  0.00000000000E+00 0.  1.
         22   -1    0    0    0    0 -0.00000000000E+00 -0.00000000000E+00 -0.96551624008E+03  0.96551624008E+03  0.00000000000E+00 0. -1.
         24    2    1    2    0    0  0.31311676397E+02  0.27623129141E+02 -0.75845993336E+03  0.76391093586E+03  0.80962886992E+02 0.  0.
         25    2    1    2    0    0 -0.28976886031E+02  0.47916988564E+02 -0.16958580001E+03  0.21804204416E+03  0.12508913518E+03 0.  0.
        -24    2    1    2    0    0 -0.23347903660E+01 -0.75540117705E+02  0.28326853424E+03  0.30430230101E+03  0.81529548500E+02 0.  0.
        -13    1    3    3    0    0 -0.10934265715E+02  0.17721714546E+02 -0.50530493476E+02  0.54652978913E+02  0.00000000000E+00 0.  1.
         14    1    3    3    0    0  0.42245942111E+02  0.99014145950E+01 -0.70792943988E+03  0.70925795694E+03  0.00000000000E+00 0. -1.
         11    1    5    5    0    0  0.11982261623E+02 -0.56361129115E+02  0.74581288697E+02  0.94247122462E+02  0.00000000000E+00 0. -1.
        -12    1    5    5    0    0 -0.14317051989E+02 -0.19178988590E+02  0.20868724554E+03  0.21005517854E+03  0.00000000000E+00 0.  1.
          5    1    4    4  501    0 -0.50821980028E+02 -0.23071640188E+02 -0.10729184896E+03  0.12101317072E+03  0.41800000000E+01 0. -1.
         -5    1    4    4    0  501  0.21845093997E+02  0.70988628752E+02 -0.62293951050E+02  0.97028873441E+02  0.41800000000E+01 0. -1.
</event>
<event>
11    1  0.7882745E-009  0.1472359E+03  0.7561462E-02  0.1099737E+00
         22   -1    0    0    0    0  0.00000000000E+00  0.00000000000E+00  0.10524622769E+04  0.10524622769E+04  0.00000000000E+00 0.  1.
         22   -1    0    0    0    0 -0.00000000000E+00 -0.00000000000E+00 -0.72540273273E+03  0.72540273273E+03  0.00000000000E+00 0. -1.
        -24    2    1    2    0    0  0.56201499697E+02 -0.60577120717E+02 -0.31575103470E+03  0.33518953920E+03  0.76322442000E+02 0.  0.
         25    2    1    2    0    0 -0.23054597501E+02  0.71468229798E+02 -0.38476525621E+03  0.41149852299E+03  0.12509000640E+03 0.  0.
         24    2    1    2    0    0 -0.33146902196E+02 -0.10891109080E+02  0.10275758351E+04  0.10311769475E+04  0.78717639122E+02 0.  0.
        -13    1    5    5    0    0 -0.33937613035E+02  0.18949265211E+01  0.10019605230E+04  0.10025369030E+04  0.00000000000E+00 0.  1.
         14    1    5    5    0    0  0.79071083914E+00 -0.12786035601E+02  0.25615312128E+02  0.28640044439E+02  0.00000000000E+00 0. -1.
         13    1    3    3    0    0  0.60534294968E+02 -0.53064011278E+02 -0.31641188458E+03  0.32649145603E+03  0.00000000000E+00 0. -1.
        -14    1    3    3    0    0 -0.43327952703E+01 -0.75131094395E+01  0.66084987440E+00  0.86980831717E+01  0.00000000000E+00 0.  1.
          5    1    4    4  501    0 -0.41713269488E+02  0.72429378642E+02 -0.12146610742E+03  0.14750423517E+03  0.41800000000E+01 0.  1.
         -5    1    4    4    0  501  0.18658671987E+02 -0.96114884433E+00 -0.26329914879E+03  0.26399428782E+03  0.41800000000E+01 0.  1.
</event>
<event>
11    1  0.7882745E-009  0.1274005E+03  0.7561462E-02  0.1122505E+00
         22   -1    0    0    0    0  0.00000000000E+00  0.00000000000E+00  0.10844266929E+04  0.10844266929E+04  0.00000000000E+00 0. -1.
         22   -1    0    0    0    0 -0.00000000000E+00 -0.00000000000E+00 -0.55884526505E+02  0.55884526505E+02  0.00000000000E+00 0.  1.
        -24    2    1    2    0    0 -0.68224135442E-01  0.24467455955E+02 -0.24261882939E+01  0.81078070117E+02  0.77259989702E+02 0.  0.
         25    2    1    2    0    0 -0.22611852828E+02 -0.20410337519E+02  0.33986632720E+03  0.36343381385E+03  0.12508852434E+03 0.  0.
         24    2    1    2    0    0  0.22680076964E+02 -0.40571184355E+01  0.69110202749E+03  0.69579933544E+03  0.77355392125E+02 0.  0.
        -11    1    5    5    0    0 -0.26190665135E+02 -0.71637076039E+01  0.14610079179E+03  0.14860252693E+03  0.00000000000E+00 0.  1.
         12    1    5    5    0    0  0.48870742099E+02  0.31065891684E+01  0.54500123570E+03  0.54719680851E+03  0.00000000000E+00 0. -1.
         13    1    3    3    0    0 -0.17758452542E+02 -0.18866350729E+02  0.16360892600E+02  0.30642790884E+02  0.00000000000E+00 0. -1.
        -14    1    3    3    0    0  0.17690228407E+02  0.43333806684E+02 -0.18787080894E+02  0.50435279233E+02  0.00000000000E+00 0.  1.
          5    1    4    4  501    0 -0.49643525046E+02 -0.23615198445E+02  0.57257105403E+02  0.79485883626E+02  0.41800000000E+01 0.  1.
         -5    1    4    4    0  501  0.27031672217E+02  0.32048609260E+01  0.28260922180E+03  0.28394793023E+03  0.41800000000E+01 0.  1.
</event>
<event>
11    1  0.7882745E-009  0.1510858E+03  0.7561462E-02  0.1095774E+00
         22   -1    0    0    0    0  0.00000000000E+00  0.00000000000E+00  0.80068240906E+03  0.80068240906E+03  0.00000000000E+00 0.  1.
         22   -1    0    0    0    0 -0.00000000000E+00 -0.00000000000E+00 -0.38886843007E+03  0.38886843007E+03  0.00000000000E+00 0. -1.
         24    2    1    2    0    0  0.38923034614E+02  0.76440717269E+02 -0.35792190874E+03  0.37602483376E+03  0.76996084128E+02 0.  0.
         25    2    1    2    0    0 -0.32818573841E+02 -0.45026959594E+02  0.23726411158E+03  0.27394669916E+03  0.12509216383E+03 0.  0.
        -24    2    1    2    0    0 -0.61044607730E+01 -0.31413757675E+02  0.53247177615E+03  0.53957930622E+03  0.81212971194E+02 0.  0.
        -11    1    3    3    0    0  0.43764694076E+02  0.63266672730E+01 -0.11767821957E+03  0.12571212562E+03  0.00000000000E+00 0.  1.
         12    1    3    3    0    0 -0.48416594620E+01  0.70114049996E+02 -0.24024368917E+03  0.25031270814E+03  0.00000000000E+00 0. -1.
         13    1    5    5    0    0  0.18309121434E+02 -0.34177100746E+02  0.11450950082E+03  0.12089550828E+03  0.00000000000E+00 0. -1.
        -14    1    5    5    0    0 -0.24413582207E+02  0.27633430718E+01  0.41796227533E+03  0.41868379794E+03  0.00000000000E+00 0.  1.
          5    1    4    4  501    0 -0.22735400257E+02  0.40077346340E+02  0.50930995268E+02  0.68807926822E+02  0.41800000000E+01 0.  1.
         -5    1    4    4    0  501 -0.10083173583E+02 -0.85104305935E+02  0.18633311632E+03  0.20513877233E+03  0.41800000000E+01 0.  1.
</event>
<event>
11    1  0.7882745E-009  0.1748525E+03  0.7561462E-02  0.1073884E+00
         22   -1    0    0    0    0  0.00000000000E+00  0.00000000000E+00  0.99746244574E+03  0.99746244574E+03  0.00000000000E+00 0. -1.
         22   -1    0    0    0    0 -0.00000000000E+00 -0.00000000000E+00 -0.14464430738E+04  0.14464430738E+04  0.00000000000E+00 0.  1.
        -24    2    1    2    0    0 -0.28865114103E+02  0.18583244443E+02 -0.12733260042E+04  0.12764679235E+04  0.82660238886E+02 0.  0.
         25    2    1    2    0    0  0.15007502452E+03 -0.17773020707E+02 -0.10783548300E+03  0.22386404899E+03  0.12509287664E+03 0.  0.
         24    2    1    2    0    0 -0.12120991042E+03 -0.81022373615E+00  0.93218085913E+03  0.94357354702E+03  0.81715271883E+02 0.  0.
        -13    1    5    5    0    0 -0.30268422921E+02  0.36361888058E+02  0.26344962186E+03  0.26766409469E+03  0.00000000000E+00 0.  1.
         14    1    5    5    0    0 -0.90941487494E+02 -0.37172111794E+02  0.66873123727E+03  0.67590945232E+03  0.00000000000E+00 0. -1.
         11    1    3    3    0    0 -0.26952797961E+02 -0.56905273033E+00 -0.12040003523E+03  0.12338130175E+03  0.00000000000E+00 0. -1.
        -12    1    3    3    0    0 -0.19123161416E+01  0.19152297173E+02 -0.11529259690E+04  0.11530866218E+04  0.00000000000E+00 0.  1.
          5    1    4    4  501    0  0.11845390052E+02 -0.50581155765E+01 -0.81369509260E+02  0.82488588519E+02  0.41800000000E+01 0.  1.
         -5    1    4    4    0  501  0.13822963447E+03 -0.12714905130E+02 -0.26465973740E+02  0.14137546047E+03  0.41800000000E+01 0.  1.
</event>
<event>
11    1  0.7882745E-009  0.1401430E+03  0.7561462E-02  0.1107399E+00
         22   -1    0    0    0    0  0.00000000000E+00  0.00000000000E+00  0.37572538040E+03  0.37572538040E+03  0.00000000000E+00 0. -1.
         22   -1    0    0    0    0 -0.00000000000E+00 -0.00000000000E+00 -0.89915400759E+03  0.89915400759E+03  0.00000000000E+00 0. -1.
        -24    2    1    2    0    0 -0.32004238000E+02 -0.43699676446E+02 -0.83051103915E+03  0.83632019766E+03  0.82152016920E+02 0.  0.
         25    2    1    2    0    0  0.90509666017E+02  0.39797003791E+02  0.56858256945E+02  0.16927984887E+03  0.12508798782E+03 0.  0.
         24    2    1    2    0    0 -0.58505428018E+02  0.39026726547E+01  0.25022415502E+03  0.26927934146E+03  0.80381092444E+02 0.  0.
        -11    1    5    5    0    0 -0.23239149803E+01  0.18154108704E+02  0.75820573136E+01  0.19810599102E+02  0.00000000000E+00 0.  1.
         12    1    5    5    0    0 -0.56181513037E+02 -0.14251436049E+02  0.24264209770E+03  0.24946874236E+03  0.00000000000E+00 0. -1.
         13    1    3    3    0    0 -0.59498486119E+02 -0.28073065705E+02 -0.61341395855E+03  0.61693180451E+03  0.00000000000E+00 0. -1.
        -14    1    3    3    0    0  0.27494248119E+02 -0.15626610741E+02 -0.21709708060E+03  0.21938839315E+03  0.00000000000E+00 0.  1.
          5    1    4    4  501    0  0.51512380067E+02  0.84280015690E+02  0.45782134336E+02  0.10895009210E+03  0.41800000000E+01 0. -1.
         -5    1    4    4    0  501  0.38997285950E+02 -0.44483011899E+02  0.11076122610E+02  0.60329756764E+02  0.41800000000E+01 0. -1.
</event>
<event>
11    1  0.7882745E-009  0.1444775E+03  0.7561462E-02  0.1102659E+00
         22   -1    0    0    0    0  0.00000000000E+00  0.00000000000E+00  0.19456037159E+04  0.19456037159E+04  0.00000000000E+00 0.  1.
         22   -1    0    0    0    0 -0.00000000000E+00 -0.00000000000E+00 -0.14513694158E+03  0.14513694158E+03  0.00000000000E+00 0.  1.
        -24    2    1    2    0    0  0.92094543245E+01 -0.48158237405E+02 -0.10460557732E+03  0.13937222146E+03  0.77963192786E+02 0.  0.
         25    2    1    2    0    0  0.83972254889E+01 -0.25786492032E+02  0.17008972772E+03  0.21286979336E+03  0.12509027494E+03 0.  0.
         24    2    1    2    0    0 -0.17606679813E+02  0.73944729438E+02  0.17349826239E+04  0.17384986426E+04  0.80218495600E+02 0.  0.
        -13    1    5    5    0    0 -0.32392698355E+02  0.80722501139E+02  0.16243107582E+04  0.16266378971E+04  0.00000000000E+00 0.  1.
         14    1    5    5    0    0  0.14786018542E+02 -0.67777717017E+01  0.11067186566E+03  0.11186074549E+03  0.00000000000E+00 0. -1.
         11    1    3    3    0    0 -0.90505673542E+01 -0.51275422910E+02 -0.25220660049E+02  0.57854675328E+02  0.00000000000E+00 0. -1.
        -12    1    3    3    0    0  0.18260021679E+02  0.31171855043E+01 -0.79384917274E+02  0.81517546135E+02  0.00000000000E+00 0.  1.
          5    1    4    4  501    0 -0.10128356303E+02 -0.31890729608E+02 -0.71839403543E+01  0.34477291590E+02  0.41800000000E+01 0.  1.
         -5    1    4    4    0  501  0.18525581792E+02  0.61042375758E+01  0.17727366807E+03  0.17839250177E+03  0.41800000000E+01 0.  1.
</event>
<event>
11    1  0.7882745E-009  0.1595860E+03  0.7561462E-02  0.1087467E+00
         22   -1    0    0    0    0  0.00000000000E+00  0.00000000000E+00  0.15231293184E+03  0.15231293184E+03  0.00000000000E+00 0. -1.
         22   -1    0    0    0    0 -0.00000000000E+00 -0.00000000000E+00 -0.23287749425E+04  0.23287749425E+04  0.00000000000E+00 0.  1.
        -24    2    1    2    0    0  0.86552101148E+02 -0.21137063422E+02 -0.15350264496E+04  0.15396803993E+04  0.79821608886E+02 0.  0.
         25    2    1    2    0    0 -0.14910099670E+03  0.37826424306E+02 -0.75897039320E+03  0.78443981116E+03  0.12509122265E+03 0.  0.
         24    2    1    2    0    0  0.62548895554E+02 -0.16689360884E+02  0.11753483211E+03  0.15696766394E+03  0.81446372928E+02 0.  0.
        -13    1    5    5    0    0 -0.10632278544E+02  0.19282557020E+02  0.31453048341E+02  0.38394747066E+02  0.00000000000E+00 0.  1.
         14    1    5    5    0    0  0.73181174098E+02 -0.35971917904E+02  0.86081783765E+02  0.11857291687E+03  0.00000000000E+00 0. -1.
         13    1    3    3    0    0  0.42756946149E+02  0.29143102712E+02 -0.56477832932E+03  0.56714375440E+03  0.00000000000E+00 0. -1.
        -14    1    3    3    0    0  0.43795154999E+02 -0.50280166133E+02 -0.97024812028E+03  0.97253664487E+03  0.00000000000E+00 0.  1.
          5    1    4    4  501    0 -0.16362991943E+03  0.49359170148E+02 -0.73024654209E+03  0.74999237519E+03  0.41800000000E+01 0. -1.
         -5    1    4    4    0  501  0.14528922725E+02 -0.11532745842E+02 -0.28723851104E+02  0.34447435963E+02  0.41800000000E+01 0. -1.
</event>
<event>
11    1  0.7882745E-009  0.1419475E+03  0.7561462E-02  0.1105403E+00
         22   -1    0    0    0    0  0.00000000000E+00  0.00000000000E+00  0.17857761014E+03  0.17857761014E+03  0.00000000000E+00 0.  1.
         22   -1    0    0    0    0 -0.00000000000E+00 -0.00000000000E+00 -0.12877732410E+04  0.12877732410E+04  0.00000000000E+00 0.  1.
         24    2    1    2    0    0 -0.45411782338E+02  0.47227977605E+02 -0.10647090792E+04  0.10692131003E+04  0.72928174806E+02 0.  0.
         25    2    1    2    0    0  0.29835979339E+02 -0.92544836733E+02 -0.17777899385E+03  0.23813101354E+03  0.12508507699E+03 0.  0.
        -24    2    1    2    0    0  0.15575802999E+02  0.45316859129E+02  0.13329244221E+03  0.15900673728E+03  0.72249871905E+02 0.  0.
        -13    1    3    3    0    0 -0.54192989072E+01  0.71524737149E+01 -0.70653021178E+03  0.70658719691E+03  0.00000000000E+00 0.  1.
         14    1    3    3    0    0 -0.39992483430E+02  0.40075503890E+02 -0.35817886742E+03  0.36262590339E+03  0.00000000000E+00 0. -1.
         13    1    5    5    0    0  0.15240784484E+02  0.16458417898E+02 -0.19801733589E+00  0.22432125228E+02  0.00000000000E+00 0. -1.
        -14    1    5    5    0    0  0.33501851444E+00  0.28858441231E+02  0.13349045955E+03  0.13657461205E+03  0.00000000000E+00 0.  1.
          5    1    4    4  501    0  0.52340678752E+02  0.37773452840E+01 -0.31029142212E+02  0.61107242255E+02  0.41800000000E+01 0.  1.
         -5    1    4    4    0  501 -0.22504699413E+02 -0.96322182017E+02 -0.14674985164E+03  0.17702377129E+03  0.41800000000E+01 0.  1.
</event>
<event>
11    1  0.7882745E-009  0.1735774E+03  0.7561462E-02  0.1074960E+00
         22   -1    0    0    0    0  0.00000000000E+00  0.00000000000E+00  0.30428999230E+03  0.30428999230E+03  0.00000000000E+00 0.  1.
         22   -1    0    0    0    0 -0.00000000000E+00 -0.00000000000E+00 -0.95997566584E+03  0.95997566584E+03  0.00000000000E+00 0.  1.
         24    2    1    2    0    0 -0.23127621687E+02 -0.57585816840E+01 -0.79306700620E+03  0.79751963508E+03  0.80710865809E+02 0.  0.
         25    2    1    2    0    0  0.14079216875E+03  0.66120969580E+01 -0.84718272540E+02  0.20661461591E+03  0.12508500789E+03 0.  0.
        -24    2    1    2    0    0 -0.11766454706E+03 -0.85351527398E+00  0.22209960520E+03  0.26013140716E+03  0.67040586480E+02 0.  0.
        -11    1    3    3    0    0 -0.30286675423E+02  0.96976369965E+01 -0.75662687143E+03  0.75729488936E+03  0.00000000000E+00 0.  1.
         12    1    3    3    0    0  0.71590537356E+01 -0.15456218681E+02 -0.36440134769E+02  0.40224745720E+02  0.00000000000E+00 0. -1.
         13    1    5    5    0    0  0.36582678083E+01  0.24756484229E+01 -0.23243327418E+01  0.49914207562E+01  0.00000000000E+00 0. -1.
        -14    1    5    5    0    0 -0.12132281487E+03 -0.33291636969E+01  0.22442393795E+03  0.25513998640E+03  0.00000000000E+00 0.  1.
          5    1    4    4  501    0  0.99199879959E+02  0.19654114537E+02  0.10551725835E+02  0.10176301745E+03  0.41800000000E+01 0. -1.
         -5    1    4    4    0  501  0.41592288791E+02 -0.13042017579E+02 -0.95269998376E+02  0.10485159846E+03  0.41800000000E+01 0. -1.
</event>
<event>
11    1  0.7882745E-009  0.1503169E+03  0.7561462E-02  0.1096555E+00
         22   -1    0    0    0    0  0.00000000000E+00  0.00000000000E+00  0.14837371973E+04  0.14837371973E+04  0.00000000000E+00 0.  1.
         22   -1    0    0    0    0 -0.00000000000E+00 -0.00000000000E+00 -0.15185404301E+03  0.15185404301E+03  0.00000000000E+00 0.  1.
        -24    2    1    2    0    0  0.67638386417E+01 -0.13591611386E+02 -0.83291041582E+02  0.11852037506E+03  0.82940944547E+02 0.  0.
         25    2    1    2    0    0  0.29293248921E+02 -0.62376365266E+02  0.56776446589E+02  0.15369022856E+03  0.12509282990E+03 0.  0.
         24    2    1    2    0    0 -0.36057087563E+02  0.75967976652E+02  0.13583977492E+04  0.13633806367E+04  0.80567165926E+02 0.  0.
        -13    1    5    5    0    0 -0.25468694388E+02  0.88709571407E+02  0.90804435005E+03  0.91272262167E+03  0.00000000000E+00 0.  1.
         14    1    5    5    0    0 -0.10588393175E+02 -0.12741594755E+02  0.45035339920E+03  0.45065801500E+03  0.00000000000E+00 0. -1.
         11    1    3    3    0    0  0.25337448625E+02  0.99935712709E+01  0.27661712484E+01  0.27377170653E+02  0.00000000000E+00 0. -1.
        -12    1    3    3    0    0 -0.18573609984E+02 -0.23585182657E+02 -0.86057212831E+02  0.91143204404E+02  0.00000000000E+00 0.  1.
          5    1    4    4  501    0  0.33532452465E+02  0.17999560598E+02  0.62061230134E+02  0.72921041104E+02  0.41800000000E+01 0. -1.
         -5    1    4    4    0  501 -0.42392035431E+01 -0.80375925864E+02 -0.52847835452E+01  0.80769187456E+02  0.41800000000E+01 0. -1.
</event>
<event>
11    1  0.7882745E-009  0.1446441E+03  0.7561462E-02  0.1102481E+00
         22   -1    0    0    0    0  0.00000000000E+00  0.00000000000E+00  0.47583577494E+03  0.47583577494E+03  0.00000000000E+00 0. -1.
         22   -1    0    0    0    0 -0.00000000000E+00 -0.00000000000E+00 -0.39894177330E+03  0.39894177330E+03  0.00000000000E+00 0. -1.
        -24    2    1    2    0    0 -0.67903466552E+02 -0.95112309555E+01 -0.31736175875E+03  0.33407234451E+03  0.78641599463E+02 0.  0.
         25    2    1    2    0    0  0.14063655945E+03 -0.12745532586E+02  0.67508574162E+02  0.20035959905E+03  0.12508185676E+03 0.  0.
         24    2    1    2    0    0 -0.72733092897E+02  0.22256763542E+02  0.32674718624E+03  0.34034560468E+03  0.57323124337E+02 0.  0.
        -11    1    5    5    0    0 -0.13008672511E+02  0.83190108732E+01  0.11670020290E+02  0.19355125315E+02  0.00000000000E+00 0.  1.
         12    1    5    5    0    0 -0.59724420386E+02  0.13937752669E+02  0.31507716595E+03  0.32099047936E+03  0.00000000000E+00 0. -1.
         13    1    3    3    0    0 -0.70878568623E+02 -0.51642976552E+01 -0.32026682497E+03  0.32805682532E+03  0.00000000000E+00 0. -1.
        -14    1    3    3    0    0  0.29751020712E+01 -0.43469333003E+01  0.29050662191E+01  0.60155191953E+01  0.00000000000E+00 0.  1.
          5    1    4    4  501    0  0.92997198148E+02 -0.26204340937E+02  0.10147512449E+03  0.14017781436E+03  0.41800000000E+01 0. -1.
         -5    1    4    4    0  501  0.47639361301E+02  0.13458808351E+02 -0.33966550328E+02  0.60181784690E+02  0.41800000000E+01 0. -1.
</event>
<event>
11    1  0.1027949E-008  0.1802368E+03  0.7561462E-02  0.1069451E+00
         22   -1    0    0    0    0  0.00000000000E+00  0.00000000000E+00  0.24349587293E+03  0.24349587293E+03  0.00000000000E+00 0. -1.
         22   -1    0    0    0    0 -0.00000000000E+00 -0.00000000000E+00 -0.11717973728E+04  0.11717973728E+04  0.00000000000E+00 0.  1.
        -24    2    1    2    0    0 -0.92214195385E+01 -0.39852301069E+02 -0.62304749384E+03  0.62836184920E+03  0.70549227317E+02 0.  0.
         25    2    1    2    0    0 -0.43641503793E+02  0.15665012461E+03 -0.49977459662E+03  0.54024596223E+03  0.12508880798E+03 0.  0.
         24    2    1    2    0    0  0.52862923332E+02 -0.11679782354E+03  0.19452059057E+03  0.24668543432E+03  0.81112410295E+02 0.  0.
        -13    1    5    5    0    0 -0.63639457368E+01 -0.50816860430E+00  0.56036275608E+02  0.56398778575E+02  0.00000000000E+00 0.  1.
         14    1    5    5    0    0  0.59226869068E+02 -0.11628965494E+03  0.13848431496E+03  0.19028665575E+03  0.00000000000E+00 0. -1.
         13    1    3    3    0    0 -0.10302190877E+02  0.14846153609E+02 -0.31324544421E+03  0.31376623740E+03  0.00000000000E+00 0. -1.
        -14    1    3    3    0    0  0.10807713390E+01 -0.54698454679E+02 -0.30980204963E+03  0.31459561180E+03  0.00000000000E+00 0.  1.
          5    1    4    4  501    0 -0.55316508036E+02  0.15541833372E+03 -0.32004428145E+03  0.36008414157E+03  0.41800000000E+01 0.  1.
         -5    1    4    4    0  501  0.11675004243E+02  0.12317908898E+01 -0.17973031517E+03  0.18016182066E+03  0.41800000000E+01 0.  1.
</event>
<event>
11    1  0.7882745E-009  0.1763697E+03  0.7561462E-02  0.1072618E+00
         22   -1    0    0    0    0  0.00000000000E+00  0.00000000000E+00  0.16643376201E+04  0.16643376201E+04  0.00000000000E+00 0. -1.
         22   -1    0    0    0    0 -0.00000000000E+00 -0.00000000000E+00 -0.32008177865E+03  0.32008177865E+03  0.00000000000E+00 0. -1.
        -24    2    1    2    0    0  0.64552399054E+02 -0.30136435435E+02 -0.28542129442E+03  0.30760646794E+03  0.89895532946E+02 0.  0.
         25    2    1    2    0    0 -0.17610933015E+03  0.28915903619E+02  0.60814449938E+03  0.64601723203E+03  0.12509159165E+03 0.  0.
         24    2    1    2    0    0  0.11155693110E+03  0.12205318155E+01  0.10215326364E+04  0.10307956987E+04  0.81021026000E+02 0.  0.
        -13    1    5    5    0    0  0.69493769092E+02 -0.18517620930E+02  0.33204593626E+03  0.33974518395E+03  0.00000000000E+00 0.  1.
         14    1    5    5    0    0  0.42063162005E+02  0.19738152745E+02  0.68948670019E+03  0.69105051480E+03  0.00000000000E+00 0. -1.
         11    1    3    3    0    0  0.62475501808E+02 -0.21266390060E+02 -0.28999718610E+03  0.29741186193E+03  0.00000000000E+00 0. -1.
        -12    1    3    3    0    0  0.20768972464E+01 -0.88700453743E+01  0.45758916728E+01  0.10194606011E+02  0.00000000000E+00 0.  1.
          5    1    4    4  501    0 -0.58943858166E+02  0.66891775846E+02  0.18693973842E+03  0.20715411242E+03  0.41800000000E+01 0.  1.
         -5    1    4    4    0  501 -0.11716547199E+03 -0.37975872227E+02  0.42120476096E+03  0.43886311961E+03  0.41800000000E+01 0.  1.
</event>
<event>
11    1  0.7882745E-009  0.1630980E+03  0.7561462E-02  0.1084199E+00
         22   -1    0    0    0    0  0.00000000000E+00  0.00000000000E+00  0.65238735409E+03  0.65238735409E+03  0.00000000000E+00 0. -1.
         22   -1    0    0    0    0 -0.00000000000E+00 -0.00000000000E+00 -0.28108909925E+03  0.28108909925E+03  0.00000000000E+00 0.  1.
         24    2    1    2    0    0 -0.65541335202E+02 -0.90687963902E+02 -0.15290691584E+03  0.20541511892E+03  0.79340234128E+02 0.  0.
         25    2    1    2    0    0  0.44928752478E+02  0.76276935921E+02 -0.39177211288E+02  0.15817944993E+03  0.12509644577E+03 0.  0.
        -24    2    1    2    0    0  0.20612582724E+02  0.14411027981E+02  0.56338238197E+03  0.56988188449E+03  0.82055454760E+02 0.  0.
        -11    1    3    3    0    0 -0.51492744957E+02 -0.80568091768E+02 -0.64523154663E+02  0.11535145288E+03  0.00000000000E+00 0.  1.
         12    1    3    3    0    0 -0.14048590245E+02 -0.10119872134E+02 -0.88383761178E+02  0.90063666036E+02  0.00000000000E+00 0. -1.
         11    1    5    5    0    0  0.16570294296E+01 -0.19794946075E+02  0.44004341604E+03  0.44049153640E+03  0.00000000000E+00 0. -1.
        -12    1    5    5    0    0  0.18955553294E+02  0.34205974056E+02  0.12333896593E+03  0.12939034809E+03  0.00000000000E+00 0.  1.
          5    1    4    4  501    0 -0.26487162418E+02  0.51127328643E+02 -0.56082423329E+02  0.80487788599E+02  0.41800000000E+01 0. -1.
         -5    1    4    4    0  501  0.71415914896E+02  0.25149607278E+02  0.16905212042E+02  0.77691661334E+02  0.41800000000E+01 0. -1.
</event>
<event>
11    1  0.7882745E-009  0.1510644E+03  0.7561462E-02  0.1095796E+00
         22   -1    0    0    0    0  0.00000000000E+00  0.00000000000E+00  0.28886981055E+03  0.28886981055E+03  0.00000000000E+00 0.  1.
         22   -1    0    0    0    0 -0.00000000000E+00 -0.00000000000E+00 -0.51966053361E+03  0.51966053361E+03  0.00000000000E+00 0.  1.
         24    2    1    2    0    0 -0.70810840293E+02  0.46836371012E+02 -0.46107015894E+03  0.47575022268E+03  0.80899704359E+02 0.  0.
         25    2    1    2    0    0  0.76338122020E+02 -0.30583012430E+02  0.10661664827E+03  0.18378649829E+03  0.12509011849E+03 0.  0.
        -24    2    1    2    0    0 -0.55272817267E+01 -0.16253358582E+02  0.12366278761E+03  0.14899362319E+03  0.81313542559E+02 0.  0.
        -11    1    3    3    0    0 -0.31480046833E+02 -0.19467755935E+02 -0.20547137833E+03  0.20877852903E+03  0.00000000000E+00 0.  1.
         12    1    3    3    0    0 -0.39330793461E+02  0.66304126947E+02 -0.25559878060E+03  0.26697169365E+03  0.00000000000E+00 0. -1.
         13    1    5    5    0    0 -0.29922683686E+02 -0.17541563480E+02  0.15297669582E+02  0.37908998179E+02  0.00000000000E+00 0. -1.
        -14    1    5    5    0    0  0.24395401959E+02  0.12882048981E+01  0.10836511803E+03  0.11108462501E+03  0.00000000000E+00 0.  1.
          5    1    4    4  501    0  0.39533309367E+02 -0.70452005457E+02  0.23142186719E+02  0.84139175350E+02  0.41800000000E+01 0. -1.
         -5    1    4    4    0  501  0.36804812653E+02  0.39868993027E+02  0.83474461547E+02  0.99647322944E+02  0.41800000000E+01 0. -1.
</event>
<event>
11    1  0.7882745E-009  0.1562884E+03  0.7561462E-02  0.1090621E+00
         22   -1    0    0    0    0  0.00000000000E+00  0.00000000000E+00  0.16755335796E+03  0.16755335796E+03  0.00000000000E+00 0. -1.
         22   -1    0    0    0    0 -0.00000000000E+00 -0.00000000000E+00 -0.83276734534E+03  0.83276734534E+03  0.00000000000E+00 0. -1.
        -24    2    1    2    0    0 -0.56713638951E+02 -0.73647640824E+02 -0.59230499557E+03  0.60493144705E+03  0.80476307186E+02 0.  0.
         25    2    1    2    0    0  0.11588857062E+03  0.28659852658E+02 -0.17447679815E+03  0.24564405619E+03  0.12508917337E+03 0.  0.
         24    2    1    2    0    0 -0.59174931671E+02  0.44987788166E+02  0.10156780634E+03  0.14974520006E+03  0.81129723493E+02 0.  0.
        -11    1    5    5    0    0 -0.13358566990E+02 -0.23677004082E+02  0.30095132233E+02  0.40555749511E+02  0.00000000000E+00 0.  1.
         12    1    5    5    0    0 -0.45816364681E+02  0.68664792249E+02  0.71472674103E+02  0.10918945055E+03  0.00000000000E+00 0. -1.
         11    1    3    3    0    0 -0.10143344716E+02 -0.72571458902E+02 -0.42462173504E+03  0.43089804126E+03  0.00000000000E+00 0. -1.
        -12    1    3    3    0    0 -0.46570294236E+02 -0.10761819226E+01 -0.16768326052E+03  0.17403340580E+03  0.00000000000E+00 0.  1.
          5    1    4    4  501    0  0.14176164068E+03  0.28378264870E+02 -0.13247112299E+03  0.19613199512E+03  0.41800000000E+01 0.  1.
         -5    1    4    4    0  501 -0.25873070054E+02  0.28158778807E+00 -0.42005675156E+02  0.49512061066E+02  0.41800000000E+01 0.  1.
</event>
<event>
11    1  0.7882745E-009  0.1330476E+03  0.7561462E-02  0.1115580E+00
         22   -1    0    0    0    0  0.00000000000E+00  0.00000000000E+00  0.23061323525E+04  0.23061323525E+04  0.00000000000E+00 0. -1.
         22   -1    0    0    0    0 -0.00000000000E+00 -0.00000000000E+00 -0.97333623903E+02  0.97333623903E+02  0.00000000000E+00 0.  1.
         24    2    1    2    0    0  0.39990928509E+02  0.24337355389E+02 -0.62225878295E+02  0.11351030216E+03  0.82589027949E+02 0.  0.
         25    2    1    2    0    0  0.28515913271E+01 -0.34607519141E+02  0.49984220377E+03  0.51642448214E+03  0.12508479173E+03 0.  0.
        -24    2    1    2    0    0 -0.42842519836E+02  0.10270163752E+02  0.17711824031E+04  0.17735311921E+04  0.79905109196E+02 0.  0.
        -11    1    3    3    0    0  0.12639935162E+02  0.46061264437E+02 -0.62398823419E+02  0.78581303161E+02  0.00000000000E+00 0.  1.
         12    1    3    3    0    0  0.27350993347E+02 -0.21723909048E+02  0.17294512345E+00  0.34928999004E+02  0.00000000000E+00 0. -1.
         13    1    5    5    0    0  0.46507726867E+01 -0.18269306161E+02  0.10689465201E+04  0.10691127443E+04  0.00000000000E+00 0. -1.
        -14    1    5    5    0    0 -0.47493292523E+02  0.28539469914E+02  0.70223588302E+03  0.70441844779E+03  0.00000000000E+00 0.  1.
          5    1    4    4  501    0  0.28273926905E+02  0.39523894472E+02  0.24352512110E+03  0.24836165200E+03  0.41800000000E+01 0. -1.
         -5    1    4    4    0  501 -0.25422335578E+02 -0.74131413613E+02  0.25631708267E+03  0.26806283014E+03  0.41800000000E+01 0. -1.
</event>
<event>
11    1  0.7882745E-009  0.1772570E+03  0.7561462E-02  0.1071883E+00
         22   -1    0    0    0    0  0.00000000000E+00  0.00000000000E+00  0.59271786385E+03  0.59271786385E+03  0.00000000000E+00 0.  1.
         22   -1    0    0    0    0 -0.00000000000E+00 -0.00000000000E+00 -0.11425288077E+03  0.11425288077E+03  0.00000000000E+00 0.  1.
         24    2    1    2    0    0  0.34101450366E+02  0.25282629506E+02 -0.26618900991E+02  0.10348198890E+03  0.90541901155E+02 0.  0.
         25    2    1    2    0    0  0.10803156424E+03 -0.72329258883E+01  0.24702076493E+03  0.29730547523E+03  0.12509257856E+03 0.  0.
        -24    2    1    2    0    0 -0.14213301460E+03 -0.18049703618E+02  0.25806311914E+03  0.30618328049E+03  0.81388218743E+02 0.  0.
        -11    1    3    3    0    0  0.33235804268E+02 -0.80449281658E+01 -0.51544123331E+02  0.61855769371E+02  0.00000000000E+00 0.  1.
         12    1    3    3    0    0  0.86564609832E+00  0.33327557672E+02  0.24925222340E+02  0.41626219528E+02  0.00000000000E+00 0. -1.
         13    1    5    5    0    0 -0.52456339796E+02 -0.35476025392E+02  0.56431202474E+02  0.84821557254E+02  0.00000000000E+00 0. -1.
        -14    1    5    5    0    0 -0.89676674808E+02  0.17426321775E+02  0.20163191667E+03  0.22136172324E+03  0.00000000000E+00 0.  1.
          5    1    4    4  501    0  0.11089035237E+03  0.30522169087E+02  0.12702857155E+03  0.17141179494E+03  0.41800000000E+01 0.  1.
         -5    1    4    4    0  501 -0.28587881323E+01 -0.37755094975E+02  0.11999219338E+03  0.12589368029E+03  0.41800000000E+01 0.  1.
</event>
<event>
11    1  0.7882745E-009  0.1854771E+03  0.7561462E-02  0.1065297E+00
         22   -1    0    0    0    0  0.00000000000E+00  0.00000000000E+00  0.33690114309E+03  0.33690114309E+03  0.00000000000E+00 0.  1.
         22   -1    0    0    0    0 -0.00000000000E+00 -0.00000000000E+00 -0.17466185113E+04  0.17466185113E+04  0.00000000000E+00 0.  1.
         24    2    1    2    0    0 -0.79629631512E+02 -0.11316014623E+03 -0.16456678838E+04  0.16533688401E+04  0.79117889679E+02 0.  0.
         25    2    1    2    0    0  0.43854334970E+02  0.10129983710E+03 -0.11503659016E+02  0.16722643673E+03  0.12508991678E+03 0.  0.
        -24    2    1    2    0    0  0.35775296543E+02  0.11860309134E+02  0.24745417464E+03  0.26292437761E+03  0.80468136658E+02 0.  0.
        -11    1    3    3    0    0 -0.96384924282E+01 -0.82046260691E+02 -0.81394792481E+03  0.81812939914E+03  0.00000000000E+00 0.  1.
         12    1    3    3    0    0 -0.69991139084E+02 -0.31113885541E+02 -0.83171995902E+03  0.83523944092E+03  0.00000000000E+00 0. -1.
         11    1    5    5    0    0  0.59448197764E+02  0.42114115296E+01  0.13215220889E+03  0.14496906745E+03  0.00000000000E+00 0. -1.
        -12    1    5    5    0    0 -0.23672901221E+02  0.76488976044E+01  0.11530196575E+03  0.11795531015E+03  0.00000000000E+00 0.  1.
          5    1    4    4  501    0  0.82670004016E+02  0.67470409556E+02  0.17143084261E+02  0.10815703152E+03  0.41800000000E+01 0.  1.
         -5    1    4    4    0  501 -0.38815669046E+02  0.33829427541E+02 -0.28646743277E+02  0.59069405208E+02  0.41800000000E+01 0.  1.
</event>
<event>
11    1  0.7882745E-009  0.1301148E+03  0.7561462E-02  0.1119128E+00
         22   -1    0    0    0    0  0.00000000000E+00  0.00000000000E+00  0.10929809152E+04  0.10929809152E+04  0.00000000000E+00 0.  1.
         22   -1    0    0    0    0 -0.00000000000E+00 -0.00000000000E+00 -0.91460220973E+02  0.91460220973E+02  0.00000000000E+00 0.  1.
         24    2    1    2    0    0  0.31292967243E+02  0.16077822988E+02  0.22139155562E+02  0.90390970199E+02  0.80266051937E+02 0.  0.
         25    2    1    2    0    0 -0.39733155490E+02  0.27169852009E+01  0.22153555633E+02  0.13313922713E+03  0.12509663512E+03 0.  0.
        -24    2    1    2    0    0  0.84401882477E+01 -0.18794808188E+02  0.95722798304E+03  0.96091093886E+03  0.81485822739E+02 0.  0.
        -11    1    3    3    0    0 -0.16937177587E+01 -0.36833778673E+01 -0.27389315810E+02  0.27687733257E+02  0.00000000000E+00 0.  1.
         12    1    3    3    0    0  0.32986685001E+02  0.19761200855E+02  0.49528471372E+02  0.62703236942E+02  0.00000000000E+00 0. -1.
         13    1    5    5    0    0  0.42059337400E+02 -0.24515965567E+02  0.47861393722E+03  0.48108348686E+03  0.00000000000E+00 0. -1.
        -14    1    5    5    0    0 -0.33619149153E+02  0.57211573788E+01  0.47861404583E+03  0.47982745200E+03  0.00000000000E+00 0.  1.
          5    1    4    4  501    0  0.43223702569E+02  0.96779160024E+01  0.22342726946E+02  0.49785744640E+02  0.41800000000E+01 0. -1.
         -5    1    4    4    0  501 -0.82956858059E+02 -0.69609308016E+01 -0.18917131330E+00  0.83353482486E+02  0.41800000000E+01 0. -1.
</event>
<event>
11    1  0.7882745E-009  0.2141660E+03  0.7561462E-02  0.1044935E+00
         22   -1    0    0    0    0  0.00000000000E+00  0.00000000000E+00  0.26673264234E+04  0.26673264234E+04  0.00000000000E+00 0. -1.
         22   -1    0    0    0    0 -0.00000000000E+00 -0.00000000000E+00 -0.13892898398E+04  0.13892898398E+04  0.00000000000E+00 0. -1.
         24    2    1    2    0    0 -0.14388486665E+02  0.35588257110E+02 -0.11898408619E+04  0.11943578975E+04  0.96415548943E+02 0.  0.
         25    2    1    2    0    0  0.11281648348E+03 -0.17807008128E+03 -0.11613413460E+03  0.27123900470E+03  0.12508775983E+03 0.  0.
        -24    2    1    2    0    0 -0.98427996818E+02  0.14248182417E+03  0.25840115801E+04  0.25910193610E+04  0.79223369297E+02 0.  0.
        -11    1    3    3    0    0 -0.63991476229E+01  0.59019890158E+01 -0.71436144385E+01  0.11261162990E+02  0.00000000000E+00 0.  1.
         12    1    3    3    0    0 -0.79893390420E+01  0.29686268094E+02 -0.11826972475E+04  0.11830967346E+04  0.00000000000E+00 0. -1.
         11    1    5    5    0    0 -0.85797531890E+02  0.54708811163E+02  0.13749128805E+04  0.13786731663E+04  0.00000000000E+00 0. -1.
        -12    1    5    5    0    0 -0.12630464928E+02  0.87773013007E+02  0.12090986996E+04  0.12123461947E+04  0.00000000000E+00 0.  1.
          5    1    4    4  501    0  0.52035161604E+02 -0.16593347655E+03 -0.11606407823E+03  0.20911699917E+03  0.41800000000E+01 0. -1.
         -5    1    4    4    0  501  0.60781321879E+02 -0.12136604727E+02 -0.70056367929E-01  0.62122005534E+02  0.41800000000E+01 0. -1.
</event>
<event>
11    1  0.7882745E-009  0.1646786E+03  0.7561462E-02  0.1082758E+00
         22   -1    0    0    0    0  0.00000000000E+00  0.00000000000E+00  0.24696065317E+03  0.24696065317E+03  0.00000000000E+00 0.  1.
         22   -1    0    0    0    0 -0.00000000000E+00 -0.00000000000E+00 -0.13552450235E+04  0.13552450235E+04  0.00000000000E+00 0. -1.
         24    2    1    2    0    0 -0.46147934988E+02  0.95824374417E+02 -0.11894470052E+04  0.11969749615E+04  0.81565543244E+02 0.  0.
         25    2    1    2    0    0 -0.72056929952E+01 -0.13349402858E+03 -0.90685332745E+02  0.20431454287E+03  0.12509206679E+03 0.  0.
        -24    2    1    2    0    0  0.53353627984E+02  0.37669654162E+02  0.17184796758E+03  0.20091617226E+03  0.81055362871E+02 0.  0.
        -13    1    3    3    0    0 -0.12540294898E+02  0.20033960668E+02 -0.59973693491E+02  0.64462876814E+02  0.00000000000E+00 0.  1.
         14    1    3    3    0    0 -0.33607640091E+02  0.75790413750E+02 -0.11294733117E+04  0.11325120847E+04  0.00000000000E+00 0. -1.
         11    1    5    5    0    0 -0.12878494489E+02 -0.11891071111E+02  0.13012977919E+02  0.21830959364E+02  0.00000000000E+00 0. -1.
        -12    1    5    5    0    0  0.66232122472E+02  0.49560725273E+02  0.15883498966E+03  0.17908521289E+03  0.00000000000E+00 0.  1.
          5    1    4    4  501    0 -0.46979033515E+02 -0.23163330293E+02  0.51535377302E+01  0.52797734908E+02  0.41800000000E+01 0.  1.
         -5    1    4    4    0  501  0.39773340520E+02 -0.11033069829E+03 -0.95838870475E+02  0.15151680796E+03  0.41800000000E+01 0.  1.
</event>
<event>
11    1  0.7882745E-009  0.1522379E+03  0.7561462E-02  0.1094614E+00
         22   -1    0    0    0    0  0.00000000000E+00  0.00000000000E+00  0.71281628466E+03  0.71281628466E+03  0.00000000000E+00 0.  1.
         22   -1    0    0    0    0 -0.00000000000E+00 -0.00000000000E+00 -0.42638942724E+03  0.42638942724E+03  0.00000000000E+00 0.  1.
         24    2    1    2    0    0  0.63460732601E+02  0.17534233840E+02 -0.34902896080E+03  0.36595923526E+03  0.88148922023E+02 0.  0.
         25    2    1    2    0    0 -0.12873984757E+03 -0.66193370717E+02  0.82445381255E+02  0.20833875502E+03  0.12510909348E+03 0.  0.
        -24    2    1    2    0    0  0.65279114970E+02  0.48659136878E+02  0.55301043696E+03  0.56490772162E+03  0.81676900683E+02 0.  0.
        -13    1    3    3    0    0  0.52640959017E+02  0.15670375543E+02 -0.35059313038E+03  0.35486923550E+03  0.00000000000E+00 0.  1.
         14    1    3    3    0    0  0.10819773584E+02  0.18638582966E+01  0.15641695771E+01  0.11089999758E+02  0.00000000000E+00 0. -1.
         11    1    5    5    0    0  0.15164563897E+02  0.58265185566E+02  0.22338512400E+03  0.23135623932E+03  0.00000000000E+00 0. -1.
        -12    1    5    5    0    0  0.50114551074E+02 -0.96060486888E+01  0.32962531296E+03  0.33355148230E+03  0.00000000000E+00 0.  1.
          5    1    4    4  501    0 -0.10020853841E+03 -0.98900819777E+02  0.85248913836E+02  0.16464499091E+03  0.41800000000E+01 0.  1.
         -5    1    4    4    0  501 -0.28531309165E+02  0.32707449060E+02 -0.28035325809E+01  0.43693764105E+02  0.41800000000E+01 0.  1.
</event>
<event>
11    1  0.7882745E-009  0.2358102E+03  0.7561462E-02  0.1031742E+00
         22   -1    0    0    0    0  0.00000000000E+00  0.00000000000E+00  0.75132020785E+03  0.75132020785E+03  0.00000000000E+00 0. -1.
         22   -1    0    0    0    0 -0.00000000000E+00 -0.00000000000E+00 -0.32487191837E+03  0.32487191837E+03  0.00000000000E+00 0.  1.
         24    2    1    2    0    0 -0.60210568952E+02 -0.13916918387E+02 -0.21951760027E+03  0.24173642757E+03  0.80184352309E+02 0.  0.
         25    2    1    2    0    0  0.13605467656E+03 -0.16797496724E+03  0.14130056341E+03  0.28694821051E+03  0.12508781581E+03 0.  0.
        -24    2    1    2    0    0 -0.75844107611E+02  0.18189188562E+03  0.50466532635E+03  0.54750748813E+03  0.78996020317E+02 0.  0.
        -13    1    3    3    0    0 -0.60511476300E+01 -0.12740870103E+02 -0.16241381144E+03  0.16302512784E+03  0.00000000000E+00 0.  1.
         14    1    3    3    0    0 -0.54159421322E+02 -0.11760482844E+01 -0.57103788830E+02  0.78711299736E+02  0.00000000000E+00 0. -1.
         13    1    5    5    0    0 -0.59545008440E+02  0.12311527525E+03  0.42927485459E+03  0.45053288427E+03  0.00000000000E+00 0. -1.
        -14    1    5    5    0    0 -0.16299099171E+02  0.58776610377E+02  0.75390471760E+02  0.96974603858E+02  0.00000000000E+00 0.  1.
          5    1    4    4  501    0  0.90156829362E+02 -0.76901815987E+02  0.77058197400E+01  0.11882337834E+03  0.41800000000E+01 0.  1.
         -5    1    4    4    0  501  0.45897847201E+02 -0.91073151250E+02  0.13359474367E+03  0.16812483217E+03  0.41800000000E+01 0.  1.
</event>
<event>
11    1  0.7882745E-009  0.2010027E+03  0.7561462E-02  0.1053817E+00
         22   -1    0    0    0    0  0.00000000000E+00  0.00000000000E+00  0.73364209283E+03  0.73364209283E+03  0.00000000000E+00 0. -1.
         22   -1    0    0    0    0 -0.00000000000E+00 -0.00000000000E+00 -0.25709625789E+03  0.25709625789E+03  0.00000000000E+00 0.  1.
         24    2    1    2    0    0  0.74972442896E+02 -0.20657068977E+03  0.25190620752E+02  0.23467759253E+03  0.78400816294E+02 0.  0.
         25    2    1    2    0    0 -0.15153035161E+03  0.34461581125E+02 -0.57374493358E+02  0.20757390292E+03  0.12508415027E+03 0.  0.
        -24    2    1    2    0    0  0.76557908718E+02  0.17210910865E+03  0.50872970754E+03  0.54848685527E+03  0.80927476227E+02 0.  0.
        -13    1    3    3    0    0  0.89516102181E+02 -0.19554551733E+03  0.22620568853E+02  0.21624724746E+03  0.00000000000E+00 0.  1.
         14    1    3    3    0    0 -0.14543659285E+02 -0.11025172441E+02  0.25700518991E+01  0.18430345073E+02  0.00000000000E+00 0. -1.
         13    1    5    5    0    0  0.59012202275E+02  0.12304000323E+03  0.25253225854E+03  0.28704324416E+03  0.00000000000E+00 0. -1.
        -14    1    5    5    0    0  0.17545706443E+02  0.49069105419E+02  0.25619744899E+03  0.26144361111E+03  0.00000000000E+00 0.  1.
          5    1    4    4  501    0 -0.10596674736E+02 -0.13684851165E+02 -0.55804419573E+02  0.58576192355E+02  0.41800000000E+01 0. -1.
         -5    1    4    4    0  501 -0.14093367688E+03  0.48146432290E+02 -0.15700737853E+01  0.14899771056E+03  0.41800000000E+01 0. -1.
</event>
<event>
11    1  0.7882745E-009  0.1333354E+03  0.7561462E-02  0.1115237E+00
         22   -1    0    0    0    0  0.00000000000E+00  0.00000000000E+00  0.17262766023E+04  0.17262766023E+04  0.00000000000E+00 0. -1.
         22   -1    0    0    0    0 -0.00000000000E+00 -0.00000000000E+00 -0.10293945872E+03  0.10293945872E+03  0.00000000000E+00 0. -1.
         24    2    1    2    0    0 -0.43335669900E+02 -0.34966099300E+01 -0.51184717204E+02  0.10254636696E+03  0.77496293687E+02 0.  0.
         25    2    1    2    0    0  0.35669065878E+02  0.49158718126E+02  0.17177493380E+03  0.22100544533E+03  0.12509163504E+03 0.  0.
        -24    2    1    2    0    0  0.76666040227E+01 -0.45662108196E+02  0.15027469270E+04  0.15056642488E+04  0.81441380167E+02 0.  0.
        -13    1    3    3    0    0  0.17109977026E+02  0.71372699116E+01  0.51464087787E+01  0.19239996334E+02  0.00000000000E+00 0.  1.
         14    1    3    3    0    0 -0.60445646926E+02 -0.10633879842E+02 -0.56331125983E+02  0.83306370628E+02  0.00000000000E+00 0. -1.
         11    1    5    5    0    0  0.10983999459E+02 -0.67450569520E+02  0.12819025930E+04  0.12837229006E+04  0.00000000000E+00 0. -1.
        -12    1    5    5    0    0 -0.33173954358E+01  0.21788461324E+02  0.22084433403E+03  0.22194134818E+03  0.00000000000E+00 0.  1.
          5    1    4    4  501    0  0.31072350598E+02  0.36584936937E+02  0.19112650067E+03  0.19710596196E+03  0.41800000000E+01 0.  1.
         -5    1    4    4    0  501  0.45967152797E+01  0.12573781189E+02 -0.19351566875E+02  0.23899483368E+02  0.41800000000E+01 0.  1.
</event>
<event>
11    1  0.7882745E-009  0.2118273E+03  0.7561462E-02  0.1046461E+00
         22   -1    0    0    0    0  0.00000000000E+00  0.00000000000E+00  0.17127858578E+04  0.17127858578E+04  0.00000000000E+00 0. -1.
         22   -1    0    0    0    0 -0.00000000000E+00 -0.00000000000E+00 -0.14243286587E+03  0.14243286587E+03  0.00000000000E+00 0. -1.
         24    2    1    2    0    0 -0.49130445724E+02 -0.16004092805E+03 -0.42495837395E+02  0.19167422984E+03  0.83103639158E+02 0.  0.
         25    2    1    2    0    0  0.18445037568E+02  0.20533075568E+03  0.63811120641E+03  0.68215418080E+03  0.12508987168E+03 0.  0.
        -24    2    1    2    0    0  0.30685408156E+02 -0.45289827629E+02  0.97473762289E+03  0.98139031300E+03  0.10010369732E+03 0.  0.
        -11    1    3    3    0    0 -0.41625236704E+02 -0.21102616538E+02 -0.19796210103E+02  0.50693892037E+02  0.00000000000E+00 0.  1.
         12    1    3    3    0    0 -0.75052090200E+01 -0.13893831151E+03 -0.22699627291E+02  0.14098033781E+03  0.00000000000E+00 0. -1.
         13    1    5    5    0    0  0.67044252513E+02 -0.36117657694E+02  0.69171478214E+03  0.69589421382E+03  0.00000000000E+00 0. -1.
        -14    1    5    5    0    0 -0.36358844356E+02 -0.91721699354E+01  0.28302284075E+03  0.28549609918E+03  0.00000000000E+00 0.  1.
          5    1    4    4  501    0 -0.44771810559E+02  0.14300591931E+03  0.35298297210E+03  0.38349662185E+03  0.41800000000E+01 0. -1.
         -5    1    4    4    0  501  0.63216848128E+02  0.62324836368E+02  0.28512823431E+03  0.29865755895E+03  0.41800000000E+01 0. -1.
</event>
<event>
11    1  0.7882745E-009  0.1490762E+03  0.7561462E-02  0.1097826E+00
         22   -1    0    0    0    0  0.00000000000E+00  0.00000000000E+00  0.17737662704E+04  0.17737662704E+04  0.00000000000E+00 0. -1.
         22   -1    0    0    0    0 -0.00000000000E+00 -0.00000000000E+00 -0.20872594544E+03  0.20872594544E+03  0.00000000000E+00 0.  1.
         24    2    1    2    0    0  0.14284003749E+01 -0.20527414758E+02 -0.17477875367E+03  0.19345921856E+03  0.80345761729E+02 0.  0.
         25    2    1    2    0    0  0.79766773940E+02  0.20997537434E+02  0.22767634715E+03  0.27255539526E+03  0.12508512953E+03 0.  0.
        -24    2    1    2    0    0 -0.81195174315E+02 -0.47012267594E+00  0.15121427315E+04  0.15164776020E+04  0.80844293201E+02 0.  0.
        -11    1    3    3    0    0 -0.39160737264E+02 -0.50557232849E+01 -0.85077434908E+02  0.93793888989E+02  0.00000000000E+00 0.  1.
         12    1    3    3    0    0  0.40589137639E+02 -0.15471691473E+02 -0.89701318759E+02  0.99665329571E+02  0.00000000000E+00 0. -1.
         11    1    5    5    0    0 -0.56514039111E+02 -0.11117263788E+02  0.13990227223E+04  0.14002078445E+04  0.00000000000E+00 0. -1.
        -12    1    5    5    0    0 -0.24681135204E+02  0.10647141112E+02  0.11312000917E+03  0.11626975756E+03  0.00000000000E+00 0.  1.
          5    1    4    4  501    0  0.45731201756E+00  0.10479665303E+02 -0.13977155584E+02  0.17968466750E+02  0.41800000000E+01 0. -1.
         -5    1    4    4    0  501  0.79309461923E+02  0.10517872131E+02  0.24165350274E+03  0.25458692851E+03  0.41800000000E+01 0. -1.
</event>
<event>
11    1  0.7882745E-009  0.1505120E+03  0.7561462E-02  0.1096357E+00
         22   -1    0    0    0    0  0.00000000000E+00  0.00000000000E+00  0.30107323232E+03  0.30107323232E+03  0.00000000000E+00 0.  1.
         22   -1    0    0    0    0 -0.00000000000E+00 -0.00000000000E+00 -0.56528027899E+03  0.56528027899E+03  0.00000000000E+00 0. -1.
         24    2    1    2    0    0  0.30635347363E+02  0.33527130879E+02 -0.25330033949E+03  0.26884147246E+03  0.77795130393E+02 0.  0.
         25    2    1    2    0    0 -0.12156898499E+02 -0.11416054570E+03 -0.26828048242E+03  0.31749575863E+03  0.12509484052E+03 0.  0.
        -24    2    1    2    0    0 -0.18478448864E+02  0.80633414825E+02  0.25737377524E+03  0.28001628023E+03  0.72970242932E+02 0.  0.
        -11    1    3    3    0    0  0.51646050780E+02  0.11888396695E+02 -0.10629593669E+03  0.11877489084E+03  0.00000000000E+00 0.  1.
         12    1    3    3    0    0 -0.21010703417E+02  0.21638734185E+02 -0.14700440280E+03  0.15006658161E+03  0.00000000000E+00 0. -1.
         13    1    5    5    0    0  0.96371602319E+00  0.24170890731E+02  0.11116712295E+02  0.26622208766E+02  0.00000000000E+00 0. -1.
        -14    1    5    5    0    0 -0.19442164887E+02  0.56462524093E+02  0.24625706295E+03  0.25339407146E+03  0.00000000000E+00 0.  1.
          5    1    4    4  501    0 -0.33702264178E+02 -0.79103788142E+02 -0.26185140628E+03  0.27563904527E+03  0.41800000000E+01 0. -1.
         -5    1    4    4    0  501  0.21545365679E+02 -0.35056757562E+02 -0.64290761392E+01  0.41856713357E+02  0.41800000000E+01 0. -1.
</event>
<event>
11    1  0.7882745E-009  0.1858490E+03  0.7561462E-02  0.1065008E+00
         22   -1    0    0    0    0  0.00000000000E+00  0.00000000000E+00  0.66252141712E+03  0.66252141712E+03  0.00000000000E+00 0. -1.
         22   -1    0    0    0    0 -0.00000000000E+00 -0.00000000000E+00 -0.17690783305E+04  0.17690783305E+04  0.00000000000E+00 0.  1.
        -24    2    1    2    0    0  0.58590706656E+02  0.43078795876E+02 -0.16430967285E+04  0.16466126576E+04  0.79232138086E+02 0.  0.
         25    2    1    2    0    0  0.29232491271E+02 -0.14909513463E+03 -0.27675313265E+02  0.19874180104E+03  0.12509389594E+03 0.  0.
         24    2    1    2    0    0 -0.87823197926E+02  0.10601633875E+03  0.56421512833E+03  0.58624528895E+03  0.79952796072E+02 0.  0.
        -11    1    5    5    0    0 -0.12150103986E+01 -0.10397383789E+02  0.15746625130E+02  0.18908676392E+02  0.00000000000E+00 0.  1.
         12    1    5    5    0    0 -0.86608187527E+02  0.11641372254E+03  0.54846850320E+03  0.56733661255E+03  0.00000000000E+00 0. -1.
         11    1    3    3    0    0  0.11905871553E+01  0.46014389432E+02 -0.51507642696E+03  0.51712906237E+03  0.00000000000E+00 0. -1.
        -12    1    3    3    0    0  0.57400119500E+02 -0.29355935555E+01 -0.11280203015E+04  0.11294835953E+04  0.00000000000E+00 0.  1.
          5    1    4    4  501    0  0.47396423277E+02 -0.14017286528E+03 -0.60532704183E+02  0.15992665123E+03  0.41800000000E+01 0.  1.
         -5    1    4    4    0  501 -0.18163932006E+02 -0.89222693486E+01  0.32857390918E+02  0.38815149803E+02  0.41800000000E+01 0.  1.
</event>
<event>
11    1  0.7882745E-009  0.3095066E+03  0.7561462E-02  0.9962462E-01
         22   -1    0    0    0    0  0.00000000000E+00  0.00000000000E+00  0.11143608625E+04  0.11143608625E+04  0.00000000000E+00 0. -1.
         22   -1    0    0    0    0 -0.00000000000E+00 -0.00000000000E+00 -0.86200473681E+03  0.86200473681E+03  0.00000000000E+00 0. -1.
         24    2    1    2    0    0  0.18716738031E+03 -0.21546036872E+03 -0.76713282311E+03  0.82222948221E+03  0.78190500631E+02 0.  0.
         25    2    1    2    0    0 -0.18873612538E+03  0.17577663639E+03  0.25270792020E+03  0.38213643409E+03  0.12509280719E+03 0.  0.
        -24    2    1    2    0    0  0.15687450670E+01  0.39683732330E+02  0.76678102863E+03  0.77199968302E+03  0.80331221484E+02 0.  0.
        -11    1    3    3    0    0  0.33012695446E+02 -0.74368545964E+02 -0.29296178087E+03  0.30405118606E+03  0.00000000000E+00 0.  1.
         12    1    3    3    0    0  0.15415468487E+03 -0.14109182275E+03 -0.47417104224E+03  0.51817829616E+03  0.00000000000E+00 0. -1.
         13    1    5    5    0    0  0.33012323986E+02  0.35554476368E+02  0.61664648929E+03  0.61855220238E+03  0.00000000000E+00 0. -1.
        -14    1    5    5    0    0 -0.31443578919E+02  0.41292559622E+01  0.15013453935E+03  0.15344748064E+03  0.00000000000E+00 0.  1.
          5    1    4    4  501    0 -0.87331090805E+02  0.16090053737E+03  0.14681143918E+03  0.23470571663E+03  0.41800000000E+01 0.  1.
         -5    1    4    4    0  501 -0.10140503457E+03  0.14876099017E+02  0.10589648102E+03  0.14743071746E+03  0.41800000000E+01 0.  1.
</event>
<event>
11    1  0.7882745E-009  0.1492426E+03  0.7561462E-02  0.1097655E+00
         22   -1    0    0    0    0  0.00000000000E+00  0.00000000000E+00  0.12130123765E+04  0.12130123765E+04  0.00000000000E+00 0.  1.
         22   -1    0    0    0    0 -0.00000000000E+00 -0.00000000000E+00 -0.79059058662E+02  0.79059058662E+02  0.00000000000E+00 0.  1.
         24    2    1    2    0    0  0.11549848909E+02 -0.96192212134E+01 -0.25574367445E+02  0.88125952220E+02  0.82983171534E+02 0.  0.
         25    2    1    2    0    0  0.57322864067E+02  0.54351419145E+02  0.27862612095E+03  0.31546702639E+03  0.12508773703E+03 0.  0.
        -24    2    1    2    0    0 -0.68872712976E+02 -0.44732197931E+02  0.88090156432E+03  0.88847845654E+03  0.81620962910E+02 0.  0.
        -11    1    3    3    0    0  0.31935931232E+02  0.12321966046E+02 -0.41828426364E+02  0.54049531015E+02  0.00000000000E+00 0.  1.
         12    1    3    3    0    0 -0.20386082323E+02 -0.21941187259E+02  0.16254058919E+02  0.34076421205E+02  0.00000000000E+00 0. -1.
         13    1    5    5    0    0 -0.92108912441E+00  0.20985337154E+02  0.13886873914E+03  0.14044842288E+03  0.00000000000E+00 0. -1.
        -14    1    5    5    0    0 -0.67951623851E+02 -0.65717535086E+02  0.74203282518E+03  0.74803003366E+03  0.00000000000E+00 0.  1.
          5    1    4    4  501    0  0.37733065254E+02 -0.37634088934E+02  0.90743335348E+02  0.10531825185E+03  0.41800000000E+01 0. -1.
         -5    1    4    4    0  501  0.19589798814E+02  0.91985508079E+02  0.18788278561E+03  0.21014877454E+03  0.41800000000E+01 0. -1.
</event>
<event>
11    1  0.7882745E-009  0.1418088E+03  0.7561462E-02  0.1105555E+00
         22   -1    0    0    0    0  0.00000000000E+00  0.00000000000E+00  0.16882151317E+03  0.16882151317E+03  0.00000000000E+00 0.  1.
         22   -1    0    0    0    0 -0.00000000000E+00 -0.00000000000E+00 -0.39542195973E+04  0.39542195973E+04  0.00000000000E+00 0. -1.
        -24    2    1    2    0    0  0.12085359528E+02 -0.52565419484E+02 -0.38053738853E+04  0.38066288403E+04  0.81507925591E+02 0.  0.
         25    2    1    2    0    0  0.42418423086E+02  0.85767549864E+02 -0.76931662790E+02  0.17527567187E+03  0.12509070782E+03 0.  0.
         24    2    1    2    0    0 -0.54503782613E+02 -0.33202130380E+02  0.96907463930E+02  0.14113659830E+03  0.80345746825E+02 0.  0.
        -11    1    5    5    0    0 -0.68654043848E+02 -0.11052222186E+02  0.44642367973E+02  0.82634559176E+02  0.00000000000E+00 0.  1.
         12    1    5    5    0    0  0.14150261235E+02 -0.22149908194E+02  0.52265095957E+02  0.58502039122E+02  0.00000000000E+00 0. -1.
         11    1    3    3    0    0 -0.28983549461E+02 -0.38001204807E+02 -0.26547175088E+04  0.26551476775E+04  0.00000000000E+00 0. -1.
        -12    1    3    3    0    0  0.41068908988E+02 -0.14564214677E+02 -0.11506563765E+04  0.11514811628E+04  0.00000000000E+00 0.  1.
          5    1    4    4  501    0 -0.26318286938E+02 -0.11617638202E+02 -0.41839320260E+02  0.50947255712E+02  0.41800000000E+01 0. -1.
         -5    1    4    4    0  501  0.68736710024E+02  0.97385188066E+02 -0.35092342530E+02  0.12432841616E+03  0.41800000000E+01 0. -1.
</event>
<event>
11    1  0.7882745E-009  0.2169999E+03  0.7561462E-02  0.1043113E+00
         22   -1    0    0    0    0  0.00000000000E+00  0.00000000000E+00  0.90490368689E+03  0.90490368689E+03  0.00000000000E+00 0.  1.
         22   -1    0    0    0    0 -0.00000000000E+00 -0.00000000000E+00 -0.73985008036E+03  0.73985008036E+03  0.00000000000E+00 0.  1.
         24    2    1    2    0    0  0.13442367688E+03  0.36111831396E+02 -0.61214349376E+03  0.63350511100E+03  0.85060445839E+02 0.  0.
         25    2    1    2    0    0 -0.21153271027E+03 -0.18380269830E+03  0.12185547577E+03  0.33018926870E+03  0.12508667706E+03 0.  0.
        -24    2    1    2    0    0  0.77109033391E+02  0.14769086690E+03  0.65534162452E+03  0.68105938754E+03  0.81307129637E+02 0.  0.
        -13    1    3    3    0    0  0.56003453749E+02  0.58289108372E+02 -0.33604652612E+03  0.34563170385E+03  0.00000000000E+00 0.  1.
         14    1    3    3    0    0  0.78420223131E+02 -0.22177276976E+02 -0.27609696763E+03  0.28787340715E+03  0.00000000000E+00 0. -1.
         13    1    5    5    0    0  0.37505395539E+02  0.56526949450E+01  0.13598124695E+03  0.14117190647E+03  0.00000000000E+00 0. -1.
        -14    1    5    5    0    0  0.39603637852E+02  0.14203817196E+03  0.51936037757E+03  0.53988748107E+03  0.00000000000E+00 0.  1.
          5    1    4    4  501    0 -0.15393104975E+03 -0.94134148213E+02  0.13118984657E+03  0.22312385390E+03  0.41800000000E+01 0.  1.
         -5    1    4    4    0  501 -0.57601660521E+02 -0.89668550084E+02 -0.93343707996E+01  0.10706541480E+03  0.41800000000E+01 0.  1.
</event>
<event>
11    1  0.7882745E-009  0.1290489E+03  0.7561462E-02  0.1120443E+00
         22   -1    0    0    0    0  0.00000000000E+00  0.00000000000E+00  0.33439711212E+03  0.33439711212E+03  0.00000000000E+00 0. -1.
         22   -1    0    0    0    0 -0.00000000000E+00 -0.00000000000E+00 -0.29236301719E+03  0.29236301719E+03  0.00000000000E+00 0.  1.
         24    2    1    2    0    0 -0.20402314736E+01  0.77422538170E+01 -0.23570074921E+03  0.24912121380E+03  0.80264755319E+02 0.  0.
         25    2    1    2    0    0 -0.28837181804E+02  0.22449967826E+01  0.59247427190E+02  0.14140427537E+03  0.12509311891E+03 0.  0.
        -24    2    1    2    0    0  0.30877413278E+02 -0.99872505996E+01  0.21848741695E+03  0.23623464014E+03  0.83766902835E+02 0.  0.
        -11    1    3    3    0    0 -0.62377013386E+01  0.79582919912E+01 -0.24163655628E+03  0.24184802803E+03  0.00000000000E+00 0.  1.
         12    1    3    3    0    0  0.41974698650E+01 -0.21603817416E+00  0.59358070664E+01  0.72731857731E+01  0.00000000000E+00 0. -1.
         11    1    5    5    0    0  0.55773881421E+02 -0.15582973334E+02  0.18668379624E+03  0.19545944511E+03  0.00000000000E+00 0. -1.
        -12    1    5    5    0    0 -0.24896468143E+02  0.55957227343E+01  0.31803620716E+02  0.40775195027E+02  0.00000000000E+00 0.  1.
          5    1    4    4  501    0 -0.75524800757E+02  0.18255922865E+02  0.27301675223E+02  0.82462889345E+02  0.41800000000E+01 0.  1.
         -5    1    4    4    0  501  0.46687618953E+02 -0.16010926082E+02  0.31945751966E+02  0.58941386022E+02  0.41800000000E+01 0.  1.
</event>
<event>
11    1  0.7882745E-009  0.1258867E+03  0.7561462E-02  0.1124429E+00
         22   -1    0    0    0    0  0.00000000000E+00  0.00000000000E+00  0.45108468390E+03  0.45108468390E+03  0.00000000000E+00 0.  1.
         22   -1    0    0    0    0 -0.00000000000E+00 -0.00000000000E+00 -0.16158128308E+03  0.16158128308E+03  0.00000000000E+00 0. -1.
        -24    2    1    2    0    0  0.69720829401E+01 -0.12086153270E+02 -0.11475895617E+03  0.14138611400E+03  0.81398588258E+02 0.  0.
         25    2    1    2    0    0 -0.11649504100E+02  0.11755845864E+02  0.11420485430E+03  0.17018922160E+03  0.12509081319E+03 0.  0.
         24    2    1    2    0    0  0.46774211598E+01  0.33030740568E+00  0.29005750268E+03  0.30109063138E+03  0.80623979489E+02 0.  0.
        -13    1    5    5    0    0  0.37826376463E+02  0.79317616394E+01  0.21813676878E+03  0.22153419035E+03  0.00000000000E+00 0.  1.
         14    1    5    5    0    0 -0.33148955303E+02 -0.76014542337E+01  0.71920733901E+02  0.79556441028E+02  0.00000000000E+00 0. -1.
         11    1    3    3    0    0 -0.20989996348E+02 -0.78379269373E+01 -0.11054282249E+03  0.11279064079E+03  0.00000000000E+00 0. -1.
        -12    1    3    3    0    0  0.27962079288E+02 -0.42482263324E+01 -0.42161336771E+01  0.28595473213E+02  0.00000000000E+00 0.  1.
          5    1    4    4  501    0  0.40966635361E+02  0.89733473555E+01  0.10925570944E+03  0.11710281218E+03  0.41800000000E+01 0.  1.
         -5    1    4    4    0  501 -0.52616139461E+02  0.27824985085E+01  0.49491448598E+01  0.53086409415E+02  0.41800000000E+01 0.  1.
</event>
<event>
11    1  0.7882745E-009  0.1256642E+03  0.7561462E-02  0.1124714E+00
         22   -1    0    0    0    0  0.00000000000E+00  0.00000000000E+00  0.38276427795E+03  0.38276427795E+03  0.00000000000E+00 0. -1.
         22   -1    0    0    0    0 -0.00000000000E+00 -0.00000000000E+00 -0.16954974827E+03  0.16954974827E+03  0.00000000000E+00 0. -1.
        -24    2    1    2    0    0 -0.84604056945E+01  0.42209928311E+01 -0.95941285338E+02  0.12653025796E+03  0.81949867009E+02 0.  0.
         25    2    1    2    0    0  0.16610255762E+02 -0.23187865212E+02  0.25484121922E+02  0.13078576260E+03  0.12506757190E+03 0.  0.
         24    2    1    2    0    0 -0.81498500670E+01  0.18966872381E+02  0.28367169309E+03  0.29499800566E+03  0.78281744849E+02 0.  0.
        -11    1    5    5    0    0 -0.41797976924E+02  0.73898623720E+01  0.11425718805E+03  0.12188677518E+03  0.00000000000E+00 0.  1.
         12    1    5    5    0    0  0.33648126857E+02  0.11577010009E+02  0.16941450504E+03  0.17311123048E+03  0.00000000000E+00 0. -1.
         13    1    3    3    0    0  0.31288215722E+02  0.20291774598E+02 -0.29930439262E+02  0.47817776546E+02  0.00000000000E+00 0. -1.
        -14    1    3    3    0    0 -0.39748621416E+02 -0.16070781767E+02 -0.66010846077E+02  0.78712481417E+02  0.00000000000E+00 0.  1.
          5    1    4    4  501    0  0.62466656369E+02  0.19386844993E+02  0.11686112730E+02  0.66573046704E+02  0.41800000000E+01 0.  1.
         -5    1    4    4    0  501 -0.45856400607E+02 -0.42574710205E+02  0.13798009192E+02  0.64212715900E+02  0.41800000000E+01 0.  1.
</event>
<event>
11    1  0.7882745E-009  0.1521907E+03  0.7561462E-02  0.1094661E+00
         22   -1    0    0    0    0  0.00000000000E+00  0.00000000000E+00  0.24310568915E+04  0.24310568915E+04  0.00000000000E+00 0.  1.
         22   -1    0    0    0    0 -0.00000000000E+00 -0.00000000000E+00 -0.19684011952E+03  0.19684011952E+03  0.00000000000E+00 0.  1.
        -24    2    1    2    0    0 -0.23985931571E+02  0.78842244796E+02 -0.13312189993E+03  0.17584471862E+03  0.80053109550E+02 0.  0.
         25    2    1    2    0    0  0.87792951271E+02 -0.10650657804E+03  0.16995966268E+03  0.25216071954E+03  0.12508991998E+03 0.  0.
         24    2    1    2    0    0 -0.63807019700E+02  0.27664333248E+02  0.21973790093E+04  0.21998915729E+04  0.78814789468E+02 0.  0.
        -13    1    5    5    0    0 -0.42039718257E+02  0.25968973376E+02  0.20744695335E+04  0.20750579681E+04  0.00000000000E+00 0.  1.
         14    1    5    5    0    0 -0.21767301444E+02  0.16953598721E+01  0.12290947575E+03  0.12483360480E+03  0.00000000000E+00 0. -1.
         11    1    3    3    0    0  0.21754279640E+02  0.99138892237E+01 -0.68154759466E+01  0.24859295939E+02  0.00000000000E+00 0. -1.
        -12    1    3    3    0    0 -0.45740211211E+02  0.68928355572E+02 -0.12630642398E+03  0.15098542268E+03  0.00000000000E+00 0.  1.
          5    1    4    4  501    0  0.91364260741E+02 -0.10917460636E+03  0.82708385907E+02  0.16469569610E+03  0.41800000000E+01 0. -1.
         -5    1    4    4    0  501 -0.35713094699E+01  0.26680283148E+01  0.87251276773E+02  0.87465023437E+02  0.41800000000E+01 0. -1.
</event>
<event>
11    1  0.7882745E-009  0.1533638E+03  0.7561462E-02  0.1093490E+00
         22   -1    0    0    0    0  0.00000000000E+00  0.00000000000E+00  0.17182168379E+04  0.17182168379E+04  0.00000000000E+00 0. -1.
         22   -1    0    0    0    0 -0.00000000000E+00 -0.00000000000E+00 -0.40195555021E+03  0.40195555021E+03  0.00000000000E+00 0. -1.
        -24    2    1    2    0    0  0.15816327585E+02  0.86025230226E+02 -0.35511436239E+03  0.37451984948E+03  0.80674722335E+02 0.  0.
         25    2    1    2    0    0  0.10605954727E+02 -0.11855039636E+03  0.17353906574E+03  0.24482235937E+03  0.12512193076E+03 0.  0.
         24    2    1    2    0    0 -0.26422282313E+02  0.32525166132E+02  0.14978365843E+04  0.15008301792E+04  0.84975114959E+02 0.  0.
        -13    1    5    5    0    0 -0.12627578548E+02 -0.12916194047E+02  0.72972133973E+02  0.75174571134E+02  0.00000000000E+00 0.  1.
         14    1    5    5    0    0 -0.13794703764E+02  0.45441360179E+02  0.14248644503E+04  0.14256556081E+04  0.00000000000E+00 0. -1.
         11    1    3    3    0    0 -0.96620344607E+01  0.77206444121E+02 -0.32462414393E+03  0.33381885020E+03  0.00000000000E+00 0. -1.
        -12    1    3    3    0    0  0.25478362046E+02  0.88187861046E+01 -0.30490218464E+02  0.40700999286E+02  0.00000000000E+00 0.  1.
          5    1    4    4  501    0 -0.27453605625E+02 -0.10920325659E+03  0.66688525576E+02  0.13093465376E+03  0.41800000000E+01 0. -1.
         -5    1    4    4    0  501  0.38059560352E+02 -0.93471397676E+01  0.10685054016E+03  0.11388770561E+03  0.41800000000E+01 0. -1.
</event>
<event>
11    1  0.7882745E-009  0.1491833E+03  0.7561462E-02  0.1097716E+00
         22   -1    0    0    0    0  0.00000000000E+00  0.00000000000E+00  0.12369593870E+04  0.12369593870E+04  0.00000000000E+00 0. -1.
         22   -1    0    0    0    0 -0.00000000000E+00 -0.00000000000E+00 -0.18656551490E+03  0.18656551490E+03  0.00000000000E+00 0.  1.
        -24    2    1    2    0    0 -0.52277039908E+02 -0.33352943594E+02 -0.14764168604E+03  0.17951315781E+03  0.81127052353E+02 0.  0.
         25    2    1    2    0    0  0.11996382125E+03  0.57070563543E+02  0.41070188935E+03  0.44941257299E+03  0.12508897320E+03 0.  0.
         24    2    1    2    0    0 -0.67686781341E+02 -0.23717619950E+02  0.78733366883E+03  0.79459917113E+03  0.79683817844E+02 0.  0.
        -11    1    5    5    0    0  0.40279115173E+01 -0.33671819740E+02  0.30129116720E+03  0.30319363936E+03  0.00000000000E+00 0.  1.
         12    1    5    5    0    0 -0.71714692859E+02  0.99541997906E+01  0.48604250163E+03  0.49140553178E+03  0.00000000000E+00 0. -1.
         13    1    3    3    0    0 -0.17987726411E+02 -0.19343030034E+02  0.89324731527E+00  0.26429320898E+02  0.00000000000E+00 0. -1.
        -14    1    3    3    0    0 -0.34289313497E+02 -0.14009913560E+02 -0.14853493335E+03  0.15308383691E+03  0.00000000000E+00 0.  1.
          5    1    4    4  501    0  0.41117547791E+02 -0.38006080154E+02  0.16661417186E+03  0.17582056060E+03  0.41800000000E+01 0.  1.
         -5    1    4    4    0  501  0.78846273459E+02  0.95076643697E+02  0.24408771749E+03  0.27359201239E+03  0.41800000000E+01 0.  1.
</event>
<event>
11    1  0.7882745E-009  0.1563064E+03  0.7561462E-02  0.1090604E+00
         22   -1    0    0    0    0  0.00000000000E+00  0.00000000000E+00  0.49396882249E+03  0.49396882249E+03  0.00000000000E+00 0.  1.
         22   -1    0    0    0    0 -0.00000000000E+00 -0.00000000000E+00 -0.27052112677E+04  0.27052112677E+04  0.00000000000E+00 0.  1.
         24    2    1    2    0    0  0.63999967528E+02 -0.46482422047E+02 -0.19694798098E+04  0.19727192708E+04  0.80709287086E+02 0.  0.
         25    2    1    2    0    0 -0.15302712571E+03  0.73049985182E+02 -0.71079982953E+03  0.74137555399E+03  0.12509081843E+03 0.  0.
        -24    2    1    2    0    0  0.89027158181E+02 -0.26567563135E+02  0.46903719406E+03  0.48508526540E+03  0.81732215174E+02 0.  0.
        -13    1    3    3    0    0  0.77712843775E+02 -0.56416656122E+02 -0.16929567941E+04  0.16956782807E+04  0.00000000000E+00 0.  1.
         14    1    3    3    0    0 -0.13712876247E+02  0.99342340745E+01 -0.27652301569E+03  0.27704099009E+03  0.00000000000E+00 0. -1.
         11    1    5    5    0    0 -0.12154748011E+02 -0.22376920664E+01  0.15827351822E+02  0.20081091372E+02  0.00000000000E+00 0. -1.
        -12    1    5    5    0    0  0.10118190619E+03 -0.24329871068E+02  0.45320984224E+03  0.46500417403E+03  0.00000000000E+00 0.  1.
          5    1    4    4  501    0 -0.68932860837E+02  0.93481672219E+02 -0.30418869246E+03  0.32563598598E+03  0.41800000000E+01 0. -1.
         -5    1    4    4    0  501 -0.84094264872E+02 -0.20431687037E+02 -0.40661113707E+03  0.41573956801E+03  0.41800000000E+01 0. -1.
</event>
<event>
11    1  0.7882745E-009  0.1557389E+03  0.7561462E-02  0.1091155E+00
         22   -1    0    0    0    0  0.00000000000E+00  0.00000000000E+00  0.70306855948E+02  0.70306855948E+02  0.00000000000E+00 0. -1.
         22   -1    0    0    0    0 -0.00000000000E+00 -0.00000000000E+00 -0.70932048717E+03  0.70932048717E+03  0.00000000000E+00 0. -1.
         24    2    1    2    0    0  0.31058270955E+02  0.58486581791E+01 -0.40256096388E+03  0.41176889816E+03  0.80619308217E+02 0.  0.
         25    2    1    2    0    0  0.76585077652E+02 -0.68144749511E+01 -0.12242035776E+03  0.19116785137E+03  0.12508673877E+03 0.  0.
        -24    2    1    2    0    0 -0.10764334861E+03  0.96581677200E+00 -0.11403230958E+03  0.17669059358E+03  0.81413604091E+02 0.  0.
        -11    1    3    3    0    0  0.40393032251E+02 -0.15675635417E+02 -0.10935582415E+03  0.11762660786E+03  0.00000000000E+00 0.  1.
         12    1    3    3    0    0 -0.93347612960E+01  0.21524293596E+02 -0.29320513973E+03  0.29414229030E+03  0.00000000000E+00 0. -1.
         13    1    5    5    0    0 -0.73690060956E+02 -0.10359709690E+02 -0.21471445724E+02  0.77450446416E+02  0.00000000000E+00 0. -1.
        -14    1    5    5    0    0 -0.33953287651E+02  0.11325526462E+02 -0.92560863857E+02  0.99240147168E+02  0.00000000000E+00 0.  1.
          5    1    4    4  501    0  0.31634496731E+01  0.38026312930E+02  0.35673182599E+01  0.38551343018E+02  0.41800000000E+01 0.  1.
         -5    1    4    4    0  501  0.73421627979E+02 -0.44840787881E+02 -0.12598767602E+03  0.15261650835E+03  0.41800000000E+01 0.  1.
</event>
<event>
11    1  0.7882745E-009  0.2136867E+03  0.7561462E-02  0.1045246E+00
         22   -1    0    0    0    0  0.00000000000E+00  0.00000000000E+00  0.16348083043E+04  0.16348083043E+04  0.00000000000E+00 0.  1.
         22   -1    0    0    0    0 -0.00000000000E+00 -0.00000000000E+00 -0.21679976097E+03  0.21679976097E+03  0.00000000000E+00 0. -1.
         24    2    1    2    0    0 -0.61588520916E+02 -0.51560964881E+02 -0.17041100418E+03  0.20484984494E+03  0.80447931096E+02 0.  0.
         25    2    1    2    0    0 -0.41285918124E+02  0.17991638666E+03  0.11554648222E+04  0.11767842118E+04  0.12509073711E+03 0.  0.
        -24    2    1    2    0    0  0.10287443904E+03 -0.12835542178E+03  0.43295472525E+03  0.46997400850E+03  0.79796679421E+02 0.  0.
        -13    1    3    3    0    0 -0.75848240723E+02 -0.22168269263E+02 -0.10191053803E+03  0.12895792161E+03  0.00000000000E+00 0.  1.
         14    1    3    3    0    0  0.14259719807E+02 -0.29392695618E+02 -0.68500466147E+02  0.75891923332E+02  0.00000000000E+00 0. -1.
         13    1    5    5    0    0  0.25569043311E+02 -0.13302461205E+02  0.21961412986E+02  0.36235826336E+02  0.00000000000E+00 0. -1.
        -14    1    5    5    0    0  0.77305395729E+02 -0.11505296057E+03  0.41099331226E+03  0.43373818217E+03  0.00000000000E+00 0.  1.
          5    1    4    4  501    0  0.14584699712E+02  0.16395777961E+03  0.86637935913E+03  0.88188748334E+03  0.41800000000E+01 0.  1.
         -5    1    4    4    0  501 -0.55870617835E+02  0.15958607043E+02  0.28908546311E+03  0.29489672846E+03  0.41800000000E+01 0.  1.
</event>
<event>
11    1  0.7882745E-009  0.1279838E+03  0.7561462E-02  0.1121771E+00
         22   -1    0    0    0    0  0.00000000000E+00  0.00000000000E+00  0.55775681454E+03  0.55775681454E+03  0.00000000000E+00 0.  1.
         22   -1    0    0    0    0 -0.00000000000E+00 -0.00000000000E+00 -0.23121381120E+03  0.23121381120E+03  0.00000000000E+00 0.  1.
        -24    2    1    2    0    0  0.82778656011E+01 -0.48448397290E+01 -0.16386119264E+03  0.18286939814E+03  0.80614705804E+02 0.  0.
         25    2    1    2    0    0 -0.34782677969E+02  0.39509477349E+01  0.23873148652E+02  0.13207447335E+03  0.12509314374E+03 0.  0.
         24    2    1    2    0    0  0.26504812368E+02  0.89389199412E+00  0.46653104733E+03  0.47402675425E+03  0.79667066604E+02 0.  0.
        -11    1    5    5    0    0 -0.16418106696E+02  0.23734582764E+01  0.34001795604E+03  0.34042238170E+03  0.00000000000E+00 0.  1.
         12    1    5    5    0    0  0.42922919064E+02 -0.14795662823E+01  0.12651309129E+03  0.13360437255E+03  0.00000000000E+00 0. -1.
         11    1    3    3    0    0  0.15250195156E+02 -0.50393375086E+01  0.25929351706E+01  0.16269194437E+02  0.00000000000E+00 0. -1.
        -12    1    3    3    0    0 -0.69723295548E+01  0.19449777954E+00 -0.16645412781E+03  0.16660020371E+03  0.00000000000E+00 0.  1.
          5    1    4    4  501    0 -0.22171918190E+02  0.59055952654E+02 -0.12880241188E+02  0.64518001466E+02  0.41800000000E+01 0.  1.
         -5    1    4    4    0  501 -0.12610759779E+02 -0.55105004919E+02  0.36753389841E+02  0.67556471889E+02  0.41800000000E+01 0.  1.
</event>
<event>
11    1  0.7882745E-009  0.1404414E+03  0.7561462E-02  0.1107067E+00
         22   -1    0    0    0    0  0.00000000000E+00  0.00000000000E+00  0.11224182631E+03  0.11224182631E+03  0.00000000000E+00 0. -1.
         22   -1    0    0    0    0 -0.00000000000E+00 -0.00000000000E+00 -0.12603143208E+04  0.12603143208E+04  0.00000000000E+00 0.  1.
         24    2    1    2    0    0 -0.40443509630E+02  0.61901030743E+02 -0.77408288753E+03  0.78173807824E+03  0.80266376079E+02 0.  0.
         25    2    1    2    0    0  0.16424609815E+02 -0.36139711918E+02 -0.45384198132E+03  0.47243617445E+03  0.12509016082E+03 0.  0.
        -24    2    1    2    0    0  0.24018899815E+02 -0.25761318825E+02  0.79852374330E+02  0.11838189446E+03  0.79983236698E+02 0.  0.
        -13    1    3    3    0    0 -0.56133157902E+02  0.25814883863E+02 -0.60452711533E+03  0.60767620721E+03  0.00000000000E+00 0.  1.
         14    1    3    3    0    0  0.15689648272E+02  0.36086146879E+02 -0.16955577220E+03  0.17406187103E+03  0.00000000000E+00 0. -1.
         11    1    5    5    0    0  0.23635561221E+01 -0.18297133734E+02  0.91039696277E+02  0.92890245983E+02  0.00000000000E+00 0. -1.
        -12    1    5    5    0    0  0.21655343693E+02 -0.74641850908E+01 -0.11187321947E+02  0.25491648473E+02  0.00000000000E+00 0.  1.
          5    1    4    4  501    0  0.70764719813E+02 -0.24573878965E+02 -0.23987295486E+03  0.25133250481E+03  0.41800000000E+01 0. -1.
         -5    1    4    4    0  501 -0.54340109997E+02 -0.11565832953E+02 -0.21396902645E+03  0.22110366964E+03  0.41800000000E+01 0. -1.
</event>
<event>
11    1  0.7882745E-009  0.1439566E+03  0.7561462E-02  0.1103219E+00
         22   -1    0    0    0    0  0.00000000000E+00  0.00000000000E+00  0.33137773737E+03  0.33137773737E+03  0.00000000000E+00 0. -1.
         22   -1    0    0    0    0 -0.00000000000E+00 -0.00000000000E+00 -0.52673903443E+03  0.52673903443E+03  0.00000000000E+00 0.  1.
        -24    2    1    2    0    0 -0.36949520032E+02  0.64949613264E+02 -0.45958651534E+03  0.47321296928E+03  0.84421738433E+02 0.  0.
         25    2    1    2    0    0 -0.16709718443E+02 -0.39391024532E+02  0.37602396746E+02  0.13744937930E+03  0.12509006405E+03 0.  0.
         24    2    1    2    0    0  0.53659238475E+02 -0.25558588733E+02  0.22662282154E+03  0.24745442322E+03  0.79644415992E+02 0.  0.
        -11    1    5    5    0    0  0.84366206458E+01 -0.19858232715E+02  0.63155497821E+01  0.22481373257E+02  0.00000000000E+00 0.  1.
         12    1    5    5    0    0  0.45222617829E+02 -0.57003560178E+01  0.22030727176E+03  0.22497304997E+03  0.00000000000E+00 0. -1.
         11    1    3    3    0    0 -0.41526486936E+02  0.57262967262E+02 -0.17879289775E+03  0.19227687542E+03  0.00000000000E+00 0. -1.
        -12    1    3    3    0    0  0.45769669042E+01  0.76866460025E+01 -0.28079361759E+03  0.28093609386E+03  0.00000000000E+00 0.  1.
          5    1    4    4  501    0  0.46677043402E+02 -0.16937167091E+02 -0.14924436738E+02  0.52017547249E+02  0.41800000000E+01 0.  1.
         -5    1    4    4    0  501 -0.63386761845E+02 -0.22453857441E+02  0.52526833484E+02  0.85431832048E+02  0.41800000000E+01 0.  1.
</event>
<event>
11    1  0.7882745E-009  0.1842975E+03  0.7561462E-02  0.1066219E+00
         22   -1    0    0    0    0  0.00000000000E+00  0.00000000000E+00  0.32772859738E+04  0.32772859738E+04  0.00000000000E+00 0. -1.
         22   -1    0    0    0    0 -0.00000000000E+00 -0.00000000000E+00 -0.24708706465E+03  0.24708706465E+03  0.00000000000E+00 0. -1.
         24    2    1    2    0    0 -0.49936550429E+02  0.39084902944E+02 -0.14481758931E+03  0.17405310193E+03  0.72808374599E+02 0.  0.
         25    2    1    2    0    0  0.18058829928E+03 -0.69084016687E+02  0.69062803877E+02  0.24041953646E+03  0.12508855836E+03 0.  0.
        -24    2    1    2    0    0 -0.13065174885E+03  0.29999113743E+02  0.31059536946E+04  0.31099004001E+04  0.81008142101E+02 0.  0.
        -11    1    3    3    0    0  0.13785946654E+02  0.28857623630E+02 -0.45865204514E+02  0.55914503949E+02  0.00000000000E+00 0.  1.
         12    1    3    3    0    0 -0.63722497083E+02  0.10227279314E+02 -0.98952384795E+02  0.11813859798E+03  0.00000000000E+00 0. -1.
         13    1    5    5    0    0 -0.13945594791E+03  0.28417515541E+02  0.26187153665E+04  0.26225799678E+04  0.00000000000E+00 0. -1.
        -14    1    5    5    0    0  0.88041990626E+01  0.15815982017E+01  0.48723832810E+03  0.48732043231E+03  0.00000000000E+00 0.  1.
          5    1    4    4  501    0  0.42507341131E+02 -0.66106119076E+02 -0.12912370316E+02  0.79756471440E+02  0.41800000000E+01 0. -1.
         -5    1    4    4    0  501  0.13808095815E+03 -0.29778976109E+01  0.81975174192E+02  0.16066306502E+03  0.41800000000E+01 0. -1.
</event>
<event>
11    1  0.7882745E-009  0.1300030E+03  0.7561462E-02  0.1119265E+00
         22   -1    0    0    0    0  0.00000000000E+00  0.00000000000E+00  0.47834830808E+02  0.47834830808E+02  0.00000000000E+00 0.  1.
         22   -1    0    0    0    0 -0.00000000000E+00 -0.00000000000E+00 -0.12867007762E+04  0.12867007762E+04  0.00000000000E+00 0. -1.
        -24    2    1    2    0    0  0.11048255405E+02 -0.84110896086E+01 -0.95647783026E+03  0.95997518526E+03  0.80682750168E+02 0.  0.
         25    2    1    2    0    0  0.18154740777E+02  0.29612348375E+02 -0.24942807594E+03  0.28118977685E+03  0.12508732847E+03 0.  0.
         24    2    1    2    0    0 -0.29202996182E+02 -0.21201258766E+02 -0.32960039170E+02  0.93370644877E+02  0.79557556420E+02 0.  0.
        -13    1    5    5    0    0 -0.34371636396E+02 -0.38001257755E+02  0.50552641216E+01  0.51488451859E+02  0.00000000000E+00 0.  1.
         14    1    5    5    0    0  0.51686402134E+01  0.16799998989E+02 -0.38015303291E+02  0.41882193018E+02  0.00000000000E+00 0. -1.
         11    1    3    3    0    0  0.39122299200E+02 -0.27578848519E+02 -0.56647789708E+03  0.56849657436E+03  0.00000000000E+00 0. -1.
        -12    1    3    3    0    0 -0.28074043795E+02  0.19167758910E+02 -0.38999993318E+03  0.39147861091E+03  0.00000000000E+00 0.  1.
          5    1    4    4  501    0 -0.47201903014E+02 -0.14914307125E+02 -0.80044755851E+02  0.94207704273E+02  0.41800000000E+01 0. -1.
         -5    1    4    4    0  501  0.65356643792E+02  0.44526655499E+02 -0.16938332009E+03  0.18698207257E+03  0.41800000000E+01 0. -1.
</event>
<event>
11    1  0.7882745E-009  0.2037417E+03  0.7561462E-02  0.1051909E+00
         22   -1    0    0    0    0  0.00000000000E+00  0.00000000000E+00  0.73849881369E+03  0.73849881369E+03  0.00000000000E+00 0.  1.
         22   -1    0    0    0    0 -0.00000000000E+00 -0.00000000000E+00 -0.16792166394E+04  0.16792166394E+04  0.00000000000E+00 0. -1.
         24    2    1    2    0    0 -0.19457696945E+02 -0.78548593071E+02 -0.14881670049E+04  0.14923684297E+04  0.77291732280E+02 0.  0.
         25    2    1    2    0    0 -0.14209726310E+03  0.86129034336E+02 -0.11600267238E+03  0.23814711002E+03  0.12509030047E+03 0.  0.
        -24    2    1    2    0    0  0.16155496005E+03 -0.75804412649E+01  0.66345185165E+03  0.68719991335E+03  0.76927844475E+02 0.  0.
        -11    1    3    3    0    0 -0.90490153000E+00 -0.15331386002E+02 -0.42310542473E+02  0.45011690125E+02  0.00000000000E+00 0.  1.
         12    1    3    3    0    0 -0.18552795415E+02 -0.63217207069E+02 -0.14458564625E+04  0.14473567396E+04  0.00000000000E+00 0. -1.
         13    1    5    5    0    0  0.86891319829E+01 -0.14342189223E+02  0.16346172473E+03  0.16431961191E+03  0.00000000000E+00 0. -1.
        -14    1    5    5    0    0  0.15286582807E+03  0.67617479584E+01  0.49999012692E+03  0.52288030144E+03  0.00000000000E+00 0.  1.
          5    1    4    4  501    0 -0.15252129288E+03  0.39907761121E+02 -0.72075748418E+02  0.17340057696E+03  0.41800000000E+01 0.  1.
         -5    1    4    4    0  501  0.10424029773E+02  0.46221273215E+02 -0.43926923965E+02  0.64746533061E+02  0.41800000000E+01 0.  1.
</event>
<event>
11    1  0.7882745E-009  0.1590658E+03  0.7561462E-02  0.1087959E+00
         22   -1    0    0    0    0  0.00000000000E+00  0.00000000000E+00  0.68820647509E+03  0.68820647509E+03  0.00000000000E+00 0. -1.
         22   -1    0    0    0    0 -0.00000000000E+00 -0.00000000000E+00 -0.52885624952E+03  0.52885624952E+03  0.00000000000E+00 0. -1.
        -24    2    1    2    0    0  0.18410430233E+02  0.34228570400E+02 -0.46737496171E+03  0.47758286873E+03  0.90197021559E+02 0.  0.
         25    2    1    2    0    0 -0.83869607780E+02 -0.10082625242E+03  0.11846079968E+03  0.21651969472E+03  0.12509105826E+03 0.  0.
         24    2    1    2    0    0  0.65459177547E+02  0.66597682019E+02  0.50826438760E+03  0.52296016115E+03  0.80215255845E+02 0.  0.
        -13    1    5    5    0    0 -0.87835249101E+01  0.23507969787E+02  0.23971301099E+03  0.24102303332E+03  0.00000000000E+00 0.  1.
         14    1    5    5    0    0  0.74242702457E+02  0.43089712232E+02  0.26855137661E+03  0.28193712783E+03  0.00000000000E+00 0. -1.
         13    1    3    3    0    0  0.24171052927E+02  0.57531397097E+02 -0.41854883323E+03  0.42317517324E+03  0.00000000000E+00 0. -1.
        -14    1    3    3    0    0 -0.57606226932E+01 -0.23302826697E+02 -0.48826128488E+02  0.54407695495E+02  0.00000000000E+00 0.  1.
          5    1    4    4  501    0 -0.46384328540E+02 -0.12690424825E+03  0.83915441291E+02  0.15910835253E+03  0.41800000000E+01 0. -1.
         -5    1    4    4    0  501 -0.37485279240E+02  0.26077995831E+02  0.34545358387E+02  0.57411342192E+02  0.41800000000E+01 0. -1.
</event>
<event>
11    1  0.7882745E-009  0.2549881E+03  0.7561462E-02  0.1021275E+00
         22   -1    0    0    0    0  0.00000000000E+00  0.00000000000E+00  0.12149448108E+04  0.12149448108E+04  0.00000000000E+00 0. -1.
         22   -1    0    0    0    0 -0.00000000000E+00 -0.00000000000E+00 -0.10469114691E+04  0.10469114691E+04  0.00000000000E+00 0. -1.
         24    2    1    2    0    0 -0.20648063612E+03  0.84057429825E+02 -0.94417624795E+03  0.97315382045E+03  0.76548458199E+02 0.  0.
         25    2    1    2    0    0  0.18714516174E+03 -0.10513791573E+03  0.92684030656E+02  0.26516923037E+03  0.12508836201E+03 0.  0.
        -24    2    1    2    0    0  0.19335474377E+02  0.21080485905E+02  0.10195255590E+04  0.10235332291E+04  0.85846712273E+02 0.  0.
        -11    1    3    3    0    0 -0.90070376272E+01  0.18079028853E+01 -0.61752690937E+01  0.11069290313E+02  0.00000000000E+00 0.  1.
         12    1    3    3    0    0 -0.19747359849E+03  0.82249526940E+02 -0.93800097886E+03  0.96208453013E+03  0.00000000000E+00 0. -1.
         13    1    5    5    0    0  0.19073692970E+02  0.80997446141E+01  0.99919992894E+03  0.99941478357E+03  0.00000000000E+00 0. -1.
        -14    1    5    5    0    0  0.26178140706E+00  0.12980741291E+02  0.20325630087E+02  0.24118445481E+02  0.00000000000E+00 0.  1.
          5    1    4    4  501    0  0.10579699071E+03 -0.92785225009E+02 -0.50593002584E+00  0.14078291654E+03  0.41800000000E+01 0.  1.
         -5    1    4    4    0  501  0.81348171029E+02 -0.12352690722E+02  0.93189960682E+02  0.12438631384E+03  0.41800000000E+01 0.  1.
</event>
<event>
11    1  0.7882745E-009  0.1314783E+03  0.7561462E-02  0.1117466E+00
         22   -1    0    0    0    0  0.00000000000E+00  0.00000000000E+00  0.45048761576E+03  0.45048761576E+03  0.00000000000E+00 0.  1.
         22   -1    0    0    0    0 -0.00000000000E+00 -0.00000000000E+00 -0.51522056416E+03  0.51522056416E+03  0.00000000000E+00 0.  1.
         24    2    1    2    0    0  0.17341711678E+02  0.59529831220E+01 -0.46921110782E+03  0.47641951668E+03  0.80500429853E+02 0.  0.
         25    2    1    2    0    0  0.15824059071E+02  0.22645442854E+02  0.85197740728E+02  0.15382711642E+03  0.12506362299E+03 0.  0.
        -24    2    1    2    0    0 -0.33165770749E+02 -0.28598425976E+02  0.31928041869E+03  0.33546154681E+03  0.93148404770E+02 0.  0.
        -13    1    3    3    0    0  0.14216282998E+01  0.38704774373E+02 -0.14196553013E+03  0.14715397491E+03  0.00000000000E+00 0.  1.
         14    1    3    3    0    0  0.15920083378E+02 -0.32751791251E+02 -0.32724557768E+03  0.32926554177E+03  0.00000000000E+00 0. -1.
         11    1    5    5    0    0 -0.79871371262E+01  0.21174685409E+02  0.22334688937E+03  0.22449052241E+03  0.00000000000E+00 0. -1.
        -12    1    5    5    0    0 -0.25178633623E+02 -0.49773111385E+02  0.95933529322E+02  0.11097102440E+03  0.00000000000E+00 0.  1.
          5    1    4    4  501    0 -0.36107047706E+02  0.37174102006E+02 -0.10742702591E+01  0.52002492350E+02  0.41800000000E+01 0.  1.
         -5    1    4    4    0  501  0.51931106777E+02 -0.14528659152E+02  0.86272010987E+02  0.10182462407E+03  0.41800000000E+01 0.  1.
</event>
<event>
11    1  0.7882745E-009  0.1327036E+03  0.7561462E-02  0.1115991E+00
         22   -1    0    0    0    0  0.00000000000E+00  0.00000000000E+00  0.69551505624E+03  0.69551505624E+03  0.00000000000E+00 0. -1.
         22   -1    0    0    0    0 -0.00000000000E+00 -0.00000000000E+00 -0.82640625666E+03  0.82640625666E+03  0.00000000000E+00 0.  1.
         24    2    1    2    0    0 -0.10397321416E+02 -0.21965397313E+02 -0.77805696397E+03  0.78268697691E+03  0.81459693575E+02 0.  0.
         25    2    1    2    0    0 -0.33592522591E+01 -0.22058627732E+02  0.52310003407E+02  0.13741079925E+03  0.12509006220E+03 0.  0.
        -24    2    1    2    0    0  0.13756573675E+02  0.44024025045E+02  0.59485576014E+03  0.60182353674E+03  0.78808856736E+02 0.  0.
        -13    1    3    3    0    0 -0.29240377246E+02 -0.77920654153E-01 -0.67572932692E+03  0.67636168504E+03  0.00000000000E+00 0.  1.
         14    1    3    3    0    0  0.18843055829E+02 -0.21887476659E+02 -0.10232763705E+03  0.10632529187E+03  0.00000000000E+00 0. -1.
         11    1    5    5    0    0 -0.28190187701E+02  0.25339667362E+02  0.39234645354E+03  0.39417321704E+03  0.00000000000E+00 0. -1.
        -12    1    5    5    0    0  0.41946761377E+02  0.18684357683E+02  0.20250930660E+03  0.20765031970E+03  0.00000000000E+00 0.  1.
          5    1    4    4  501    0  0.30718123320E+02 -0.21464740049E+02  0.83122443240E+02  0.91275139747E+02  0.41800000000E+01 0. -1.
         -5    1    4    4    0  501 -0.34077375579E+02 -0.59388768278E+00 -0.30812439834E+02  0.46135659500E+02  0.41800000000E+01 0. -1.
</event>
<event>
11    1  0.7882745E-009  0.2656751E+03  0.7561462E-02  0.1015865E+00
         22   -1    0    0    0    0  0.00000000000E+00  0.00000000000E+00  0.66754597695E+03  0.66754597695E+03  0.00000000000E+00 0. -1.
         22   -1    0    0    0    0 -0.00000000000E+00 -0.00000000000E+00 -0.62214115177E+03  0.62214115177E+03  0.00000000000E+00 0. -1.
        -24    2    1    2    0    0 -0.19379225825E+02  0.56974671857E+02 -0.41880199367E+03  0.43072036142E+03  0.80642744337E+02 0.  0.
         25    2    1    2    0    0 -0.85083309138E+02  0.16226636232E+03 -0.96758984300E+02  0.24203158058E+03  0.12508974027E+03 0.  0.
         24    2    1    2    0    0  0.10446253496E+03 -0.21924103418E+03  0.56096580314E+03  0.61693518672E+03  0.83350705109E+02 0.  0.
        -13    1    5    5    0    0  0.10282627817E+02 -0.63438433663E+01  0.97920177595E+02  0.98662748613E+02  0.00000000000E+00 0.  1.
         14    1    5    5    0    0  0.94179907146E+02 -0.21289719081E+03  0.46304562555E+03  0.51827243811E+03  0.00000000000E+00 0. -1.
         13    1    3    3    0    0 -0.38135026683E+02  0.15590871164E+02 -0.31125136872E+03  0.31396619253E+03  0.00000000000E+00 0. -1.
        -14    1    3    3    0    0  0.18755800858E+02  0.41383800693E+02 -0.10755062495E+03  0.11675416889E+03  0.00000000000E+00 0.  1.
          5    1    4    4  501    0 -0.60768795818E+02  0.31368696658E+02 -0.83735566710E+02  0.10819408120E+03  0.41800000000E+01 0.  1.
         -5    1    4    4    0  501 -0.24314513320E+02  0.13089766566E+03 -0.13023417591E+02  0.13383749938E+03  0.41800000000E+01 0.  1.
</event>
<event>
11    1  0.7882745E-009  0.1271435E+03  0.7561462E-02  0.1122829E+00
         22   -1    0    0    0    0  0.00000000000E+00  0.00000000000E+00  0.12929637181E+04  0.12929637181E+04  0.00000000000E+00 0.  1.
         22   -1    0    0    0    0 -0.00000000000E+00 -0.00000000000E+00 -0.49675507740E+02  0.49675507740E+02  0.00000000000E+00 0.  1.
        -24    2    1    2    0    0 -0.16102218445E+02 -0.16366216083E+02  0.85474898552E+01  0.82340950926E+02  0.78611946604E+02 0.  0.
         25    2    1    2    0    0  0.13329122433E+02  0.36525771741E+02  0.38799282827E+03  0.40950971940E+03  0.12509187818E+03 0.  0.
         24    2    1    2    0    0  0.27730960125E+01 -0.20159555658E+02  0.84674789225E+03  0.85078855553E+03  0.80281227228E+02 0.  0.
        -13    1    5    5    0    0  0.98939087487E+00  0.24437364027E+02  0.56484819920E+03  0.56537744189E+03  0.00000000000E+00 0.  1.
         14    1    5    5    0    0  0.17837051377E+01 -0.44596919685E+02  0.28189969304E+03  0.28541111364E+03  0.00000000000E+00 0. -1.
         13    1    3    3    0    0 -0.52650991956E+01 -0.47987504654E+02  0.78309605335E+01  0.48906500747E+02  0.00000000000E+00 0. -1.
        -14    1    3    3    0    0 -0.10837119250E+02  0.31621288571E+02  0.71652932169E+00  0.33434450179E+02  0.00000000000E+00 0.  1.
          5    1    4    4  501    0 -0.22388790338E+02 -0.25955068480E+02  0.26268043135E+03  0.26494037995E+03  0.41800000000E+01 0.  1.
         -5    1    4    4    0  501  0.35717912771E+02  0.62480840220E+02  0.12531239692E+03  0.14456933945E+03  0.41800000000E+01 0.  1.
</event>
<event>
11    1  0.1175344E-008  0.2557351E+03  0.7561462E-02  0.1020888E+00
         22   -1    0    0    0    0  0.00000000000E+00  0.00000000000E+00  0.14631412067E+04  0.14631412067E+04  0.00000000000E+00 0. -1.
         22   -1    0    0    0    0 -0.00000000000E+00 -0.00000000000E+00 -0.30710018888E+03  0.30710018888E+03  0.00000000000E+00 0. -1.
         24    2    1    2    0    0 -0.14293956910E+02  0.51080683960E+02 -0.10021303821E+03  0.13835071942E+03  0.79276194782E+02 0.  0.
         25    2    1    2    0    0  0.22592536225E+03 -0.11624392263E+03 -0.64211289693E+02  0.29038555499E+03  0.12508302030E+03 0.  0.
        -24    2    1    2    0    0 -0.21163140534E+03  0.65163238667E+02  0.13204653457E+04  0.13415051212E+04  0.83505457447E+02 0.  0.
        -13    1    3    3    0    0  0.43660333519E+01  0.70021776843E+01  0.13020996612E+02  0.15415547097E+02  0.00000000000E+00 0.  1.
         14    1    3    3    0    0 -0.18659990262E+02  0.44078506275E+02 -0.11323403482E+03  0.12293517233E+03  0.00000000000E+00 0. -1.
         13    1    5    5    0    0 -0.19533292975E+03  0.83165357115E+02  0.11947928039E+04  0.12135078385E+04  0.00000000000E+00 0. -1.
        -14    1    5    5    0    0 -0.16298475597E+02 -0.18002118448E+02  0.12567254187E+03  0.12799728261E+03  0.00000000000E+00 0.  1.
          5    1    4    4  501    0 -0.10076406558E+02 -0.29217800059E+02 -0.12232520220E+02  0.33501056108E+02  0.41800000000E+01 0. -1.
         -5    1    4    4    0  501  0.23600176881E+03 -0.87026122567E+02 -0.51978769472E+02  0.25688449888E+03  0.41800000000E+01 0. -1.
</event>
<event>
11    1  0.1603864E-008  0.1646095E+03  0.7561462E-02  0.1082820E+00
         22   -1    0    0    0    0  0.00000000000E+00  0.00000000000E+00  0.32107905013E+03  0.32107905013E+03  0.00000000000E+00 0. -1.
         22   -1    0    0    0    0 -0.00000000000E+00 -0.00000000000E+00 -0.50818130732E+03  0.50818130732E+03  0.00000000000E+00 0. -1.
         24    2    1    2    0    0  0.13000830665E+01  0.47425504768E+02 -0.35563309036E+03  0.36758185497E+03  0.79941581340E+02 0.  0.
         25    2    1    2    0    0 -0.28629627200E+02  0.61557619013E+02 -0.90174364072E+02  0.16849020587E+03  0.12509411467E+03 0.  0.
        -24    2    1    2    0    0  0.27329544133E+02 -0.10898312378E+03  0.25870519725E+03  0.29318829661E+03  0.80042319634E+02 0.  0.
        -11    1    3    3    0    0  0.13472698905E+01 -0.15582861869E+02 -0.16854865045E+02  0.22994068711E+02  0.00000000000E+00 0.  1.
         12    1    3    3    0    0 -0.47186823991E-01  0.63008366637E+02 -0.33877822531E+03  0.34458778626E+03  0.00000000000E+00 0. -1.
         11    1    5    5    0    0  0.48288149112E+02 -0.10133140879E+03  0.18710978043E+03  0.21819685993E+03  0.00000000000E+00 0. -1.
        -12    1    5    5    0    0 -0.20958604978E+02 -0.76517149887E+01  0.71595416818E+02  0.74991436673E+02  0.00000000000E+00 0.  1.
          5    1    4    4  501    0 -0.18614472757E+02  0.16834841226E+02  0.30275958964E+02  0.39547649314E+02  0.41800000000E+01 0. -1.
         -5    1    4    4    0  501 -0.10015154443E+02  0.44722777787E+02 -0.12045032304E+03  0.12894255656E+03  0.41800000000E+01 0. -1.
</event>
<event>
11    1  0.7882745E-009  0.1963681E+03  0.7561462E-02  0.1057122E+00
         22   -1    0    0    0    0  0.00000000000E+00  0.00000000000E+00  0.14163059555E+04  0.14163059555E+04  0.00000000000E+00 0. -1.
         22   -1    0    0    0    0 -0.00000000000E+00 -0.00000000000E+00 -0.22546972005E+03  0.22546972005E+03  0.00000000000E+00 0. -1.
        -24    2    1    2    0    0 -0.14458256872E+03  0.44097353141E+02 -0.16381063611E+03  0.23728897454E+03  0.81384502227E+02 0.  0.
         25    2    1    2    0    0  0.15640774732E+03 -0.13902009479E+02  0.41828708421E+03  0.46396991802E+03  0.12508937092E+03 0.  0.
         24    2    1    2    0    0 -0.11825178599E+02 -0.30195343662E+02  0.93635978737E+03  0.94051678301E+03  0.82161877378E+02 0.  0.
        -13    1    5    5    0    0 -0.32517247287E+02 -0.20833597889E+02  0.19383122076E+03  0.19764096821E+03  0.00000000000E+00 0.  1.
         14    1    5    5    0    0  0.20692068688E+02 -0.93617457733E+01  0.74252856661E+03  0.74287581480E+03  0.00000000000E+00 0. -1.
         13    1    3    3    0    0 -0.91403623930E+02 -0.11407780312E+02 -0.10991329856E+03  0.14340743746E+03  0.00000000000E+00 0. -1.
        -14    1    3    3    0    0 -0.53178944794E+02  0.55505133453E+02 -0.53897337547E+02  0.93881537076E+02  0.00000000000E+00 0.  1.
          5    1    4    4  501    0  0.27916515499E+02 -0.31805948584E+01  0.23697089657E+01  0.28505016082E+02  0.41800000000E+01 0. -1.
         -5    1    4    4    0  501  0.12849123182E+03 -0.10721414621E+02  0.41591737525E+03  0.43546490194E+03  0.41800000000E+01 0. -1.
</event>
<event>
11    1  0.7882745E-009  0.1442020E+03  0.7561462E-02  0.1102955E+00
         22   -1    0    0    0    0  0.00000000000E+00  0.00000000000E+00  0.12734011140E+04  0.12734011140E+04  0.00000000000E+00 0. -1.
         22   -1    0    0    0    0 -0.00000000000E+00 -0.00000000000E+00 -0.18221133970E+04  0.18221133970E+04  0.00000000000E+00 0. -1.
        -24    2    1    2    0    0 -0.65120531054E+01 -0.56459360639E+02 -0.17168473783E+04  0.17197134893E+04  0.81360300670E+02 0.  0.
         25    2    1    2    0    0  0.15886178059E+02  0.12629696267E+03 -0.23073977286E+02  0.17995660991E+03  0.12509468251E+03 0.  0.
         24    2    1    2    0    0 -0.93741249539E+01 -0.69837602028E+02  0.11912090726E+04  0.11958444118E+04  0.78100177151E+02 0.  0.
        -13    1    5    5    0    0 -0.19947393428E+02 -0.84657608457E+02  0.97927533907E+03  0.98313020444E+03  0.00000000000E+00 0.  1.
         14    1    5    5    0    0  0.10573268474E+02  0.14820006429E+02  0.21193373352E+03  0.21271420733E+03  0.00000000000E+00 0. -1.
         11    1    3    3    0    0 -0.37279306095E+02 -0.56580067905E+02 -0.12719967385E+04  0.12738001231E+04  0.00000000000E+00 0. -1.
        -12    1    3    3    0    0  0.30767252990E+02  0.12070726587E+00 -0.44485063984E+03  0.44591336624E+03  0.00000000000E+00 0.  1.
          5    1    4    4  501    0 -0.43846319790E+02  0.33548560211E+02  0.23485889222E+02  0.60142040570E+02  0.41800000000E+01 0. -1.
         -5    1    4    4    0  501  0.59732497850E+02  0.92748402456E+02 -0.46559866507E+02  0.11981456934E+03  0.41800000000E+01 0. -1.
</event>
<event>
11    1  0.7882745E-009  0.1426409E+03  0.7561462E-02  0.1104645E+00
         22   -1    0    0    0    0  0.00000000000E+00  0.00000000000E+00  0.70723190028E+02  0.70723190028E+02  0.00000000000E+00 0.  1.
         22   -1    0    0    0    0 -0.00000000000E+00 -0.00000000000E+00 -0.64642769767E+03  0.64642769767E+03  0.00000000000E+00 0.  1.
         24    2    1    2    0    0 -0.32201851963E+02  0.16506669257E+01 -0.37999826218E+03  0.38956366461E+03  0.79507770403E+02 0.  0.
         25    2    1    2    0    0  0.87890677547E+02 -0.20018319705E+02 -0.14518445933E+03  0.21177222979E+03  0.12507376125E+03 0.  0.
        -24    2    1    2    0    0 -0.55688825584E+02  0.18367652779E+02 -0.50521786126E+02  0.11581499330E+03  0.86151296189E+02 0.  0.
        -13    1    3    3    0    0 -0.38205566511E+02  0.27688132917E+02 -0.32511840605E+03  0.32852439174E+03  0.00000000000E+00 0.  1.
         14    1    3    3    0    0  0.60037145480E+01 -0.26037465991E+02 -0.54879856132E+02  0.61039272871E+02  0.00000000000E+00 0. -1.
         13    1    5    5    0    0 -0.10495063306E+02 -0.31344865887E+02 -0.32269542225E+02  0.46194916676E+02  0.00000000000E+00 0. -1.
        -14    1    5    5    0    0 -0.45193762278E+02  0.49712518667E+02 -0.18252243901E+02  0.69620076619E+02  0.00000000000E+00 0.  1.
          5    1    4    4  501    0  0.73400188703E+02 -0.28872555436E+02 -0.14973502045E+02  0.80392103609E+02  0.41800000000E+01 0. -1.
         -5    1    4    4    0  501  0.14490488844E+02  0.88542357309E+01 -0.13021095729E+03  0.13138012618E+03  0.41800000000E+01 0. -1.
</event>
<event>
11    1  0.7882745E-009  0.1498588E+03  0.7561462E-02  0.1097023E+00
         22   -1    0    0    0    0  0.00000000000E+00  0.00000000000E+00  0.15497707162E+04  0.15497707162E+04  0.00000000000E+00 0.  1.
         22   -1    0    0    0    0 -0.00000000000E+00 -0.00000000000E+00 -0.11704262935E+04  0.11704262935E+04  0.00000000000E+00 0. -1.
        -24    2    1    2    0    0  0.55514997767E+02  0.37248121841E+02 -0.54519048343E+03  0.55513802187E+03  0.80474980865E+02 0.  0.
         25    2    1    2    0    0 -0.94867312880E+02  0.35316506462E+02 -0.60762264369E+03  0.62856927187E+03  0.12508792800E+03 0.  0.
         24    2    1    2    0    0  0.39352315114E+02 -0.72564628303E+02  0.15321575499E+04  0.15364897159E+04  0.80496332849E+02 0.  0.
        -11    1    5    5    0    0  0.16130773145E+02 -0.72944870601E+02  0.14194288207E+04  0.14213934476E+04  0.00000000000E+00 0.  1.
         12    1    5    5    0    0  0.23221541969E+02  0.38024229843E+00  0.11272872918E+03  0.11509626830E+03  0.00000000000E+00 0. -1.
         11    1    3    3    0    0 -0.18659250746E+01  0.46359865208E+02 -0.25555264981E+03  0.25973039022E+03  0.00000000000E+00 0. -1.
        -12    1    3    3    0    0  0.57380922841E+02 -0.91117433676E+01 -0.28963783361E+03  0.29540763164E+03  0.00000000000E+00 0.  1.
          5    1    4    4  501    0  0.26739782902E+02  0.21534669574E+02 -0.19932019389E+03  0.20229871496E+03  0.41800000000E+01 0. -1.
         -5    1    4    4    0  501 -0.12160709578E+03  0.13781836888E+02 -0.40830244981E+03  0.42627055691E+03  0.41800000000E+01 0. -1.
</event>
<event>
11    1  0.7882745E-009  0.1546672E+03  0.7561462E-02  0.1092203E+00
         22   -1    0    0    0    0  0.00000000000E+00  0.00000000000E+00  0.33749255941E+03  0.33749255941E+03  0.00000000000E+00 0. -1.
         22   -1    0    0    0    0 -0.00000000000E+00 -0.00000000000E+00 -0.31871601487E+03  0.31871601487E+03  0.00000000000E+00 0. -1.
         24    2    1    2    0    0 -0.39675731402E+02 -0.98495077306E+02 -0.15913190069E+03  0.20721951769E+03  0.79633678676E+02 0.  0.
         25    2    1    2    0    0  0.28350678360E+02  0.59786747155E+02 -0.88946021764E+02  0.16716894549E+03  0.12512332097E+03 0.  0.
        -24    2    1    2    0    0  0.11325053042E+02  0.38708330151E+02  0.26685446699E+03  0.28182011109E+03  0.81146021550E+02 0.  0.
        -13    1    3    3    0    0  0.55456204483E+01 -0.78734145874E+02 -0.70770296750E+02  0.10601063406E+03  0.00000000000E+00 0.  1.
         14    1    3    3    0    0 -0.45221351850E+02 -0.19760931432E+02 -0.88361603941E+02  0.10120888363E+03  0.00000000000E+00 0. -1.
         11    1    5    5    0    0  0.20624423038E+02  0.70827424434E+01  0.23489969263E+03  0.23590972355E+03  0.00000000000E+00 0. -1.
        -12    1    5    5    0    0 -0.92993699962E+01  0.31625587708E+02  0.31954774363E+02  0.45910387548E+02  0.00000000000E+00 0.  1.
          5    1    4    4  501    0  0.34150768011E+02 -0.26367876915E+02 -0.30213726223E+00  0.43348628303E+02  0.41800000000E+01 0. -1.
         -5    1    4    4    0  501 -0.58000896517E+01  0.86154624070E+02 -0.88643884502E+02  0.12382031719E+03  0.41800000000E+01 0. -1.
</event>
<event>
11    1  0.1456454E-008  0.1520665E+03  0.7561462E-02  0.1094786E+00
         22   -1    0    0    0    0  0.00000000000E+00  0.00000000000E+00  0.14803931769E+04  0.14803931769E+04  0.00000000000E+00 0.  1.
         22   -1    0    0    0    0 -0.00000000000E+00 -0.00000000000E+00 -0.16565759957E+04  0.16565759957E+04  0.00000000000E+00 0.  1.
        -24    2    1    2    0    0  0.30961096009E+02 -0.29522109771E+02 -0.81414197851E+03  0.81963010348E+03  0.84476037513E+02 0.  0.
         25    2    1    2    0    0 -0.25432540523E+02  0.11570987686E+03 -0.82775835651E+03  0.84549835869E+03  0.12509191840E+03 0.  0.
         24    2    1    2    0    0 -0.55285554862E+01 -0.86187767087E+02  0.14657175162E+04  0.14718407104E+04  0.10260771568E+03 0.  0.
        -11    1    5    5    0    0 -0.86095275814E+01 -0.88944971058E+02  0.14649038291E+04  0.14676268464E+04  0.00000000000E+00 0.  1.
         12    1    5    5    0    0  0.30809720951E+01  0.27572039713E+01  0.81368711007E+00  0.42138639636E+01  0.00000000000E+00 0. -1.
         13    1    3    3    0    0  0.46007558072E+02 -0.48310602580E+00 -0.22908692872E+03  0.23366161366E+03  0.00000000000E+00 0. -1.
        -14    1    3    3    0    0 -0.15046462063E+02 -0.29039003745E+02 -0.58505504980E+03  0.58596848981E+03  0.00000000000E+00 0.  1.
          5    1    4    4  501    0  0.46374717471E+01  0.83109653409E+02 -0.20706765056E+03  0.22321112190E+03  0.41800000000E+01 0. -1.
         -5    1    4    4    0  501 -0.30070012270E+02  0.32600223449E+02 -0.62069070595E+03  0.62228723678E+03  0.41800000000E+01 0. -1.
</event>
<event>
11    1  0.7882745E-009  0.1958183E+03  0.7561462E-02  0.1057521E+00
         22   -1    0    0    0    0  0.00000000000E+00  0.00000000000E+00  0.45813799674E+03  0.45813799674E+03  0.00000000000E+00 0.  1.
         22   -1    0    0    0    0 -0.00000000000E+00 -0.00000000000E+00 -0.12369072633E+04  0.12369072633E+04  0.00000000000E+00 0.  1.
        -24    2    1    2    0    0 -0.76851681542E+02 -0.12165293033E+03 -0.69399069985E+03  0.71379914198E+03  0.84737873451E+02 0.  0.
         25    2    1    2    0    0  0.74486550421E+02  0.14720452361E+03 -0.50854216744E+03  0.54907116820E+03  0.12508634507E+03 0.  0.
         24    2    1    2    0    0  0.23651311214E+01 -0.25551593276E+02  0.42376360074E+03  0.43217494984E+03  0.80877192067E+02 0.  0.
        -13    1    5    5    0    0  0.32856878036E+02 -0.32704179720E+01  0.32096527614E+03  0.32265922977E+03  0.00000000000E+00 0.  1.
         14    1    5    5    0    0 -0.30491746914E+02 -0.22281175304E+02  0.10279832460E+03  0.10951572007E+03  0.00000000000E+00 0. -1.
         11    1    3    3    0    0 -0.45079764978E+01 -0.25351486804E+02 -0.31678592358E+03  0.31783067994E+03  0.00000000000E+00 0. -1.
        -12    1    3    3    0    0 -0.72343705045E+02 -0.96301443529E+02 -0.37720477627E+03  0.39596846204E+03  0.00000000000E+00 0.  1.
          5    1    4    4  501    0 -0.33098547237E+02  0.48299268545E+02 -0.11227142169E+03  0.12669126923E+03  0.41800000000E+01 0. -1.
         -5    1    4    4    0  501  0.10758509766E+03  0.98905255065E+02 -0.39627074575E+03  0.42237989897E+03  0.41800000000E+01 0. -1.
</event>
<event>
11    1  0.7882745E-009  0.1389358E+03  0.7561462E-02  0.1108753E+00
         22   -1    0    0    0    0  0.00000000000E+00  0.00000000000E+00  0.11983385157E+04  0.11983385157E+04  0.00000000000E+00 0.  1.
         22   -1    0    0    0    0 -0.00000000000E+00 -0.00000000000E+00 -0.28066562583E+04  0.28066562583E+04  0.00000000000E+00 0. -1.
        -24    2    1    2    0    0  0.10109605769E+02 -0.45208374573E+02 -0.26372342238E+04  0.26382319277E+04  0.55833253374E+02 0.  0.
         25    2    1    2    0    0  0.30709308343E+02 -0.10367823515E+00 -0.14182237922E+03  0.19158482370E+03  0.12509230615E+03 0.  0.
         24    2    1    2    0    0 -0.40818914112E+02  0.45312052808E+02  0.11707388604E+04  0.11751780225E+04  0.81820165296E+02 0.  0.
        -11    1    5    5    0    0 -0.34784567470E+02  0.61579428195E+02  0.11025614032E+04  0.11048274255E+04  0.00000000000E+00 0.  1.
         12    1    5    5    0    0 -0.60343466421E+01 -0.16267375387E+02  0.68177457192E+02  0.70350597087E+02  0.00000000000E+00 0. -1.
         13    1    3    3    0    0  0.28470705746E+02 -0.39309787252E+02 -0.22442340616E+04  0.22447588654E+04  0.00000000000E+00 0. -1.
        -14    1    3    3    0    0 -0.18361099978E+02 -0.58985873212E+01 -0.39300016212E+03  0.39347306230E+03  0.00000000000E+00 0.  1.
          5    1    4    4  501    0  0.35531749837E+01  0.28833078701E+02  0.12709642850E+02  0.31984041353E+02  0.41800000000E+01 0. -1.
         -5    1    4    4    0  501  0.27156133360E+02 -0.28936756936E+02 -0.15453202207E+03  0.15960078235E+03  0.41800000000E+01 0. -1.
</event>
<event>
11    1  0.7882745E-009  0.1446063E+03  0.7561462E-02  0.1102521E+00
         22   -1    0    0    0    0  0.00000000000E+00  0.00000000000E+00  0.23409494561E+03  0.23409494561E+03  0.00000000000E+00 0.  1.
         22   -1    0    0    0    0 -0.00000000000E+00 -0.00000000000E+00 -0.28132191186E+03  0.28132191186E+03  0.00000000000E+00 0. -1.
         24    2    1    2    0    0  0.17767941746E+02  0.46780613659E+02 -0.17669629984E+03  0.20139130893E+03  0.82660458296E+02 0.  0.
         25    2    1    2    0    0 -0.39228814253E+01  0.35568957473E+02 -0.12526038492E+02  0.13070943424E+03  0.12509002688E+03 0.  0.
        -24    2    1    2    0    0 -0.13845060321E+02 -0.82349571132E+02  0.14199537209E+03  0.18331611430E+03  0.80429935380E+02 0.  0.
        -11    1    3    3    0    0  0.31163613970E+02 -0.57928605527E+01 -0.25264512918E+02  0.40534228524E+02  0.00000000000E+00 0.  1.
         12    1    3    3    0    0 -0.13395672224E+02  0.52573474212E+02 -0.15143178693E+03  0.16085708041E+03  0.00000000000E+00 0. -1.
         11    1    5    5    0    0 -0.15059399015E+02 -0.56799762214E+02  0.25518900933E+02  0.64064130300E+02  0.00000000000E+00 0. -1.
        -12    1    5    5    0    0  0.12143386941E+01 -0.25549808918E+02  0.11647647116E+03  0.11925198400E+03  0.00000000000E+00 0.  1.
          5    1    4    4  501    0  0.45994761393E+02 -0.16861633431E+02  0.17552209434E+02  0.52205222091E+02  0.41800000000E+01 0. -1.
         -5    1    4    4    0  501 -0.49917642819E+02  0.52430590904E+02 -0.30078247925E+02  0.78504212151E+02  0.41800000000E+01 0. -1.
</event>
<event>
11    1  0.7882745E-009  0.1443656E+03  0.7561462E-02  0.1102779E+00
         22   -1    0    0    0    0  0.00000000000E+00  0.00000000000E+00  0.20250050190E+03  0.20250050190E+03  0.00000000000E+00 0.  1.
         22   -1    0    0    0    0 -0.00000000000E+00 -0.00000000000E+00 -0.94740106364E+03  0.94740106364E+03  0.00000000000E+00 0. -1.
         24    2    1    2    0    0 -0.72491193236E+02 -0.86444111947E+00 -0.77874562660E+03  0.78639052406E+03  0.81912056646E+02 0.  0.
         25    2    1    2    0    0  0.65065489523E+02  0.57260360391E+02 -0.11106655836E+03  0.18840288504E+03  0.12509036695E+03 0.  0.
        -24    2    1    2    0    0  0.74257037120E+01 -0.56395919271E+02  0.14491162322E+03  0.17510815645E+03  0.80173855609E+02 0.  0.
        -11    1    3    3    0    0  0.11454043359E+02  0.19788288722E+02 -0.15147220745E+03  0.15318812326E+03  0.00000000000E+00 0.  1.
         12    1    3    3    0    0 -0.83945236595E+02 -0.20652729842E+02 -0.62727341916E+03  0.63320240080E+03  0.00000000000E+00 0. -1.
         11    1    5    5    0    0  0.67846843072E+01  0.80178954401E+01 -0.52283631573E+01  0.11732619901E+02  0.00000000000E+00 0. -1.
        -12    1    5    5    0    0  0.64101940478E+00 -0.64413814711E+02  0.15013998638E+03  0.16337553655E+03  0.00000000000E+00 0.  1.
          5    1    4    4  501    0  0.61333049032E+02  0.70248515688E+02 -0.13288747000E+03  0.16239811866E+03  0.41800000000E+01 0.  1.
         -5    1    4    4    0  501  0.37324404917E+01 -0.12988155297E+02  0.21820911635E+02  0.26004766383E+02  0.41800000000E+01 0.  1.
</event>
<event>
11    1  0.7882745E-009  0.1338282E+03  0.7561462E-02  0.1114653E+00
         22   -1    0    0    0    0  0.00000000000E+00  0.00000000000E+00  0.69072639104E+03  0.69072639104E+03  0.00000000000E+00 0. -1.
         22   -1    0    0    0    0 -0.00000000000E+00 -0.00000000000E+00 -0.17665652242E+03  0.17665652242E+03  0.00000000000E+00 0. -1.
        -24    2    1    2    0    0  0.17361279388E+02 -0.42818223135E+02 -0.10742729673E+03  0.14168595778E+03  0.79996701771E+02 0.  0.
         25    2    1    2    0    0 -0.63547053857E+02  0.40428063040E+02  0.63085694095E+02  0.15905931679E+03  0.12508958839E+03 0.  0.
         24    2    1    2    0    0  0.46185774469E+02  0.23901600944E+01  0.55841147126E+03  0.56663763889E+03  0.84356410218E+02 0.  0.
        -13    1    5    5    0    0 -0.21748086857E+02 -0.84852897185E+01  0.22461168907E+03  0.22582158951E+03  0.00000000000E+00 0.  1.
         14    1    5    5    0    0  0.67933861326E+02  0.10875449813E+02  0.33379978219E+03  0.34081604938E+03  0.00000000000E+00 0. -1.
         13    1    3    3    0    0  0.44766971103E+02 -0.25488207350E+02 -0.92745241401E+02  0.10609151813E+03  0.00000000000E+00 0. -1.
        -14    1    3    3    0    0 -0.27405691716E+02 -0.17330015785E+02 -0.14682055332E+02  0.35594439654E+02  0.00000000000E+00 0.  1.
          5    1    4    4  501    0 -0.24884587795E+02  0.76142437377E+02  0.69158709523E+02  0.10591181701E+03  0.41800000000E+01 0.  1.
         -5    1    4    4    0  501 -0.38662466063E+02 -0.35714374337E+02 -0.60730154278E+01  0.53147499778E+02  0.41800000000E+01 0.  1.
</event>
<event>
11    1  0.7882745E-009  0.1660023E+03  0.7561462E-02  0.1081564E+00
         22   -1    0    0    0    0  0.00000000000E+00  0.00000000000E+00  0.14629134665E+03  0.14629134665E+03  0.00000000000E+00 0.  1.
         22   -1    0    0    0    0 -0.00000000000E+00 -0.00000000000E+00 -0.79150242389E+03  0.79150242389E+03  0.00000000000E+00 0. -1.
        -24    2    1    2    0    0  0.26837837161E+02  0.24864421667E+02 -0.62411756943E+03  0.63046815196E+03  0.81417695848E+02 0.  0.
         25    2    1    2    0    0 -0.86610045476E+02  0.68330002738E+02 -0.33101102090E+02  0.17004135445E+03  0.12509232595E+03 0.  0.
         24    2    1    2    0    0  0.59772208315E+02 -0.93194424405E+02  0.12007594278E+02  0.13728426414E+03  0.80279942899E+02 0.  0.
        -11    1    5    5    0    0  0.55628804225E+02 -0.90791687815E+02  0.36321492587E+02  0.11250309000E+03  0.00000000000E+00 0.  1.
         12    1    5    5    0    0  0.41434040907E+01 -0.24027365897E+01 -0.24313898309E+02  0.24781174136E+02  0.00000000000E+00 0. -1.
         11    1    3    3    0    0  0.16340927682E+02  0.54059348397E+02 -0.33957130647E+03  0.34423554617E+03  0.00000000000E+00 0. -1.
        -12    1    3    3    0    0  0.10496909479E+02 -0.29194926730E+02 -0.28454626295E+03  0.28623260579E+03  0.00000000000E+00 0.  1.
          5    1    4    4  501    0 -0.24737477218E+02 -0.25358904637E+00 -0.67013025349E+02  0.71555747868E+02  0.41800000000E+01 0.  1.
         -5    1    4    4    0  501 -0.61872568258E+02  0.68583591785E+02  0.33911923259E+02  0.98485606583E+02  0.41800000000E+01 0.  1.
</event>
<event>
11    1  0.7882745E-009  0.1626782E+03  0.7561462E-02  0.1084585E+00
         22   -1    0    0    0    0  0.00000000000E+00  0.00000000000E+00  0.15806928254E+04  0.15806928254E+04  0.00000000000E+00 0.  1.
         22   -1    0    0    0    0 -0.00000000000E+00 -0.00000000000E+00 -0.59029841699E+03  0.59029841699E+03  0.00000000000E+00 0. -1.
        -24    2    1    2    0    0  0.27940358937E+02 -0.14619614764E+02 -0.40055204397E+03  0.41005042014E+03  0.81884127505E+02 0.  0.
         25    2    1    2    0    0 -0.48043931334E+02  0.11636313539E+03 -0.13907108185E+03  0.22547074986E+03  0.12509074554E+03 0.  0.
         24    2    1    2    0    0  0.20103572397E+02 -0.10174352062E+03  0.15300175342E+04  0.15354700724E+04  0.77193202723E+02 0.  0.
        -11    1    5    5    0    0 -0.10874755037E+01 -0.10416714448E+03  0.13824110067E+04  0.13863304685E+04  0.00000000000E+00 0.  1.
         12    1    5    5    0    0  0.21191047901E+02  0.24236238575E+01  0.14760652754E+03  0.14913960385E+03  0.00000000000E+00 0. -1.
         11    1    3    3    0    0  0.14395857006E+02  0.34156670800E+02 -0.17671590746E+03  0.18056143223E+03  0.00000000000E+00 0. -1.
        -12    1    3    3    0    0  0.13544501931E+02 -0.48776285564E+02 -0.22383613651E+03  0.22948898792E+03  0.00000000000E+00 0.  1.
          5    1    4    4  501    0 -0.46023062570E+02 -0.58629748024E+01 -0.72605366578E+02  0.86264178068E+02  0.41800000000E+01 0. -1.
         -5    1    4    4    0  501 -0.20208687637E+01  0.12222611019E+03 -0.66465715268E+02  0.13920657179E+03  0.41800000000E+01 0. -1.
</event>
<event>
11    1  0.7882745E-009  0.2107477E+03  0.7561462E-02  0.1047173E+00
         22   -1    0    0    0    0  0.00000000000E+00  0.00000000000E+00  0.61975578089E+03  0.61975578089E+03  0.00000000000E+00 0.  1.
         22   -1    0    0    0    0 -0.00000000000E+00 -0.00000000000E+00 -0.65045704610E+03  0.65045704610E+03  0.00000000000E+00 0.  1.
         24    2    1    2    0    0 -0.17136933998E+03 -0.34502222713E+02 -0.49334731651E+03  0.52959136044E+03  0.80731532227E+02 0.  0.
         25    2    1    2    0    0  0.15457688002E+03 -0.27040131360E+02 -0.58812577248E+02  0.20911840336E+03  0.12508559804E+03 0.  0.
        -24    2    1    2    0    0  0.16792459956E+02  0.61542354073E+02  0.52145862855E+03  0.53150306319E+03  0.80665710384E+02 0.  0.
        -13    1    3    3    0    0 -0.15353335791E+03  0.86854690175E-01 -0.40027189256E+03  0.42870746146E+03  0.00000000000E+00 0.  1.
         14    1    3    3    0    0 -0.17835982066E+02 -0.34589077403E+02 -0.93075423945E+02  0.10088389898E+03  0.00000000000E+00 0. -1.
         13    1    5    5    0    0  0.47903536261E+02  0.48642036691E+02  0.38055479849E+03  0.38662999260E+03  0.00000000000E+00 0. -1.
        -14    1    5    5    0    0 -0.31111076305E+02  0.12900317382E+02  0.14090383006E+03  0.14487307059E+03  0.00000000000E+00 0.  1.
          5    1    4    4  501    0 -0.14025706043E+02 -0.17776350143E+02  0.12001781240E+02  0.25966020245E+02  0.41800000000E+01 0.  1.
         -5    1    4    4    0  501  0.16860258607E+03 -0.92637812166E+01 -0.70814358488E+02  0.18315238311E+03  0.41800000000E+01 0.  1.
</event>
<event>
11    1  0.7882745E-009  0.1492620E+03  0.7561462E-02  0.1097635E+00
         22   -1    0    0    0    0  0.00000000000E+00  0.00000000000E+00  0.84636461688E+03  0.84636461688E+03  0.00000000000E+00 0.  1.
         22   -1    0    0    0    0 -0.00000000000E+00 -0.00000000000E+00 -0.10414322714E+04  0.10414322714E+04  0.00000000000E+00 0. -1.
         24    2    1    2    0    0 -0.65394383885E+02  0.45138196135E+02 -0.93173606268E+03  0.93867920272E+03  0.81686430488E+02 0.  0.
         25    2    1    2    0    0  0.98236570575E+02 -0.77568105079E+02 -0.27574226075E+02  0.17908723514E+03  0.12507863576E+03 0.  0.
        -24    2    1    2    0    0 -0.32842186690E+02  0.32429908944E+02  0.76424263426E+03  0.77003045039E+03  0.82157058709E+02 0.  0.
        -11    1    3    3    0    0 -0.99664985923E+01  0.14659590811E+02 -0.30889294394E+02  0.35614367959E+02  0.00000000000E+00 0.  1.
         12    1    3    3    0    0 -0.55427885293E+02  0.30478605324E+02 -0.90084676828E+03  0.90306483476E+03  0.00000000000E+00 0. -1.
         13    1    5    5    0    0 -0.29406539065E+02 -0.55256512948E+01  0.92742893968E+02  0.97450098736E+02  0.00000000000E+00 0. -1.
        -14    1    5    5    0    0 -0.34356476249E+01  0.37955560239E+02  0.67149974029E+03  0.67258035166E+03  0.00000000000E+00 0.  1.
          5    1    4    4  501    0 -0.26541511714E+01 -0.21905466322E+01  0.37070661794E+02  0.37463974414E+02  0.41800000000E+01 0.  1.
         -5    1    4    4    0  501  0.10089072175E+03 -0.75377558447E+02 -0.64644887869E+02  0.14162326073E+03  0.41800000000E+01 0.  1.
</event>
<event>
11    1  0.7882745E-009  0.1389962E+03  0.7561462E-02  0.1108685E+00
         22   -1    0    0    0    0  0.00000000000E+00  0.00000000000E+00  0.33522250467E+03  0.33522250467E+03  0.00000000000E+00 0.  1.
         22   -1    0    0    0    0 -0.00000000000E+00 -0.00000000000E+00 -0.72385844470E+03  0.72385844470E+03  0.00000000000E+00 0. -1.
        -24    2    1    2    0    0 -0.39063127515E+02 -0.30219224752E+02 -0.63567471223E+03  0.64268780775E+03  0.80784583822E+02 0.  0.
         25    2    1    2    0    0  0.86751902202E+02 -0.39838944501E+01  0.28211839888E+01  0.15230703526E+03  0.12509080686E+03 0.  0.
         24    2    1    2    0    0 -0.47688774687E+02  0.34203119202E+02  0.24421758821E+03  0.26408610636E+03  0.81579216631E+02 0.  0.
        -13    1    5    5    0    0 -0.60655824875E+02  0.65312843699E+01  0.20767190344E+03  0.21644723663E+03  0.00000000000E+00 0.  1.
         14    1    5    5    0    0  0.12967050188E+02  0.27671834832E+02  0.36545684769E+02  0.47638869726E+02  0.00000000000E+00 0. -1.
         11    1    3    3    0    0  0.59175844686E+01 -0.26627184367E+01 -0.43940481303E+03  0.43945272509E+03  0.00000000000E+00 0. -1.
        -12    1    3    3    0    0 -0.44980711984E+02 -0.27556506315E+02 -0.19626989920E+03  0.20323508266E+03  0.00000000000E+00 0.  1.
          5    1    4    4  501    0  0.97317277163E+02 -0.15956421076E+02 -0.39933167737E+02  0.10647718109E+03  0.41800000000E+01 0. -1.
         -5    1    4    4    0  501 -0.10565374961E+02  0.11972526626E+02  0.42754351725E+02  0.45829854171E+02  0.41800000000E+01 0. -1.
</event>
<event>
11    1  0.7882745E-009  0.1580594E+03  0.7561462E-02  0.1088917E+00
         22   -1    0    0    0    0  0.00000000000E+00  0.00000000000E+00  0.13416244218E+04  0.13416244218E+04  0.00000000000E+00 0. -1.
         22   -1    0    0    0    0 -0.00000000000E+00 -0.00000000000E+00 -0.18945152009E+03  0.18945152009E+03  0.00000000000E+00 0.  1.
        -24    2    1    2    0    0  0.31477926892E+02 -0.44644619800E+02 -0.11418129595E+03  0.14973006957E+03  0.79985770180E+02 0.  0.
         25    2    1    2    0    0 -0.12435284675E+03  0.23708744848E+02  0.93487872337E+02  0.20103319516E+03  0.12509447711E+03 0.  0.
         24    2    1    2    0    0  0.92874919858E+02  0.20935874952E+02  0.11728663254E+04  0.11803126772E+04  0.91970306172E+02 0.  0.
        -13    1    5    5    0    0  0.39976788545E+02 -0.36576917205E+02  0.46480086612E+03  0.46794856517E+03  0.00000000000E+00 0.  1.
         14    1    5    5    0    0  0.52898131313E+02  0.57512792158E+02  0.70806545924E+03  0.71236411205E+03  0.00000000000E+00 0. -1.
         13    1    3    3    0    0  0.17474983792E+02 -0.38107385150E+02 -0.83124377479E+01  0.42739261608E+02  0.00000000000E+00 0. -1.
        -14    1    3    3    0    0  0.14002943100E+02 -0.65372346506E+01 -0.10586885820E+03  0.10699080796E+03  0.00000000000E+00 0.  1.
          5    1    4    4  501    0 -0.13308964113E+03  0.24633546268E+02  0.11484968826E+03  0.17756009538E+03  0.41800000000E+01 0.  1.
         -5    1    4    4    0  501  0.87367943806E+01 -0.92480142026E+00 -0.21361815921E+02  0.23473099777E+02  0.41800000000E+01 0.  1.
</event>
<event>
11    1  0.7882745E-009  0.1457918E+03  0.7561462E-02  0.1101258E+00
         22   -1    0    0    0    0  0.00000000000E+00  0.00000000000E+00  0.13601478354E+03  0.13601478354E+03  0.00000000000E+00 0.  1.
         22   -1    0    0    0    0 -0.00000000000E+00 -0.00000000000E+00 -0.82258185304E+03  0.82258185304E+03  0.00000000000E+00 0.  1.
         24    2    1    2    0    0 -0.39218027367E+02  0.43814486459E+02 -0.44028744410E+03  0.45138946321E+03  0.80259897665E+02 0.  0.
         25    2    1    2    0    0  0.10116918260E+03 -0.30328563567E+01 -0.33186473647E+03  0.36881660777E+03  0.12508830932E+03 0.  0.
        -24    2    1    2    0    0 -0.61951155236E+02 -0.40781630102E+02  0.85585111062E+02  0.13839056560E+03  0.79536472280E+02 0.  0.
        -13    1    3    3    0    0 -0.61964113268E+02  0.30239243985E+02 -0.36795503366E+03  0.37435927931E+03  0.00000000000E+00 0.  1.
         14    1    3    3    0    0  0.22746085900E+02  0.13575242474E+02 -0.72332410438E+02  0.77030183901E+02  0.00000000000E+00 0. -1.
         11    1    5    5    0    0 -0.32981598323E+02  0.21929135890E+02  0.28858114880E+02  0.49004730621E+02  0.00000000000E+00 0. -1.
        -12    1    5    5    0    0 -0.28969556913E+02 -0.62710765992E+02  0.56726996182E+02  0.89385834979E+02  0.00000000000E+00 0.  1.
          5    1    4    4  501    0 -0.16866008809E+02 -0.34362554839E+02 -0.71729839660E+02  0.81411852490E+02  0.41800000000E+01 0. -1.
         -5    1    4    4    0  501  0.11803519141E+03  0.31329698482E+02 -0.26013489681E+03  0.28740475528E+03  0.41800000000E+01 0. -1.
</event>
<event>
11    1  0.7882745E-009  0.1328933E+03  0.7561462E-02  0.1115764E+00
         22   -1    0    0    0    0  0.00000000000E+00  0.00000000000E+00  0.59527399077E+03  0.59527399077E+03  0.00000000000E+00 0. -1.
         22   -1    0    0    0    0 -0.00000000000E+00 -0.00000000000E+00 -0.32512329766E+03  0.32512329766E+03  0.00000000000E+00 0.  1.
        -24    2    1    2    0    0  0.28313154288E+01 -0.26699650101E+02 -0.25961523626E+03  0.27301240201E+03  0.80092528293E+02 0.  0.
         25    2    1    2    0    0  0.35685865232E+02  0.14411343939E+01  0.22881976331E+02  0.13208565443E+03  0.12508987737E+03 0.  0.
         24    2    1    2    0    0 -0.38517180660E+02  0.25258515708E+02  0.50688395304E+03  0.51529923199E+03  0.80500874629E+02 0.  0.
        -11    1    5    5    0    0 -0.44003609113E+02 -0.64853645526E+00  0.12541543134E+03  0.13291263534E+03  0.00000000000E+00 0.  1.
         12    1    5    5    0    0  0.54864284522E+01  0.25907052163E+02  0.38146852170E+03  0.38238659665E+03  0.00000000000E+00 0. -1.
         11    1    3    3    0    0 -0.15185666044E+02 -0.36245407311E+02 -0.56193947382E+02  0.68571814375E+02  0.00000000000E+00 0. -1.
        -12    1    3    3    0    0  0.18016981473E+02  0.95457572095E+01 -0.20342128888E+03  0.20444058764E+03  0.00000000000E+00 0.  1.
          5    1    4    4  501    0 -0.35757210215E+02  0.29983313661E+02 -0.10668532993E+02  0.48050673010E+02  0.41800000000E+01 0.  1.
         -5    1    4    4    0  501  0.71443075447E+02 -0.28542179267E+02  0.33550509324E+02  0.84034981422E+02  0.41800000000E+01 0.  1.
</event>
<event>
11    1  0.7882745E-009  0.1378832E+03  0.7561462E-02  0.1109945E+00
         22   -1    0    0    0    0  0.00000000000E+00  0.00000000000E+00  0.14691696716E+04  0.14691696716E+04  0.00000000000E+00 0. -1.
         22   -1    0    0    0    0 -0.00000000000E+00 -0.00000000000E+00 -0.23072037682E+04  0.23072037682E+04  0.00000000000E+00 0. -1.
         24    2    1    2    0    0 -0.27072764151E+02 -0.68176591618E+00 -0.13664650176E+04  0.13691578888E+04  0.81444955958E+02 0.  0.
         25    2    1    2    0    0  0.33226079881E+02 -0.57001585748E+02 -0.93245255350E+03  0.94311560087E+03  0.12508444712E+03 0.  0.
        -24    2    1    2    0    0 -0.61533157306E+01  0.57683351664E+02  0.14608834744E+04  0.14640999501E+04  0.77736129598E+02 0.  0.
        -13    1    3    3    0    0  0.29120736469E+02  0.21554157662E+01 -0.52846044393E+03  0.52926657169E+03  0.00000000000E+00 0.  1.
         14    1    3    3    0    0 -0.56193500619E+02 -0.28371816824E+01 -0.83800457365E+03  0.83989131711E+03  0.00000000000E+00 0. -1.
         11    1    5    5    0    0  0.26848635468E+02  0.29837611303E+02  0.10853799976E+04  0.10861219413E+04  0.00000000000E+00 0. -1.
        -12    1    5    5    0    0 -0.33001951198E+02  0.27845740361E+02  0.37550347682E+03  0.37797800881E+03  0.00000000000E+00 0.  1.
          5    1    4    4  501    0 -0.16159940235E+02 -0.65380310033E+02 -0.25421700586E+03  0.26301993665E+03  0.41800000000E+01 0.  1.
         -5    1    4    4    0  501  0.49386020116E+02  0.83787242856E+01 -0.67823554764E+03  0.68009566422E+03  0.41800000000E+01 0.  1.
</event>
<event>
11    1  0.7882745E-009  0.1755112E+03  0.7561462E-02  0.1073333E+00
         22   -1    0    0    0    0  0.00000000000E+00  0.00000000000E+00  0.26986610430E+04  0.26986610430E+04  0.00000000000E+00 0.  1.
         22   -1    0    0    0    0 -0.00000000000E+00 -0.00000000000E+00 -0.19977146047E+03  0.19977146047E+03  0.00000000000E+00 0. -1.
        -24    2    1    2    0    0  0.12435417636E+03 -0.47318750613E+00 -0.16398358262E+03  0.22142065421E+03  0.81684182422E+02 0.  0.
         25    2    1    2    0    0 -0.81886628689E+02  0.97827420141E+00  0.94437823540E+03  0.95614063388E+03  0.12509309847E+03 0.  0.
         24    2    1    2    0    0 -0.42467547668E+02 -0.50508669528E+00  0.17184949297E+04  0.17208712153E+04  0.79807071299E+02 0.  0.
        -11    1    5    5    0    0 -0.13501604583E+02  0.11230626365E+02  0.15048488804E+04  0.15049513524E+04  0.00000000000E+00 0.  1.
         12    1    5    5    0    0 -0.28965943085E+02 -0.11735713060E+02  0.21364604934E+03  0.21591986295E+03  0.00000000000E+00 0. -1.
         13    1    3    3    0    0  0.10662176816E+03 -0.18694498861E+02 -0.82615620241E+02  0.13617278157E+03  0.00000000000E+00 0. -1.
        -14    1    3    3    0    0  0.17732408201E+02  0.18221311354E+02 -0.81367962380E+02  0.85247872642E+02  0.00000000000E+00 0.  1.
          5    1    4    4  501    0 -0.10768387342E+03  0.18672447347E+02  0.56748781945E+03  0.57793111572E+03  0.41800000000E+01 0. -1.
         -5    1    4    4    0  501  0.25797244730E+02 -0.17694173145E+02  0.37689041594E+03  0.37820951816E+03  0.41800000000E+01 0. -1.
</event>
<event>
11    1  0.7882745E-009  0.1332339E+03  0.7561462E-02  0.1115358E+00
         22   -1    0    0    0    0  0.00000000000E+00  0.00000000000E+00  0.56087258811E+03  0.56087258811E+03  0.00000000000E+00 0.  1.
         22   -1    0    0    0    0 -0.00000000000E+00 -0.00000000000E+00 -0.19348341755E+03  0.19348341755E+03  0.00000000000E+00 0.  1.
         24    2    1    2    0    0 -0.10470290639E+02 -0.45870746655E+02 -0.14110077516E+03  0.16944217110E+03  0.81163219562E+02 0.  0.
         25    2    1    2    0    0  0.35136449401E+02  0.26816270429E+02  0.99835667331E+02  0.16603605816E+03  0.12508848748E+03 0.  0.
        -24    2    1    2    0    0 -0.24666158762E+02  0.19054476227E+02  0.40865427839E+03  0.41887777641E+03  0.86537736691E+02 0.  0.
        -13    1    3    3    0    0  0.33346127305E+02 -0.32989194958E+02 -0.57754758566E+02  0.74403382499E+02  0.00000000000E+00 0.  1.
         14    1    3    3    0    0 -0.43816417945E+02 -0.12881551697E+02 -0.83346016597E+02  0.95038788598E+02  0.00000000000E+00 0. -1.
         13    1    5    5    0    0 -0.56419106440E+02  0.34928341392E+01  0.26038406585E+03  0.26644920193E+03  0.00000000000E+00 0. -1.
        -14    1    5    5    0    0  0.31752947678E+02  0.15561642088E+02  0.14827021254E+03  0.15242857448E+03  0.00000000000E+00 0.  1.
          5    1    4    4  501    0 -0.28538599928E+02  0.51411354418E+02  0.23272058543E+02  0.63376968670E+02  0.41800000000E+01 0. -1.
         -5    1    4    4    0  501  0.63675049329E+02 -0.24595083989E+02  0.76563608788E+02  0.10265908949E+03  0.41800000000E+01 0. -1.
</event>
<event>
11    1  0.7882745E-009  0.1404451E+03  0.7561462E-02  0.1107062E+00
         22   -1    0    0    0    0  0.00000000000E+00  0.00000000000E+00  0.19508133648E+04  0.19508133648E+04  0.00000000000E+00 0. -1.
         22   -1    0    0    0    0 -0.00000000000E+00 -0.00000000000E+00 -0.53356110025E+03  0.53356110025E+03  0.00000000000E+00 0. -1.
         24    2    1    2    0    0  0.63494560597E+02  0.64250840937E+01 -0.51899477005E+03  0.52891771297E+03  0.79533230914E+02 0.  0.
         25    2    1    2    0    0 -0.68619293263E+02  0.49429492184E+01  0.59702709579E+03  0.61385851113E+03  0.12509148022E+03 0.  0.
        -24    2    1    2    0    0  0.51247326659E+01 -0.11368033312E+02  0.13392199388E+04  0.13415982409E+04  0.78868882021E+02 0.  0.
        -13    1    3    3    0    0  0.48539954920E+02  0.29072211880E+02 -0.17645033222E+03  0.18529986634E+03  0.00000000000E+00 0.  1.
         14    1    3    3    0    0  0.14954605677E+02 -0.22647127786E+02 -0.34254443784E+03  0.34361784663E+03  0.00000000000E+00 0. -1.
         11    1    5    5    0    0 -0.13956650678E+02 -0.67673010262E+00  0.12363392217E+04  0.12364181805E+04  0.00000000000E+00 0. -1.
        -12    1    5    5    0    0  0.19081383344E+02 -0.10691303209E+02  0.10288071712E+03  0.10518006042E+03  0.00000000000E+00 0.  1.
          5    1    4    4  501    0 -0.59366515826E+02  0.49011254790E+02  0.50988596762E+03  0.51568174165E+03  0.41800000000E+01 0. -1.
         -5    1    4    4    0  501 -0.92527774373E+01 -0.44068305572E+02  0.87141128167E+02  0.98176769474E+02  0.41800000000E+01 0. -1.
</event>
<event>
11    1  0.7882745E-009  0.1458704E+03  0.7561462E-02  0.1101175E+00
         22   -1    0    0    0    0  0.00000000000E+00  0.00000000000E+00  0.15195436605E+03  0.15195436605E+03  0.00000000000E+00 0.  1.
         22   -1    0    0    0    0 -0.00000000000E+00 -0.00000000000E+00 -0.16957902445E+04  0.16957902445E+04  0.00000000000E+00 0. -1.
        -24    2    1    2    0    0 -0.19501096714E+02  0.71777625924E+02 -0.14379259181E+04  0.14420274818E+04  0.79246400763E+02 0.  0.
         25    2    1    2    0    0  0.14488528287E+02 -0.81494216738E+02 -0.21985270626E+03  0.26614637812E+03  0.12508979705E+03 0.  0.
         24    2    1    2    0    0  0.50125684261E+01  0.97165908142E+01  0.11394274589E+03  0.13957075062E+03  0.79859295692E+02 0.  0.
        -13    1    5    5    0    0  0.78952578389E+01  0.40945276197E+02  0.34361618432E+02  0.54033059884E+02  0.00000000000E+00 0.  1.
         14    1    5    5    0    0 -0.28826894128E+01 -0.31228685382E+02  0.79581127460E+02  0.85537690738E+02  0.00000000000E+00 0. -1.
         13    1    3    3    0    0 -0.18749052486E+02  0.28525996125E+01 -0.82830355766E+03  0.82852063820E+03  0.00000000000E+00 0. -1.
        -14    1    3    3    0    0 -0.75204422718E+00  0.68925026311E+02 -0.60962236046E+03  0.61350684365E+03  0.00000000000E+00 0.  1.
          5    1    4    4  501    0 -0.89227682629E+01 -0.57446536458E+02 -0.17313133001E+02  0.60802445006E+02  0.41800000000E+01 0. -1.
         -5    1    4    4    0  501  0.23411296550E+02 -0.24047680280E+02 -0.20253957326E+03  0.20534393312E+03  0.41800000000E+01 0. -1.
</event>
<event>
11    1  0.7882745E-009  0.1529152E+03  0.7561462E-02  0.1093937E+00
         22   -1    0    0    0    0  0.00000000000E+00  0.00000000000E+00  0.10732026437E+03  0.10732026437E+03  0.00000000000E+00 0.  1.
         22   -1    0    0    0    0 -0.00000000000E+00 -0.00000000000E+00 -0.33420115622E+04  0.33420115622E+04  0.00000000000E+00 0.  1.
        -24    2    1    2    0    0  0.20210344422E+02  0.21029778917E+02 -0.24863721919E+04  0.24878126812E+04  0.79464143897E+02 0.  0.
         25    2    1    2    0    0  0.43846507284E+02  0.41011791950E+02 -0.81325856564E+03  0.82500952883E+03  0.12508694896E+03 0.  0.
         24    2    1    2    0    0 -0.64056851706E+02 -0.62041570867E+02  0.64939459776E+02  0.13650961652E+03  0.80407121580E+02 0.  0.
        -13    1    5    5    0    0 -0.31499852111E+02 -0.60317517606E+02  0.76065535552E+02  0.10206081183E+03  0.00000000000E+00 0.  1.
         14    1    5    5    0    0 -0.32556999595E+02 -0.17240532608E+01 -0.11126075777E+02  0.34448804688E+02  0.00000000000E+00 0. -1.
         11    1    3    3    0    0 -0.22461730087E+02 -0.12070186057E+02 -0.44791434461E+03  0.44863958678E+03  0.00000000000E+00 0. -1.
        -12    1    3    3    0    0  0.42672074509E+02  0.33099964974E+02 -0.20384578473E+04  0.20391730944E+04  0.00000000000E+00 0.  1.
          5    1    4    4  501    0  0.12099987318E+02  0.19620039725E+02 -0.19960679762E+02  0.30777537076E+02  0.41800000000E+01 0.  1.
         -5    1    4    4    0  501  0.31746519965E+02  0.21391752225E+02 -0.79329788588E+03  0.79423199176E+03  0.41800000000E+01 0.  1.
</event>
<event>
11    1  0.7882745E-009  0.1364978E+03  0.7561462E-02  0.1111533E+00
         22   -1    0    0    0    0  0.00000000000E+00  0.00000000000E+00  0.55882938515E+03  0.55882938515E+03  0.00000000000E+00 0. -1.
         22   -1    0    0    0    0 -0.00000000000E+00 -0.00000000000E+00 -0.27322988916E+04  0.27322988916E+04  0.00000000000E+00 0.  1.
         24    2    1    2    0    0 -0.22254663830E+02 -0.50174620643E+02 -0.26116732122E+04  0.26135069921E+04  0.81049786023E+02 0.  0.
         25    2    1    2    0    0  0.29106935571E+02  0.33557796362E+02 -0.78309958202E+02  0.15413198789E+03  0.12510348013E+03 0.  0.
        -24    2    1    2    0    0 -0.68522717404E+01  0.16616824281E+02  0.51651366395E+03  0.52348929676E+03  0.83256268767E+02 0.  0.
        -11    1    3    3    0    0 -0.49671669691E+02 -0.22496390639E+02 -0.18866395992E+04  0.18874274396E+04  0.00000000000E+00 0.  1.
         12    1    3    3    0    0  0.27417005861E+02 -0.27678230004E+02 -0.72503361297E+03  0.72607955251E+03  0.00000000000E+00 0. -1.
         13    1    5    5    0    0 -0.24579708982E+02  0.26746148009E+02  0.48215938840E+03  0.48352579492E+03  0.00000000000E+00 0. -1.
        -14    1    5    5    0    0  0.17727437242E+02 -0.10129323728E+02  0.34354275550E+02  0.39963501835E+02  0.00000000000E+00 0.  1.
          5    1    4    4  501    0 -0.12690406515E+02  0.65596203384E+02 -0.75962257217E+02  0.10125040858E+03  0.41800000000E+01 0. -1.
         -5    1    4    4    0  501  0.41797342086E+02 -0.32038407023E+02 -0.23477009850E+01  0.52881579306E+02  0.41800000000E+01 0. -1.
</event>
<event>
11    1  0.7882745E-009  0.2150568E+03  0.7561462E-02  0.1044359E+00
         22   -1    0    0    0    0  0.00000000000E+00  0.00000000000E+00  0.53236263662E+03  0.53236263662E+03  0.00000000000E+00 0.  1.
         22   -1    0    0    0    0 -0.00000000000E+00 -0.00000000000E+00 -0.46670141543E+03  0.46670141543E+03  0.00000000000E+00 0. -1.
        -24    2    1    2    0    0  0.13768720493E+02  0.78218359828E+02 -0.22223299638E+03  0.24916442384E+03  0.79923187818E+02 0.  0.
         25    2    1    2    0    0  0.75365470025E+02 -0.22259419785E+03 -0.12667057157E+03  0.29482185940E+03  0.12508542715E+03 0.  0.
         24    2    1    2    0    0 -0.89134190519E+02  0.14437583803E+03  0.41456478913E+03  0.45507776881E+03  0.80265339657E+02 0.  0.
        -11    1    5    5    0    0 -0.13821307767E+02  0.94665800876E+02  0.24458149573E+03  0.26262663699E+03  0.00000000000E+00 0.  1.
         12    1    5    5    0    0 -0.75312882751E+02  0.49710037150E+02  0.16998329340E+03  0.19245113182E+03  0.00000000000E+00 0. -1.
         13    1    3    3    0    0 -0.12530659814E+02  0.32074159038E+02 -0.17414426715E+03  0.17751618206E+03  0.00000000000E+00 0. -1.
        -14    1    3    3    0    0  0.26299380308E+02  0.46144200790E+02 -0.48088729229E+02  0.71648241779E+02  0.00000000000E+00 0.  1.
          5    1    4    4  501    0  0.44490366327E+01 -0.89301394093E+02 -0.11155415757E+03  0.14302564590E+03  0.41800000000E+01 0. -1.
         -5    1    4    4    0  501  0.70916433392E+02 -0.13329280376E+03 -0.15116413999E+02  0.15179621350E+03  0.41800000000E+01 0. -1.
</event>
<event>
11    1  0.7882745E-009  0.1327727E+03  0.7561462E-02  0.1115908E+00
         22   -1    0    0    0    0  0.00000000000E+00  0.00000000000E+00  0.13882126069E+03  0.13882126069E+03  0.00000000000E+00 0. -1.
         22   -1    0    0    0    0 -0.00000000000E+00 -0.00000000000E+00 -0.13948147495E+04  0.13948147495E+04  0.00000000000E+00 0.  1.
         24    2    1    2    0    0  0.15058644285E+02  0.11318158751E+01 -0.12284833488E+04  0.12310866743E+04  0.78581279151E+02 0.  0.
         25    2    1    2    0    0  0.21050943012E+02  0.27314237811E+02 -0.11670726416E+03  0.17452123856E+03  0.12509143620E+03 0.  0.
        -24    2    1    2    0    0 -0.36109587298E+02 -0.28446053686E+02  0.89197124217E+02  0.12802809732E+03  0.79510920446E+02 0.  0.
        -13    1    3    3    0    0 -0.39197952291E+01 -0.22152113690E+02 -0.10384677954E+04  0.10387114339E+04  0.00000000000E+00 0.  1.
         14    1    3    3    0    0  0.18978439515E+02  0.23283929565E+02 -0.19001555349E+03  0.19237524038E+03  0.00000000000E+00 0. -1.
         11    1    5    5    0    0 -0.15882392679E+01 -0.11999920941E+02  0.88969049521E+02  0.89788709642E+02  0.00000000000E+00 0. -1.
        -12    1    5    5    0    0 -0.34521348030E+02 -0.16446132745E+02  0.22807469608E+00  0.38239387679E+02  0.00000000000E+00 0.  1.
          5    1    4    4  501    0 -0.10314878685E+02 -0.37465214556E+02 -0.89147108905E+02  0.97338165434E+02  0.41800000000E+01 0. -1.
         -5    1    4    4    0  501  0.31365821697E+02  0.64779452366E+02 -0.27560155259E+02  0.77183073128E+02  0.41800000000E+01 0. -1.
</event>
<event>
11    1  0.7882745E-009  0.2588477E+03  0.7561462E-02  0.1019289E+00
         22   -1    0    0    0    0  0.00000000000E+00  0.00000000000E+00  0.21909722643E+03  0.21909722643E+03  0.00000000000E+00 0. -1.
         22   -1    0    0    0    0 -0.00000000000E+00 -0.00000000000E+00 -0.12149664856E+04  0.12149664856E+04  0.00000000000E+00 0.  1.
         24    2    1    2    0    0 -0.20317966655E+02  0.21827244570E+03 -0.94609287869E+03  0.97490432158E+03  0.85387474531E+02 0.  0.
         25    2    1    2    0    0  0.30805032650E+02 -0.27700079311E+03 -0.12889617400E+03  0.33157202599E+03  0.12508954921E+03 0.  0.
        -24    2    1    2    0    0 -0.10487065995E+02  0.58728347411E+02  0.79119793538E+02  0.12758736445E+03  0.80371614979E+02 0.  0.
        -11    1    3    3    0    0 -0.18366651205E+02  0.14294522987E+03 -0.76992522334E+03  0.78329785022E+03  0.00000000000E+00 0.  1.
         12    1    3    3    0    0 -0.19513154493E+01  0.75327215831E+02 -0.17616765535E+03  0.19160647136E+03  0.00000000000E+00 0. -1.
         13    1    5    5    0    0 -0.29447625146E+02  0.38374893080E+02  0.52520876782E+01  0.48655723925E+02  0.00000000000E+00 0. -1.
        -14    1    5    5    0    0  0.18960559151E+02  0.20353454330E+02  0.73867705860E+02  0.78931640522E+02  0.00000000000E+00 0.  1.
          5    1    4    4  501    0 -0.45327118786E+02 -0.58982468488E+02 -0.29757505479E+02  0.80227556480E+02  0.41800000000E+01 0.  1.
         -5    1    4    4    0  501  0.76132151436E+02 -0.21801832462E+03 -0.99138668524E+02  0.25134446951E+03  0.41800000000E+01 0.  1.
</event>
<event>
11    1  0.7882745E-009  0.1881549E+03  0.7561462E-02  0.1063231E+00
         22   -1    0    0    0    0  0.00000000000E+00  0.00000000000E+00  0.78919046977E+03  0.78919046977E+03  0.00000000000E+00 0. -1.
         22   -1    0    0    0    0 -0.00000000000E+00 -0.00000000000E+00 -0.23472455754E+03  0.23472455754E+03  0.00000000000E+00 0.  1.
         24    2    1    2    0    0 -0.73792391816E+02 -0.12027509963E+03 -0.18031988317E+03  0.24050136569E+03  0.73581451145E+02 0.  0.
         25    2    1    2    0    0  0.95724462382E+02  0.95325504885E+02  0.46851094111E+03  0.50338946376E+03  0.12509326804E+03 0.  0.
        -24    2    1    2    0    0 -0.21932070565E+02  0.24949594743E+02  0.26627485429E+03  0.28002419786E+03  0.80048456326E+02 0.  0.
        -13    1    3    3    0    0 -0.57277059910E+01 -0.77634882720E+02 -0.10206656754E+03  0.12836497124E+03  0.00000000000E+00 0.  1.
         14    1    3    3    0    0 -0.68064685825E+02 -0.42640216908E+02 -0.78253315629E+02  0.11213639445E+03  0.00000000000E+00 0. -1.
         13    1    5    5    0    0 -0.14781814274E+01 -0.16224019065E+02  0.19187818677E+03  0.19256853942E+03  0.00000000000E+00 0. -1.
        -14    1    5    5    0    0 -0.20453889138E+02  0.41173613808E+02  0.74396667523E+02  0.87455658441E+02  0.00000000000E+00 0.  1.
          5    1    4    4  501    0  0.95666680888E+02  0.10926478805E+02  0.29596754967E+03  0.31126478219E+03  0.41800000000E+01 0.  1.
         -5    1    4    4    0  501  0.57781494181E-01  0.84399026080E+02  0.17254339143E+03  0.19212468157E+03  0.41800000000E+01 0.  1.
</event>
<event>
11    1  0.7882745E-009  0.1757101E+03  0.7561462E-02  0.1073167E+00
         22   -1    0    0    0    0  0.00000000000E+00  0.00000000000E+00  0.35911749162E+03  0.35911749162E+03  0.00000000000E+00 0. -1.
         22   -1    0    0    0    0 -0.00000000000E+00 -0.00000000000E+00 -0.68941065807E+03  0.68941065807E+03  0.00000000000E+00 0. -1.
        -24    2    1    2    0    0  0.59312000770E+02 -0.91079558840E+02 -0.34602652594E+03  0.37138000314E+03  0.79845792622E+02 0.  0.
         25    2    1    2    0    0 -0.12839070828E+03  0.10766108859E+03 -0.28663256085E+03  0.35479948568E+03  0.12509742656E+03 0.  0.
         24    2    1    2    0    0  0.69078707506E+02 -0.16581529747E+02  0.30236592033E+03  0.32234866087E+03  0.86236270960E+02 0.  0.
        -11    1    5    5    0    0 -0.20317178603E+02  0.17948285557E+01  0.50993625676E+02  0.54921389418E+02  0.00000000000E+00 0.  1.
         12    1    5    5    0    0  0.89395886109E+02 -0.18376358303E+02  0.25137229466E+03  0.26742727146E+03  0.00000000000E+00 0. -1.
         11    1    3    3    0    0  0.44792463289E+02 -0.90906415241E+02 -0.34142470257E+03  0.35614767811E+03  0.00000000000E+00 0. -1.
        -12    1    3    3    0    0  0.14519537481E+02 -0.17314359918E+00 -0.46018233762E+01  0.15232325027E+02  0.00000000000E+00 0.  1.
          5    1    4    4  501    0  0.25021152557E+02  0.14195889763E+02 -0.47312893334E+02  0.55529844562E+02  0.41800000000E+01 0.  1.
         -5    1    4    4    0  501 -0.15341186083E+03  0.93465198823E+02 -0.23931966751E+03  0.29926964112E+03  0.41800000000E+01 0.  1.
</event>
<event>
11    1  0.7882745E-009  0.1433212E+03  0.7561462E-02  0.1103905E+00
         22   -1    0    0    0    0  0.00000000000E+00  0.00000000000E+00  0.14143799487E+03  0.14143799487E+03  0.00000000000E+00 0. -1.
         22   -1    0    0    0    0 -0.00000000000E+00 -0.00000000000E+00 -0.81211660123E+03  0.81211660123E+03  0.00000000000E+00 0.  1.
         24    2    1    2    0    0  0.22797409802E+02 -0.63602402618E+02 -0.63720921055E+03  0.64566739332E+03  0.79283146188E+02 0.  0.
         25    2    1    2    0    0 -0.36287013071E+02  0.85161652520E+02 -0.11209850035E+03  0.19178945654E+03  0.12509143648E+03 0.  0.
        -24    2    1    2    0    0  0.13489603269E+02 -0.21559249901E+02  0.78629104535E+02  0.11609774625E+03  0.81543730300E+02 0.  0.
        -11    1    3    3    0    0 -0.10273988480E+02 -0.15838839088E+01 -0.34380657810E+03  0.34396369964E+03  0.00000000000E+00 0.  1.
         12    1    3    3    0    0  0.33071398281E+02 -0.62018518709E+02 -0.29340263245E+03  0.30170369367E+03  0.00000000000E+00 0. -1.
         11    1    5    5    0    0 -0.32854544967E+02 -0.41479125828E+01  0.17562096413E+02  0.37484043728E+02  0.00000000000E+00 0. -1.
        -12    1    5    5    0    0  0.46344148236E+02 -0.17411337319E+02  0.61067008122E+02  0.78613702520E+02  0.00000000000E+00 0.  1.
          5    1    4    4  501    0 -0.70482217996E+02  0.55817733470E+02 -0.24639276967E+02  0.93316283642E+02  0.41800000000E+01 0.  1.
         -5    1    4    4    0  501  0.34195204925E+02  0.29343919049E+02 -0.87459223383E+02  0.98473172894E+02  0.41800000000E+01 0.  1.
</event>
<event>
11    1  0.7882745E-009  0.1376472E+03  0.7561462E-02  0.1110215E+00
         22   -1    0    0    0    0  0.00000000000E+00  0.00000000000E+00  0.42547593895E+03  0.42547593895E+03  0.00000000000E+00 0. -1.
         22   -1    0    0    0    0 -0.00000000000E+00 -0.00000000000E+00 -0.43317106045E+03  0.43317106045E+03  0.00000000000E+00 0.  1.
        -24    2    1    2    0    0 -0.29046697760E+02  0.11049566524E+02 -0.37912522056E+03  0.38782831867E+03  0.75558376957E+02 0.  0.
         25    2    1    2    0    0  0.59629389653E+02 -0.54772948976E+02  0.90408914260E+02  0.17429228324E+03  0.12509311799E+03 0.  0.
         24    2    1    2    0    0 -0.30582691894E+02  0.43723382453E+02  0.28102118480E+03  0.29652639750E+03  0.78153457298E+02 0.  0.
        -11    1    5    5    0    0 -0.28598133635E+01 -0.17661023671E+02  0.19469683427E+02  0.26441612324E+02  0.00000000000E+00 0.  1.
         12    1    5    5    0    0 -0.27722878530E+02  0.61384406124E+02  0.26155150138E+03  0.27008478517E+03  0.00000000000E+00 0. -1.
         13    1    3    3    0    0  0.25263702851E+02 -0.28484326190E+01 -0.10561305719E+03  0.10863004234E+03  0.00000000000E+00 0. -1.
        -14    1    3    3    0    0 -0.54310400611E+02  0.13897999143E+02 -0.27351216337E+03  0.27919827633E+03  0.00000000000E+00 0.  1.
          5    1    4    4  501    0 -0.13175247142E+02 -0.66199497765E+02  0.70819928783E+02  0.97922905158E+02  0.41800000000E+01 0. -1.
         -5    1    4    4    0  501  0.72804636795E+02  0.11426548789E+02  0.19588985477E+02  0.76369378079E+02  0.41800000000E+01 0. -1.
</event>
<event>
11    1  0.7882745E-009  0.1535287E+03  0.7561462E-02  0.1093327E+00
         22   -1    0    0    0    0  0.00000000000E+00  0.00000000000E+00  0.64126818330E+03  0.64126818330E+03  0.00000000000E+00 0.  1.
         22   -1    0    0    0    0 -0.00000000000E+00 -0.00000000000E+00 -0.18768975619E+03  0.18768975619E+03  0.00000000000E+00 0.  1.
        -24    2    1    2    0    0  0.43497341600E+02  0.96326035681E+02 -0.16194205730E+02  0.13382121892E+03  0.80468269888E+02 0.  0.
         25    2    1    2    0    0 -0.76916022880E+02 -0.36183294916E+02 -0.53720525023E+02  0.16050026596E+03  0.12509650338E+03 0.  0.
         24    2    1    2    0    0  0.33418681280E+02 -0.60142740764E+02  0.52349315786E+03  0.53463645462E+03  0.84006516123E+02 0.  0.
        -13    1    5    5    0    0  0.26887122550E+02 -0.68900202191E+02  0.51626705683E+03  0.52153794607E+03  0.00000000000E+00 0.  1.
         14    1    5    5    0    0  0.65315587296E+01  0.87574614272E+01  0.72261010344E+01  0.13098508551E+02  0.00000000000E+00 0. -1.
         13    1    3    3    0    0 -0.20111682172E+02  0.50247829989E+02 -0.32882896895E+01  0.54223030416E+02  0.00000000000E+00 0. -1.
        -14    1    3    3    0    0  0.63609023772E+02  0.46078205692E+02 -0.12905916040E+02  0.79598188508E+02  0.00000000000E+00 0.  1.
          5    1    4    4  501    0 -0.76700387065E+02 -0.73613766444E+02 -0.16712561314E+02  0.10769734487E+03  0.41800000000E+01 0. -1.
         -5    1    4    4    0  501 -0.21563581472E+00  0.37430471527E+02 -0.37007963710E+02  0.52802921089E+02  0.41800000000E+01 0. -1.
</event>
<event>
11    1  0.7882745E-009  0.1390092E+03  0.7561462E-02  0.1108670E+00
         22   -1    0    0    0    0  0.00000000000E+00  0.00000000000E+00  0.26158108324E+03  0.26158108324E+03  0.00000000000E+00 0. -1.
         22   -1    0    0    0    0 -0.00000000000E+00 -0.00000000000E+00 -0.28111368539E+03  0.28111368539E+03  0.00000000000E+00 0.  1.
        -24    2    1    2    0    0 -0.54729700701E+02  0.24604809154E+02 -0.21185975921E+03  0.23449790217E+03  0.80647205644E+02 0.  0.
         25    2    1    2    0    0  0.44966711327E+02 -0.64952795068E+02  0.96408939869E+02  0.17657312910E+03  0.12507004246E+03 0.  0.
         24    2    1    2    0    0  0.97629893733E+01  0.40347985914E+02  0.95918217187E+02  0.13162373735E+03  0.80007674117E+02 0.  0.
        -11    1    5    5    0    0  0.83387571743E+01  0.59562555776E+01 -0.13483000552E+02  0.16935263671E+02  0.00000000000E+00 0.  1.
         12    1    5    5    0    0  0.14242321989E+01  0.34391730337E+02  0.10940121774E+03  0.11468847368E+03  0.00000000000E+00 0. -1.
         11    1    3    3    0    0 -0.12118374335E+02  0.20409793726E+02 -0.63444043480E+01  0.24569618291E+02  0.00000000000E+00 0. -1.
        -12    1    3    3    0    0 -0.42611326366E+02  0.41950154276E+01 -0.20551535486E+03  0.20992828388E+03  0.00000000000E+00 0.  1.
          5    1    4    4  501    0  0.66126026509E+02 -0.86258122198E+01  0.95122006724E+02  0.11624424537E+03  0.41800000000E+01 0.  1.
         -5    1    4    4    0  501 -0.21159315181E+02 -0.56326982848E+02  0.12869331451E+01  0.60328883734E+02  0.41800000000E+01 0.  1.
</event>
<event>
11    1  0.7882745E-009  0.1603937E+03  0.7561462E-02  0.1086708E+00
         22   -1    0    0    0    0  0.00000000000E+00  0.00000000000E+00  0.50824702934E+03  0.50824702934E+03  0.00000000000E+00 0. -1.
         22   -1    0    0    0    0 -0.00000000000E+00 -0.00000000000E+00 -0.33322952666E+03  0.33322952666E+03  0.00000000000E+00 0. -1.
        -24    2    1    2    0    0 -0.74601204063E+02 -0.68659328751E+02 -0.24769007699E+03  0.27987500877E+03  0.81854769101E+02 0.  0.
         25    2    1    2    0    0  0.11685332306E+03  0.54437949944E+01  0.57980829912E+02  0.18081347076E+03  0.12508957013E+03 0.  0.
         24    2    1    2    0    0 -0.42252119001E+02  0.63215533757E+02  0.36472674976E+03  0.38078807647E+03  0.78692515025E+02 0.  0.
        -13    1    5    5    0    0  0.10477764550E+02  0.16192214812E+02  0.16245043318E+02  0.25216518453E+02  0.00000000000E+00 0.  1.
         14    1    5    5    0    0 -0.52729883551E+02  0.47023318944E+02  0.34848170644E+03  0.35557155802E+03  0.00000000000E+00 0. -1.
         11    1    3    3    0    0 -0.87502437659E+02 -0.55324693756E+02 -0.23660357700E+03  0.25826101329E+03  0.00000000000E+00 0. -1.
        -12    1    3    3    0    0  0.12901233595E+02 -0.13334634995E+02 -0.11086499984E+02  0.21613995480E+02  0.00000000000E+00 0.  1.
          5    1    4    4  501    0  0.15069552943E+02 -0.37428387173E+02 -0.20315465490E+02  0.45367015886E+02  0.41800000000E+01 0. -1.
         -5    1    4    4    0  501  0.10178377012E+03  0.42872182168E+02  0.78296295402E+02  0.13544645487E+03  0.41800000000E+01 0. -1.
</event>
<event>
11    1  0.7882745E-009  0.1513659E+03  0.7561462E-02  0.1095491E+00
         22   -1    0    0    0    0  0.00000000000E+00  0.00000000000E+00  0.28188873998E+03  0.28188873998E+03  0.00000000000E+00 0.  1.
         22   -1    0    0    0    0 -0.00000000000E+00 -0.00000000000E+00 -0.53926735710E+03  0.53926735710E+03  0.00000000000E+00 0. -1.
         24    2    1    2    0    0  0.84558568397E+02 -0.91471294780E+01 -0.28356202507E+03  0.30696974535E+03  0.81173770583E+02 0.  0.
         25    2    1    2    0    0 -0.80866054674E+02  0.36820454069E+02 -0.21142200720E+03  0.26120914310E+03  0.12504353912E+03 0.  0.
        -24    2    1    2    0    0 -0.36925137233E+01 -0.27673324591E+02  0.23760541515E+03  0.25297720863E+03  0.82229479059E+02 0.  0.
        -11    1    3    3    0    0  0.65886334719E+02  0.15112474023E+02 -0.98941341212E+02  0.11982814767E+03  0.00000000000E+00 0.  1.
         12    1    3    3    0    0  0.18672233678E+02 -0.24259603501E+02 -0.18462068386E+03  0.18714159768E+03  0.00000000000E+00 0. -1.
         11    1    5    5    0    0 -0.18596737782E+02 -0.11760019414E+02  0.97254979567E+01  0.24056641978E+02  0.00000000000E+00 0. -1.
        -12    1    5    5    0    0  0.14904224059E+02 -0.15913305177E+02  0.22787991719E+03  0.22892056665E+03  0.00000000000E+00 0.  1.
          5    1    4    4  501    0  0.23423394557E+01 -0.33167919792E+01 -0.15017692180E+03  0.15028994612E+03  0.41800000000E+01 0. -1.
         -5    1    4    4    0  501 -0.83208394130E+02  0.40137246048E+02 -0.61245085397E+02  0.11091919698E+03  0.41800000000E+01 0. -1.
</event>
<event>
11    1  0.7882745E-009  0.1301188E+03  0.7561462E-02  0.1119123E+00
         22   -1    0    0    0    0  0.00000000000E+00  0.00000000000E+00  0.37600226113E+03  0.37600226113E+03  0.00000000000E+00 0. -1.
         22   -1    0    0    0    0 -0.00000000000E+00 -0.00000000000E+00 -0.44904113721E+03  0.44904113721E+03  0.00000000000E+00 0. -1.
        -24    2    1    2    0    0  0.26508458483E+02 -0.19630685572E+02 -0.40434429953E+03  0.41348865436E+03  0.79940556255E+02 0.  0.
         25    2    1    2    0    0 -0.49165679568E+02 -0.62295927625E+01  0.11597304615E+03  0.17763209453E+03  0.12508933488E+03 0.  0.
         24    2    1    2    0    0  0.22657221085E+02  0.25860278334E+02  0.21533237730E+03  0.23392264945E+03  0.84673901235E+02 0.  0.
        -11    1    5    5    0    0 -0.22171528759E+02  0.31733436392E+02  0.54452987171E+02  0.66811043134E+02  0.00000000000E+00 0.  1.
         12    1    5    5    0    0  0.44828749844E+02 -0.58731580579E+01  0.16087939013E+03  0.16711160632E+03  0.00000000000E+00 0. -1.
         11    1    3    3    0    0 -0.11778147934E+02 -0.39440496149E+02 -0.15131857771E+03  0.15681705731E+03  0.00000000000E+00 0. -1.
        -12    1    3    3    0    0  0.38286606417E+02  0.19809810577E+02 -0.25302572182E+03  0.25667159705E+03  0.00000000000E+00 0.  1.
          5    1    4    4  501    0  0.30352356299E+02  0.24345040019E+02  0.78464306271E+01  0.39912220936E+02  0.41800000000E+01 0. -1.
         -5    1    4    4    0  501 -0.79518035867E+02 -0.30574632781E+02  0.10812661552E+03  0.13771987359E+03  0.41800000000E+01 0. -1.
</event>
<event>
11    1  0.7882745E-009  0.1402519E+03  0.7561462E-02  0.1107277E+00
         22   -1    0    0    0    0  0.00000000000E+00  0.00000000000E+00  0.43922451694E+03  0.43922451694E+03  0.00000000000E+00 0. -1.
         22   -1    0    0    0    0 -0.00000000000E+00 -0.00000000000E+00 -0.21030807911E+04  0.21030807911E+04  0.00000000000E+00 0.  1.
         24    2    1    2    0    0  0.21013165854E+02  0.48530666038E+02 -0.19633327749E+04  0.19658979784E+04  0.85337550664E+02 0.  0.
         25    2    1    2    0    0 -0.61527555173E+01 -0.10808745830E+03 -0.79869950530E+02  0.18370505660E+03  0.12509030250E+03 0.  0.
        -24    2    1    2    0    0 -0.14860410337E+02  0.59556792258E+02  0.37934645132E+03  0.39270227305E+03  0.80891914475E+02 0.  0.
        -13    1    3    3    0    0  0.34245538001E+01  0.64251976201E+02 -0.17641612840E+04  0.17653342686E+04  0.00000000000E+00 0.  1.
         14    1    3    3    0    0  0.17588612054E+02 -0.15721310163E+02 -0.19917149100E+03  0.20056370981E+03  0.00000000000E+00 0. -1.
         11    1    5    5    0    0  0.21977578508E+02  0.15984043962E+01  0.19024393467E+03  0.19151585713E+03  0.00000000000E+00 0. -1.
        -12    1    5    5    0    0 -0.36837988846E+02  0.57958387862E+02  0.18910251665E+03  0.20118641592E+03  0.00000000000E+00 0.  1.
          5    1    4    4  501    0 -0.64523498540E+02 -0.41839067729E+02 -0.38790932088E+02  0.86232234487E+02  0.41800000000E+01 0.  1.
         -5    1    4    4    0  501  0.58370743023E+02 -0.66248390567E+02 -0.41079018442E+02  0.97472822109E+02  0.41800000000E+01 0.  1.
</event>
<event>
11    1  0.7882745E-009  0.1331632E+03  0.7561462E-02  0.1115442E+00
         22   -1    0    0    0    0  0.00000000000E+00  0.00000000000E+00  0.89185105223E+03  0.89185105223E+03  0.00000000000E+00 0. -1.
         22   -1    0    0    0    0 -0.00000000000E+00 -0.00000000000E+00 -0.28229592729E+03  0.28229592729E+03  0.00000000000E+00 0.  1.
        -24    2    1    2    0    0 -0.16438557226E+02  0.27737877457E+02 -0.25015857311E+03  0.26435609339E+03  0.79153120005E+02 0.  0.
         25    2    1    2    0    0  0.29808552754E+02  0.18611180535E+02  0.16800007616E+03  0.21235447814E+03  0.12504188474E+03 0.  0.
         24    2    1    2    0    0 -0.13369995528E+02 -0.46349057992E+02  0.69171362188E+03  0.69743640799E+03  0.74985442134E+02 0.  0.
        -13    1    5    5    0    0 -0.11594622344E+02  0.17463295120E+02  0.28215350550E+03  0.28293109163E+03  0.00000000000E+00 0.  1.
         14    1    5    5    0    0 -0.17753731842E+01 -0.63812353112E+02  0.40956011639E+03  0.41450531636E+03  0.00000000000E+00 0. -1.
         13    1    3    3    0    0  0.29041603817E+02  0.19340415308E+02 -0.15045717969E+03  0.15445008688E+03  0.00000000000E+00 0. -1.
        -14    1    3    3    0    0 -0.45480161043E+02  0.83974621491E+01 -0.99701393415E+02  0.10990600651E+03  0.00000000000E+00 0.  1.
          5    1    4    4  501    0  0.99871139323E+01 -0.45407060060E+02  0.21897846411E+02  0.51560950587E+02  0.41800000000E+01 0. -1.
         -5    1    4    4    0  501  0.19821438822E+02  0.64018240595E+02  0.14610222975E+03  0.16079352755E+03  0.41800000000E+01 0. -1.
</event>
<event>
11    1  0.7882745E-009  0.1542344E+03  0.7561462E-02  0.1092629E+00
         22   -1    0    0    0    0  0.00000000000E+00  0.00000000000E+00  0.15433416295E+03  0.15433416295E+03  0.00000000000E+00 0.  1.
         22   -1    0    0    0    0 -0.00000000000E+00 -0.00000000000E+00 -0.28155391900E+04  0.28155391900E+04  0.00000000000E+00 0.  1.
        -24    2    1    2    0    0  0.61537310827E+02 -0.66826349170E+02 -0.26619657082E+04  0.26649035554E+04  0.86005384475E+02 0.  0.
         25    2    1    2    0    0 -0.38829319167E+02  0.63863754969E+02 -0.90806057748E+02  0.17169409631E+03  0.12508727896E+03 0.  0.
         24    2    1    2    0    0 -0.22707991661E+02  0.29625942003E+01  0.91566738975E+02  0.13327570121E+03  0.94093118758E+02 0.  0.
        -13    1    5    5    0    0 -0.22859866177E+02 -0.15082223025E+02  0.10642999837E+03  0.10989718598E+03  0.00000000000E+00 0.  1.
         14    1    5    5    0    0  0.15187451618E+00  0.18044817226E+02 -0.14863259397E+02  0.23378515233E+02  0.00000000000E+00 0. -1.
         13    1    3    3    0    0  0.12798982779E+02  0.19261839190E+02 -0.31170120921E+03  0.31255795660E+03  0.00000000000E+00 0. -1.
        -14    1    3    3    0    0  0.48738328048E+02 -0.86088188360E+02 -0.23502644990E+04  0.23523455988E+04  0.00000000000E+00 0.  1.
          5    1    4    4  501    0  0.29598237819E+02  0.64938122113E+02 -0.69977476051E+02  0.10003666798E+03  0.41800000000E+01 0. -1.
         -5    1    4    4    0  501 -0.68427556986E+02 -0.10743671441E+01 -0.20828581697E+02  0.71657428333E+02  0.41800000000E+01 0. -1.
</event>
<event>
11    1  0.7882745E-009  0.1643205E+03  0.7561462E-02  0.1083083E+00
         22   -1    0    0    0    0  0.00000000000E+00  0.00000000000E+00  0.16703983445E+04  0.16703983445E+04  0.00000000000E+00 0. -1.
         22   -1    0    0    0    0 -0.00000000000E+00 -0.00000000000E+00 -0.21799845979E+04  0.21799845979E+04  0.00000000000E+00 0.  1.
         24    2    1    2    0    0  0.10519189966E+03 -0.23185769608E+02 -0.21319215918E+04  0.21361496458E+04  0.80266556357E+02 0.  0.
         25    2    1    2    0    0 -0.46495760280E+02  0.20000086596E+02  0.58319788983E+02  0.14701053095E+03  0.12509611999E+03 0.  0.
        -24    2    1    2    0    0 -0.58696139376E+02  0.31856830116E+01  0.15640155494E+04  0.15672227656E+04  0.81161401203E+02 0.  0.
        -11    1    3    3    0    0  0.10206897876E+03 -0.36893899505E+02 -0.14396148734E+04  0.14437001835E+04  0.00000000000E+00 0.  1.
         12    1    3    3    0    0  0.31229208918E+01  0.13708129897E+02 -0.69230671842E+03  0.69244946229E+03  0.00000000000E+00 0. -1.
         11    1    5    5    0    0 -0.20724807038E+01 -0.17421052362E+01  0.10614413317E+04  0.10614447846E+04  0.00000000000E+00 0. -1.
        -12    1    5    5    0    0 -0.56623658673E+02  0.49277882478E+01  0.50257421761E+03  0.50577798096E+03  0.00000000000E+00 0.  1.
          5    1    4    4  501    0 -0.56998498991E+02  0.33902897914E+02 -0.17813547300E+02  0.68797022040E+02  0.41800000000E+01 0.  1.
         -5    1    4    4    0  501  0.10502738711E+02 -0.13902811318E+02  0.76133336283E+02  0.78213508913E+02  0.41800000000E+01 0.  1.
</event>
<event>
11    1  0.7882745E-009  0.1590878E+03  0.7561462E-02  0.1087938E+00
         22   -1    0    0    0    0  0.00000000000E+00  0.00000000000E+00  0.73381811106E+03  0.73381811106E+03  0.00000000000E+00 0.  1.
         22   -1    0    0    0    0 -0.00000000000E+00 -0.00000000000E+00 -0.22928279136E+03  0.22928279136E+03  0.00000000000E+00 0.  1.
        -24    2    1    2    0    0  0.35375710052E+02 -0.10569045360E+03 -0.16460134876E+03  0.21812046636E+03  0.89783188773E+02 0.  0.
         25    2    1    2    0    0 -0.60243518175E+02 -0.33227150052E+01  0.13270995972E+03  0.19209365888E+03  0.12509084081E+03 0.  0.
         24    2    1    2    0    0  0.24867808124E+02  0.10901316861E+03  0.53642670875E+03  0.55288677718E+03  0.73674254076E+02 0.  0.
        -13    1    5    5    0    0  0.28728680197E+02  0.12316774910E+02  0.21335437787E+03  0.21563193309E+03  0.00000000000E+00 0.  1.
         14    1    5    5    0    0 -0.38608720736E+01  0.96696393695E+02  0.32307233087E+03  0.33725484409E+03  0.00000000000E+00 0. -1.
         11    1    3    3    0    0  0.68325346475E+01  0.15429213417E+02 -0.32622446966E+02  0.36728302471E+02  0.00000000000E+00 0. -1.
        -12    1    3    3    0    0  0.28543175404E+02 -0.12111966702E+03 -0.13197890180E+03  0.18139216389E+03  0.00000000000E+00 0.  1.
          5    1    4    4  501    0 -0.72003335619E+02 -0.29951084527E+02  0.27413875834E+02  0.82767993771E+02  0.41800000000E+01 0.  1.
         -5    1    4    4    0  501  0.11759817444E+02  0.26628369521E+02  0.10529608389E+03  0.10932566511E+03  0.41800000000E+01 0.  1.
</event>
<event>
11    1  0.7882745E-009  0.1262835E+03  0.7561462E-02  0.1123922E+00
         22   -1    0    0    0    0  0.00000000000E+00  0.00000000000E+00  0.90295412058E+03  0.90295412058E+03  0.00000000000E+00 0. -1.
         22   -1    0    0    0    0 -0.00000000000E+00 -0.00000000000E+00 -0.43814089634E+03  0.43814089634E+03  0.00000000000E+00 0.  1.
         24    2    1    2    0    0  0.16870697843E+02 -0.25684696636E+01 -0.36654620989E+03  0.37552838998E+03  0.79838776378E+02 0.  0.
         25    2    1    2    0    0 -0.19527730851E+02  0.20895593701E+02 -0.22376461951E+01  0.12831807321E+03  0.12507023125E+03 0.  0.
        -24    2    1    2    0    0  0.26570330084E+01 -0.18327124037E+02  0.83359708032E+03  0.83724855374E+03  0.75882179191E+02 0.  0.
        -13    1    3    3    0    0 -0.13399024039E+01 -0.14669096554E+02 -0.34329834285E+03  0.34361421673E+03  0.00000000000E+00 0.  1.
         14    1    3    3    0    0  0.18210600247E+02  0.12100626891E+02 -0.23247867035E+02  0.31914173250E+02  0.00000000000E+00 0. -1.
         11    1    5    5    0    0 -0.24900000226E+02 -0.21032889178E+02  0.70266663880E+03  0.70342220446E+03  0.00000000000E+00 0. -1.
        -12    1    5    5    0    0  0.27557033235E+02  0.27057651409E+01  0.13093044152E+03  0.13382634928E+03  0.00000000000E+00 0.  1.
          5    1    4    4  501    0  0.15607710465E+02  0.32135488139E+02 -0.53839250603E+02  0.64748957748E+02  0.41800000000E+01 0.  1.
         -5    1    4    4    0  501 -0.35135441316E+02 -0.11239894438E+02  0.51601604408E+02  0.63569115465E+02  0.41800000000E+01 0.  1.
</event>
<event>
11    1  0.7882745E-009  0.1661019E+03  0.7561462E-02  0.1081475E+00
         22   -1    0    0    0    0  0.00000000000E+00  0.00000000000E+00  0.31910719681E+03  0.31910719681E+03  0.00000000000E+00 0.  1.
         22   -1    0    0    0    0 -0.00000000000E+00 -0.00000000000E+00 -0.33902963212E+03  0.33902963212E+03  0.00000000000E+00 0.  1.
         24    2    1    2    0    0  0.20492975421E+02  0.98769568230E+02 -0.22826516595E+03  0.26222665120E+03  0.80513607305E+02 0.  0.
         25    2    1    2    0    0 -0.19062292126E+02  0.38605944195E+02 -0.17227891239E+01  0.13230930384E+03  0.12509593907E+03 0.  0.
        -24    2    1    2    0    0 -0.14306832953E+01 -0.13737551242E+03  0.21006551976E+03  0.26360087390E+03  0.80522169980E+02 0.  0.
        -13    1    3    3    0    0 -0.23049713109E+02  0.14166050832E+02 -0.92941926559E+02  0.96799628011E+02  0.00000000000E+00 0.  1.
         14    1    3    3    0    0  0.43542688530E+02  0.84603517398E+02 -0.13532323939E+03  0.16542702319E+03  0.00000000000E+00 0. -1.
         13    1    5    5    0    0  0.27872840777E+02 -0.15783650961E+02  0.61952624496E+02  0.69743433903E+02  0.00000000000E+00 0. -1.
        -14    1    5    5    0    0 -0.29303524073E+02 -0.12159186146E+03  0.14811289527E+03  0.19385744000E+03  0.00000000000E+00 0.  1.
          5    1    4    4  501    0 -0.55151503877E+02  0.59396339646E+02 -0.24338787428E+02  0.84731709039E+02  0.41800000000E+01 0. -1.
         -5    1    4    4    0  501  0.36089211751E+02 -0.20790395451E+02  0.22615998304E+02  0.47577594801E+02  0.41800000000E+01 0. -1.
</event>
<event>
11    1  0.7882745E-009  0.1831515E+03  0.7561462E-02  0.1067122E+00
         22   -1    0    0    0    0  0.00000000000E+00  0.00000000000E+00  0.10552662284E+04  0.10552662284E+04  0.00000000000E+00 0. -1.
         22   -1    0    0    0    0 -0.00000000000E+00 -0.00000000000E+00 -0.34373815272E+03  0.34373815272E+03  0.00000000000E+00 0.  1.
        -24    2    1    2    0    0  0.13451945153E+03 -0.39233266789E+02 -0.29043657939E+03  0.33261296292E+03  0.81506100338E+02 0.  0.
         25    2    1    2    0    0 -0.76235152024E+02  0.15704192714E+02  0.15771055578E+03  0.21582014996E+03  0.12508915880E+03 0.  0.
         24    2    1    2    0    0 -0.58284299501E+02  0.23529074075E+02  0.84425409928E+03  0.85057126823E+03  0.82193803322E+02 0.  0.
        -13    1    5    5    0    0 -0.42744713820E+02 -0.50255771716E+01  0.16440032714E+03  0.16994067950E+03  0.00000000000E+00 0.  1.
         14    1    5    5    0    0 -0.15539585681E+02  0.28554651246E+02  0.67985377213E+03  0.68063058873E+03  0.00000000000E+00 0. -1.
         13    1    3    3    0    0 -0.26913013497E+01 -0.19045222295E+02 -0.15596004843E+02  0.24762854485E+02  0.00000000000E+00 0. -1.
        -14    1    3    3    0    0  0.13721075288E+03 -0.20188044494E+02 -0.27484057454E+03  0.30785010843E+03  0.00000000000E+00 0.  1.
          5    1    4    4  501    0 -0.10195485627E+03  0.41780343896E+01  0.15703139834E+03  0.18731946282E+03  0.41800000000E+01 0. -1.
         -5    1    4    4    0  501  0.25719704248E+02  0.11526158325E+02  0.67915744481E+00  0.28500687135E+02  0.41800000000E+01 0. -1.
</event>
<event>
11    1  0.7882745E-009  0.2347759E+03  0.7561462E-02  0.1032337E+00
         22   -1    0    0    0    0  0.00000000000E+00  0.00000000000E+00  0.24996377603E+04  0.24996377603E+04  0.00000000000E+00 0.  1.
         22   -1    0    0    0    0 -0.00000000000E+00 -0.00000000000E+00 -0.23295316101E+03  0.23295316101E+03  0.00000000000E+00 0.  1.
         24    2    1    2    0    0  0.13473639863E+01 -0.15282053524E+02 -0.20116270574E+03  0.21664137593E+03  0.78941085832E+02 0.  0.
         25    2    1    2    0    0 -0.19750030410E+03 -0.18116317520E+02  0.77561902491E+03  0.81028813477E+03  0.12508964168E+03 0.  0.
        -24    2    1    2    0    0  0.19615294012E+03  0.33398371044E+02  0.16922282801E+04  0.17056614106E+04  0.77800183170E+02 0.  0.
        -11    1    3    3    0    0  0.19658011889E+02 -0.13467756531E+02 -0.19612035256E+03  0.19756267509E+03  0.00000000000E+00 0.  1.
         12    1    3    3    0    0 -0.18310647903E+02 -0.18142969926E+01 -0.50423531783E+01  0.19078700841E+02  0.00000000000E+00 0. -1.
         13    1    5    5    0    0  0.43007870931E+02  0.36161471367E+02  0.31830819383E+03  0.32322969424E+03  0.00000000000E+00 0. -1.
        -14    1    5    5    0    0  0.15314506919E+03 -0.27631003230E+01  0.13739200862E+04  0.13824317163E+04  0.00000000000E+00 0.  1.
          5    1    4    4  501    0 -0.11897223375E+02 -0.36511817802E+02  0.65217819018E+02  0.75799030869E+02  0.41800000000E+01 0. -1.
         -5    1    4    4    0  501 -0.18560308073E+03  0.18395500282E+02  0.71040120590E+03  0.73448910390E+03  0.41800000000E+01 0. -1.
</event>
<event>
11    1  0.7882745E-009  0.1317984E+03  0.7561462E-02  0.1117079E+00
         22   -1    0    0    0    0  0.00000000000E+00  0.00000000000E+00  0.52124291573E+03  0.52124291573E+03  0.00000000000E+00 0. -1.
         22   -1    0    0    0    0 -0.00000000000E+00 -0.00000000000E+00 -0.14371534195E+03  0.14371534195E+03  0.00000000000E+00 0. -1.
        -24    2    1    2    0    0  0.64879234334E+01 -0.51603037566E+01 -0.77909998373E+02  0.10798604736E+03  0.74312157100E+02 0.  0.
         25    2    1    2    0    0  0.26054298471E+02 -0.21908429208E+02  0.45980940217E+02  0.13755124484E+03  0.12508913764E+03 0.  0.
         24    2    1    2    0    0 -0.32542221904E+02  0.27068732964E+02  0.40945663193E+03  0.41942096547E+03  0.80420770560E+02 0.  0.
        -11    1    5    5    0    0 -0.23278837254E+01  0.27407763970E+02  0.38945298225E+02  0.47679563990E+02  0.00000000000E+00 0.  1.
         12    1    5    5    0    0 -0.30214338179E+02 -0.33903100577E+00  0.37051133370E+03  0.37174140148E+03  0.00000000000E+00 0. -1.
         11    1    3    3    0    0  0.20199633744E+02  0.19819932590E+02 -0.73995517411E+02  0.79222418091E+02  0.00000000000E+00 0. -1.
        -12    1    3    3    0    0 -0.13711710310E+02 -0.24980236347E+02 -0.39144809622E+01  0.28763629270E+02  0.00000000000E+00 0.  1.
          5    1    4    4  501    0  0.28217443177E+02 -0.67845003062E+02  0.17654332691E+01  0.73619003624E+02  0.41800000000E+01 0. -1.
         -5    1    4    4    0  501 -0.21631447065E+01  0.45936573854E+02  0.44215506948E+02  0.63932241218E+02  0.41800000000E+01 0. -1.
</event>
<event>
11    1  0.7882745E-009  0.1583462E+03  0.7561462E-02  0.1088643E+00
         22   -1    0    0    0    0  0.00000000000E+00  0.00000000000E+00  0.32335721654E+03  0.32335721654E+03  0.00000000000E+00 0. -1.
         22   -1    0    0    0    0 -0.00000000000E+00 -0.00000000000E+00 -0.36145633651E+03  0.36145633651E+03  0.00000000000E+00 0.  1.
        -24    2    1    2    0    0  0.83599719058E+02  0.48494952526E+02 -0.28617272032E+03  0.31241003383E+03  0.79778004074E+02 0.  0.
         25    2    1    2    0    0 -0.66407864672E+02 -0.86504918052E+02  0.84230383007E+02  0.18610547047E+03  0.12508950148E+03 0.  0.
         24    2    1    2    0    0 -0.17191854386E+02  0.38009965526E+02  0.16384321735E+03  0.18629804876E+03  0.78243503015E+02 0.  0.
        -11    1    5    5    0    0 -0.23937436412E+01  0.24892166233E+02  0.41065248629E+01  0.25341931553E+02  0.00000000000E+00 0.  1.
         12    1    5    5    0    0 -0.14798110745E+02  0.13117799292E+02  0.15973669248E+03  0.16095611720E+03  0.00000000000E+00 0. -1.
         11    1    3    3    0    0  0.16501783819E+01  0.24253306413E+02 -0.14771506404E+03  0.14970199098E+03  0.00000000000E+00 0. -1.
        -12    1    3    3    0    0  0.81949540676E+02  0.24241646113E+02 -0.13845765628E+03  0.16270804285E+03  0.00000000000E+00 0.  1.
          5    1    4    4  501    0 -0.60816047108E+02 -0.54441055500E+02 -0.13657324798E+02  0.82863834273E+02  0.41800000000E+01 0. -1.
         -5    1    4    4    0  501 -0.55918175640E+01 -0.32063862553E+02  0.97887707805E+02  0.10324163620E+03  0.41800000000E+01 0. -1.
</event>
<event>
11    1  0.7882745E-009  0.1499352E+03  0.7561462E-02  0.1096945E+00
         22   -1    0    0    0    0  0.00000000000E+00  0.00000000000E+00  0.59314789216E+03  0.59314789216E+03  0.00000000000E+00 0.  1.
         22   -1    0    0    0    0 -0.00000000000E+00 -0.00000000000E+00 -0.28370563183E+03  0.28370563183E+03  0.00000000000E+00 0.  1.
        -24    2    1    2    0    0  0.24501187053E+02  0.85683809759E+02 -0.19471266903E+03  0.22873994734E+03  0.80417141257E+02 0.  0.
         25    2    1    2    0    0  0.20385456595E+02 -0.61311597600E+02  0.60793937774E+01  0.14091334149E+03  0.12507970235E+03 0.  0.
         24    2    1    2    0    0 -0.44886643647E+02 -0.24372212158E+02  0.49807553558E+03  0.50720023516E+03  0.81018663898E+02 0.  0.
        -11    1    5    5    0    0 -0.14175601939E+02  0.29350032320E+02  0.21356551048E+03  0.21603842101E+03  0.00000000000E+00 0.  1.
         12    1    5    5    0    0 -0.30711041708E+02 -0.53722244479E+02  0.28451002510E+03  0.29116181415E+03  0.00000000000E+00 0. -1.
         11    1    3    3    0    0  0.36595366419E+01  0.54542362664E+02 -0.35508416112E+02  0.65185191173E+02  0.00000000000E+00 0. -1.
        -12    1    3    3    0    0  0.20841650411E+02  0.31141447094E+02 -0.15920425291E+03  0.16355475617E+03  0.00000000000E+00 0.  1.
          5    1    4    4  501    0 -0.24730056287E+02 -0.33951223929E+02 -0.48899006355E+02  0.64597573583E+02  0.41800000000E+01 0.  1.
         -5    1    4    4    0  501  0.45115512881E+02 -0.27360373671E+02  0.54978400133E+02  0.76315767906E+02  0.41800000000E+01 0.  1.
</event>
<event>
11    1  0.7882745E-009  0.1428611E+03  0.7561462E-02  0.1104405E+00
         22   -1    0    0    0    0  0.00000000000E+00  0.00000000000E+00  0.46526114343E+03  0.46526114343E+03  0.00000000000E+00 0.  1.
         22   -1    0    0    0    0 -0.00000000000E+00 -0.00000000000E+00 -0.28099211893E+04  0.28099211893E+04  0.00000000000E+00 0.  1.
        -24    2    1    2    0    0 -0.29617497565E+02 -0.23536264838E+02 -0.26594887434E+04  0.26611351127E+04  0.85607009166E+02 0.  0.
         25    2    1    2    0    0  0.49415818944E+02  0.88171722175E+02 -0.97677538808E+02  0.18816302327E+03  0.12509294938E+03 0.  0.
         24    2    1    2    0    0 -0.19798321379E+02 -0.64635457337E+02  0.41250623628E+03  0.42588419678E+03  0.81524463960E+02 0.  0.
        -13    1    5    5    0    0 -0.36231333085E+02 -0.77135515226E+02  0.33646523855E+03  0.34708997962E+03  0.00000000000E+00 0.  1.
         14    1    5    5    0    0  0.16433011706E+02  0.12500057889E+02  0.76040997736E+02  0.78794217159E+02  0.00000000000E+00 0. -1.
         13    1    3    3    0    0  0.39833657559E+01 -0.49403506408E+02 -0.16758490823E+04  0.16765818561E+04  0.00000000000E+00 0. -1.
        -14    1    3    3    0    0 -0.33600863321E+02  0.25867241571E+02 -0.98363966106E+03  0.98455325656E+03  0.00000000000E+00 0.  1.
          5    1    4    4  501    0  0.60719595499E+02  0.11487388941E+03 -0.89214286372E+02  0.15766908713E+03  0.41800000000E+01 0.  1.
         -5    1    4    4    0  501 -0.11303776555E+02 -0.26702167231E+02 -0.84632524362E+01  0.30493936136E+02  0.41800000000E+01 0.  1.
</event>
<event>
11    1  0.7882745E-009  0.1416891E+03  0.7561462E-02  0.1105687E+00
         22   -1    0    0    0    0  0.00000000000E+00  0.00000000000E+00  0.74805233437E+03  0.74805233437E+03  0.00000000000E+00 0. -1.
         22   -1    0    0    0    0 -0.00000000000E+00 -0.00000000000E+00 -0.18280481391E+03  0.18280481391E+03  0.00000000000E+00 0. -1.
        -24    2    1    2    0    0  0.47407775495E+02 -0.44213957575E+02 -0.13720756581E+03  0.17160913455E+03  0.80133686569E+02 0.  0.
         25    2    1    2    0    0 -0.41142048087E+02  0.93025993025E+02  0.25322643878E+03  0.30019565216E+03  0.12508915532E+03 0.  0.
         24    2    1    2    0    0 -0.62657274082E+01 -0.48812035450E+02  0.44922864750E+03  0.45905236157E+03  0.80627655181E+02 0.  0.
        -13    1    5    5    0    0 -0.18610665957E+02 -0.53158550683E+02  0.16173927678E+03  0.17126523889E+03  0.00000000000E+00 0.  1.
         14    1    5    5    0    0  0.12344938549E+02  0.43465152331E+01  0.28748937072E+03  0.28778712267E+03  0.00000000000E+00 0. -1.
         11    1    3    3    0    0  0.69306306167E+01 -0.52971209362E+02 -0.10933756838E+03  0.12169094675E+03  0.00000000000E+00 0. -1.
        -12    1    3    3    0    0  0.40477144879E+02  0.87572517867E+01 -0.27869997437E+02  0.49918187803E+02  0.00000000000E+00 0.  1.
          5    1    4    4  501    0  0.32927221940E+02  0.31508056985E+02  0.24314073568E+02  0.51822834476E+02  0.41800000000E+01 0. -1.
         -5    1    4    4    0  501 -0.74069270027E+02  0.61517936040E+02  0.22891236521E+03  0.24837281768E+03  0.41800000000E+01 0. -1.
</event>
<event>
11    1  0.7882745E-009  0.1608454E+03  0.7561462E-02  0.1086285E+00
         22   -1    0    0    0    0  0.00000000000E+00  0.00000000000E+00  0.17393527643E+04  0.17393527643E+04  0.00000000000E+00 0.  1.
         22   -1    0    0    0    0 -0.00000000000E+00 -0.00000000000E+00 -0.33813375760E+04  0.33813375760E+04  0.00000000000E+00 0.  1.
        -24    2    1    2    0    0  0.14546499089E+02 -0.27667720166E+01 -0.29823363554E+04  0.29834713731E+04  0.80944685219E+02 0.  0.
         25    2    1    2    0    0 -0.10796109928E+02  0.10379929479E+03 -0.37921524494E+03  0.41272492110E+03  0.12508720524E+03 0.  0.
         24    2    1    2    0    0 -0.37503891608E+01 -0.10103252277E+03  0.17195667886E+04  0.17244940460E+04  0.82147052201E+02 0.  0.
        -11    1    5    5    0    0 -0.11619779120E+02 -0.99155483800E+02  0.17042531243E+04  0.17071747248E+04  0.00000000000E+00 0.  1.
         12    1    5    5    0    0  0.78693899595E+01 -0.18770389735E+01  0.15313664314E+02  0.17319321244E+02  0.00000000000E+00 0. -1.
         11    1    3    3    0    0  0.13293085602E+02  0.36388170144E+02 -0.10039097921E+04  0.10046569941E+04  0.00000000000E+00 0. -1.
        -12    1    3    3    0    0  0.12534134871E+01 -0.39154942161E+02 -0.19784265633E+04  0.19788143790E+04  0.00000000000E+00 0.  1.
          5    1    4    4  501    0 -0.59086056675E+02  0.60561291883E+02 -0.12985445961E+03  0.15504349470E+03  0.41800000000E+01 0. -1.
         -5    1    4    4    0  501  0.48289946747E+02  0.43238002908E+02 -0.24936078532E+03  0.25768142640E+03  0.41800000000E+01 0. -1.
</event>
<event>
11    1  0.7882745E-009  0.1570733E+03  0.7561462E-02  0.1089863E+00
         22   -1    0    0    0    0  0.00000000000E+00  0.00000000000E+00  0.50772602591E+03  0.50772602591E+03  0.00000000000E+00 0.  1.
         22   -1    0    0    0    0 -0.00000000000E+00 -0.00000000000E+00 -0.83680628367E+03  0.83680628367E+03  0.00000000000E+00 0. -1.
        -24    2    1    2    0    0  0.38634275092E+01  0.41205923216E+02 -0.49599858582E+03  0.50418274797E+03  0.80453663933E+02 0.  0.
         25    2    1    2    0    0 -0.62535335454E+02  0.34416048858E+02 -0.31286594025E+03  0.34442517537E+03  0.12509385380E+03 0.  0.
         24    2    1    2    0    0  0.58671907945E+02 -0.75621972074E+02  0.47978426831E+03  0.49592438624E+03  0.81160195345E+02 0.  0.
        -11    1    5    5    0    0  0.74890360191E+02 -0.36854124252E+02  0.31859097902E+03  0.32934329269E+03  0.00000000000E+00 0.  1.
         12    1    5    5    0    0 -0.16218452246E+02 -0.38767847822E+02  0.16119328929E+03  0.16658109356E+03  0.00000000000E+00 0. -1.
         13    1    3    3    0    0 -0.15485561609E+02  0.20901043554E+02 -0.44675567485E+03  0.44751233419E+03  0.00000000000E+00 0. -1.
        -14    1    3    3    0    0  0.19348989118E+02  0.20304879662E+02 -0.49242910970E+02  0.56670413787E+02  0.00000000000E+00 0.  1.
          5    1    4    4  501    0 -0.16806761265E+02 -0.29150411851E+02 -0.22124460981E+03  0.22382775410E+03  0.41800000000E+01 0. -1.
         -5    1    4    4    0  501 -0.45728574189E+02  0.63566460709E+02 -0.91621330441E+02  0.12059742127E+03  0.41800000000E+01 0. -1.
</event>
<event>
11    1  0.7882745E-009  0.1367572E+03  0.7561462E-02  0.1111234E+00
         22   -1    0    0    0    0  0.00000000000E+00  0.00000000000E+00  0.46927530447E+03  0.46927530447E+03  0.00000000000E+00 0. -1.
         22   -1    0    0    0    0 -0.00000000000E+00 -0.00000000000E+00 -0.10737385858E+04  0.10737385858E+04  0.00000000000E+00 0.  1.
         24    2    1    2    0    0  0.80639722092E+01 -0.54094876469E+02 -0.97112827914E+03  0.97619130182E+03  0.82873638119E+02 0.  0.
         25    2    1    2    0    0 -0.22819621724E+02  0.64914060305E+02 -0.42926579406E+02  0.14907614281E+03  0.12508570972E+03 0.  0.
        -24    2    1    2    0    0  0.14755649514E+02 -0.10819183836E+02  0.40959157719E+03  0.41774644566E+03  0.80075269770E+02 0.  0.
        -11    1    3    3    0    0  0.43578875536E+02 -0.42340072983E+02 -0.66964682429E+03  0.67239770185E+03  0.00000000000E+00 0.  1.
         12    1    3    3    0    0 -0.35514903327E+02 -0.11754803486E+02 -0.30148145485E+03  0.30379359997E+03  0.00000000000E+00 0. -1.
         11    1    5    5    0    0 -0.17492808795E+02 -0.12095568197E+02  0.34388115285E+03  0.34453816684E+03  0.00000000000E+00 0. -1.
        -12    1    5    5    0    0  0.32248458309E+02  0.12763843609E+01  0.65710424345E+02  0.73208278821E+02  0.00000000000E+00 0.  1.
          5    1    4    4  501    0  0.19324984320E+02  0.74908375308E+01 -0.69723198182E+02  0.72858523390E+02  0.41800000000E+01 0. -1.
         -5    1    4    4    0  501 -0.42144606044E+02  0.57423222774E+02  0.26796618776E+02  0.76217619421E+02  0.41800000000E+01 0. -1.
</event>
<event>
11    1  0.7882745E-009  0.1337185E+03  0.7561462E-02  0.1114783E+00
         22   -1    0    0    0    0  0.00000000000E+00  0.00000000000E+00  0.21066883454E+04  0.21066883454E+04  0.00000000000E+00 0.  1.
         22   -1    0    0    0    0 -0.00000000000E+00 -0.00000000000E+00 -0.22632276889E+03  0.22632276889E+03  0.00000000000E+00 0. -1.
         24    2    1    2    0    0  0.24992728094E+02 -0.40900231477E+02 -0.20650667331E+03  0.22638919313E+03  0.79432960738E+02 0.  0.
         25    2    1    2    0    0  0.29884463853E+01  0.19855760846E+02  0.45217578471E+03  0.46958985241E+03  0.12509399327E+03 0.  0.
        -24    2    1    2    0    0 -0.27981174480E+02  0.21044470631E+02  0.16346964651E+04  0.16370320688E+04  0.80097723077E+02 0.  0.
        -11    1    3    3    0    0 -0.20154710625E+02 -0.53728414747E+01 -0.13101679173E+02  0.24631966690E+02  0.00000000000E+00 0.  1.
         12    1    3    3    0    0  0.45147438719E+02 -0.35527390002E+02 -0.19340499413E+03  0.20175722643E+03  0.00000000000E+00 0. -1.
         11    1    5    5    0    0 -0.10024983872E+02 -0.30577373082E+02  0.51753783573E+03  0.51853725754E+03  0.00000000000E+00 0. -1.
        -12    1    5    5    0    0 -0.17956190608E+02  0.51621843712E+02  0.11171586294E+04  0.11184948113E+04  0.00000000000E+00 0.  1.
          5    1    4    4  501    0  0.45870710008E+02  0.14447676336E+02  0.39425346369E+03  0.39719783915E+03  0.41800000000E+01 0. -1.
         -5    1    4    4    0  501 -0.42882263623E+02  0.54080845105E+01  0.57922321020E+02  0.72392013260E+02  0.41800000000E+01 0. -1.
</event>
<event>
11    1  0.7882745E-009  0.1579919E+03  0.7561462E-02  0.1088981E+00
         22   -1    0    0    0    0  0.00000000000E+00  0.00000000000E+00  0.14051818056E+03  0.14051818056E+03  0.00000000000E+00 0.  1.
         22   -1    0    0    0    0 -0.00000000000E+00 -0.00000000000E+00 -0.77971998267E+03  0.77971998267E+03  0.00000000000E+00 0.  1.
        -24    2    1    2    0    0 -0.92437348352E+02 -0.51231254367E+01 -0.53433923306E+03  0.54780348158E+03  0.77455333312E+02 0.  0.
         25    2    1    2    0    0  0.71505871303E+02 -0.92198267890E+02 -0.15876099052E+03  0.23337952544E+03  0.12508933028E+03 0.  0.
         24    2    1    2    0    0  0.20931477049E+02  0.97321393327E+02  0.53898421464E+02  0.13905515621E+03  0.80757143970E+02 0.  0.
        -11    1    5    5    0    0  0.26501427087E+02  0.99237948335E+02  0.68397860953E+02  0.12340487596E+03  0.00000000000E+00 0.  1.
         12    1    5    5    0    0 -0.55699500380E+01 -0.19165550079E+01 -0.14499439489E+02  0.15650280254E+02  0.00000000000E+00 0. -1.
         11    1    3    3    0    0  0.11199783281E+02 -0.10985839551E+02 -0.10061057799E+03  0.10182638273E+03  0.00000000000E+00 0. -1.
        -12    1    3    3    0    0 -0.10363713163E+03  0.58627141141E+01 -0.43372865507E+03  0.44597709885E+03  0.00000000000E+00 0.  1.
          5    1    4    4  501    0  0.58804262323E+01 -0.10358719390E+03 -0.10510113244E+03  0.14774507300E+03  0.41800000000E+01 0. -1.
         -5    1    4    4    0  501  0.65625445071E+02  0.11388926014E+02 -0.53659858080E+02  0.85634452445E+02  0.41800000000E+01 0. -1.
</event>
<event>
11    1  0.7882745E-009  0.3879052E+03  0.7561462E-02  0.9686134E-01
         22   -1    0    0    0    0  0.00000000000E+00  0.00000000000E+00  0.98329143553E+03  0.98329143553E+03  0.00000000000E+00 0.  1.
         22   -1    0    0    0    0 -0.00000000000E+00 -0.00000000000E+00 -0.15878758992E+04  0.15878758992E+04  0.00000000000E+00 0. -1.
         24    2    1    2    0    0 -0.36187001506E+01 -0.83307335392E+01 -0.89309998602E+03  0.89671197901E+03  0.79889249377E+02 0.  0.
         25    2    1    2    0    0 -0.21218040514E+03 -0.28935149863E+03 -0.59960818286E+03  0.70987376844E+03  0.12508389220E+03 0.  0.
        -24    2    1    2    0    0  0.21579910529E+03  0.29768223217E+03  0.88812370524E+03  0.96458158723E+03  0.80436045600E+02 0.  0.
        -11    1    3    3    0    0 -0.41111365697E+02  0.19593731420E+01 -0.50190674033E+03  0.50359146093E+03  0.00000000000E+00 0.  1.
         12    1    3    3    0    0  0.37492665547E+02 -0.10290106681E+02 -0.39119324568E+03  0.39312051808E+03  0.00000000000E+00 0. -1.
         13    1    5    5    0    0 -0.17540706592E+01  0.24188025422E+02  0.91803765261E+02  0.94952981279E+02  0.00000000000E+00 0. -1.
        -14    1    5    5    0    0  0.21755317595E+03  0.27349420674E+03  0.79631993998E+03  0.86962860595E+03  0.00000000000E+00 0.  1.
          5    1    4    4  501    0 -0.10446935084E+03 -0.16755248832E+03 -0.21314200946E+03  0.29057644468E+03  0.41800000000E+01 0. -1.
         -5    1    4    4    0  501 -0.10771105430E+03 -0.12179901031E+03 -0.38646617340E+03  0.41929732376E+03  0.41800000000E+01 0. -1.
</event>
<event>
11    1  0.7882745E-009  0.1655531E+03  0.7561462E-02  0.1081968E+00
         22   -1    0    0    0    0  0.00000000000E+00  0.00000000000E+00  0.24321239443E+04  0.24321239443E+04  0.00000000000E+00 0.  1.
         22   -1    0    0    0    0 -0.00000000000E+00 -0.00000000000E+00 -0.25335349220E+03  0.25335349220E+03  0.00000000000E+00 0.  1.
        -24    2    1    2    0    0 -0.83096423038E+02 -0.12290742965E+03 -0.11574973882E+03  0.20422485788E+03  0.79363333812E+02 0.  0.
         25    2    1    2    0    0  0.24517347134E+02  0.56414581208E+02 -0.38951185448E+02  0.14473078949E+03  0.12508437670E+03 0.  0.
         24    2    1    2    0    0  0.58579075904E+02  0.66492848440E+02  0.23334713763E+04  0.23365217891E+04  0.79953735203E+02 0.  0.
        -13    1    5    5    0    0  0.39791648867E+02  0.79635520010E+02  0.14355208657E+04  0.14382786055E+04  0.00000000000E+00 0.  1.
         14    1    5    5    0    0  0.18787427038E+02 -0.13142671570E+02  0.89795051067E+03  0.89824318358E+03  0.00000000000E+00 0. -1.
         13    1    3    3    0    0 -0.27077175243E+02 -0.80788135226E+02 -0.23529670272E+02  0.88394239606E+02  0.00000000000E+00 0. -1.
        -14    1    3    3    0    0 -0.56019247795E+02 -0.42119294422E+02 -0.92220068547E+02  0.11583061827E+03  0.00000000000E+00 0.  1.
          5    1    4    4  501    0  0.39335063817E+02  0.74119754945E+02  0.15506503456E+02  0.85433654773E+02  0.41800000000E+01 0. -1.
         -5    1    4    4    0  501 -0.14817716683E+02 -0.17705173737E+02 -0.54457688903E+02  0.59297134715E+02  0.41800000000E+01 0. -1.
</event>
<event>
11    1  0.7882745E-009  0.1266306E+03  0.7561462E-02  0.1123480E+00
         22   -1    0    0    0    0  0.00000000000E+00  0.00000000000E+00  0.14448049731E+04  0.14448049731E+04  0.00000000000E+00 0.  1.
         22   -1    0    0    0    0 -0.00000000000E+00 -0.00000000000E+00 -0.75330515667E+03  0.75330515667E+03  0.00000000000E+00 0.  1.
         24    2    1    2    0    0  0.15367428223E+00  0.17496240349E+02 -0.63571185841E+03  0.64095021517E+03  0.79884099571E+02 0.  0.
         25    2    1    2    0    0  0.28815248402E+02 -0.55983496108E+02 -0.70711199005E+02  0.15687390638E+03  0.12507948857E+03 0.  0.
        -24    2    1    2    0    0 -0.28968922684E+02  0.38487255758E+02  0.13979228739E+04  0.14002860082E+04  0.65513939479E+02 0.  0.
        -11    1    3    3    0    0 -0.67923883319E+01  0.40213850405E+02 -0.56258882126E+03  0.56406513108E+03  0.00000000000E+00 0.  1.
         12    1    3    3    0    0  0.69460626141E+01 -0.22717610056E+02 -0.73123037152E+02  0.76885084086E+02  0.00000000000E+00 0. -1.
         11    1    5    5    0    0  0.13169103122E+02 -0.10394177134E+02  0.29392716909E+03  0.29440557896E+03  0.00000000000E+00 0. -1.
        -12    1    5    5    0    0 -0.42138025806E+02  0.48881432893E+02  0.11039957048E+04  0.11058804293E+04  0.00000000000E+00 0.  1.
          5    1    4    4  501    0  0.32260902464E+02 -0.90466120078E+02 -0.24954179610E+02  0.99323049640E+02  0.41800000000E+01 0.  1.
         -5    1    4    4    0  501 -0.34456540625E+01  0.34482623970E+02 -0.45757019395E+02  0.57550856742E+02  0.41800000000E+01 0.  1.
</event>
<event>
11    1  0.7882745E-009  0.1484714E+03  0.7561462E-02  0.1098451E+00
         22   -1    0    0    0    0  0.00000000000E+00  0.00000000000E+00  0.26718491576E+03  0.26718491576E+03  0.00000000000E+00 0. -1.
         22   -1    0    0    0    0 -0.00000000000E+00 -0.00000000000E+00 -0.53738123981E+03  0.53738123981E+03  0.00000000000E+00 0.  1.
         24    2    1    2    0    0 -0.63519544533E+02 -0.41512649900E+02 -0.42445691659E+03  0.43863848499E+03  0.80510954694E+02 0.  0.
         25    2    1    2    0    0  0.10318240293E+03  0.85991458710E+02  0.18651982582E+01  0.18355387444E+03  0.12508959434E+03 0.  0.
        -24    2    1    2    0    0 -0.39662858397E+02 -0.44478808810E+02  0.15239539428E+03  0.18237379614E+03  0.80525390735E+02 0.  0.
        -13    1    3    3    0    0 -0.81436544612E+02 -0.23741419549E+02 -0.30717570606E+03  0.31867299885E+03  0.00000000000E+00 0.  1.
         14    1    3    3    0    0  0.17917000079E+02 -0.17771230352E+02 -0.11728121053E+03  0.11996548614E+03  0.00000000000E+00 0. -1.
         11    1    5    5    0    0 -0.90622989950E+01 -0.42901723246E+02  0.14410848831E+03  0.15063180117E+03  0.00000000000E+00 0. -1.
        -12    1    5    5    0    0 -0.30600559402E+02 -0.15770855633E+01  0.82869059734E+01  0.31741994978E+02  0.00000000000E+00 0.  1.
          5    1    4    4  501    0  0.74759246622E+02  0.72475273930E+02  0.57853853955E+02  0.11918955954E+03  0.41800000000E+01 0.  1.
         -5    1    4    4    0  501  0.28423156308E+02  0.13516184780E+02 -0.55988655697E+02  0.64364314898E+02  0.41800000000E+01 0.  1.
</event>
<event>
11    1  0.7882745E-009  0.1314341E+03  0.7561462E-02  0.1117519E+00
         22   -1    0    0    0    0  0.00000000000E+00  0.00000000000E+00  0.53574295646E+02  0.53574295646E+02  0.00000000000E+00 0. -1.
         22   -1    0    0    0    0 -0.00000000000E+00 -0.00000000000E+00 -0.54654745591E+03  0.54654745591E+03  0.00000000000E+00 0. -1.
        -24    2    1    2    0    0  0.38288610950E+01  0.40826234421E+02 -0.16918774616E+03  0.18544743382E+03  0.63912562659E+02 0.  0.
         25    2    1    2    0    0  0.37080264066E+02 -0.30030563467E+02 -0.28725365216E+03  0.31691941622E+03  0.12508587041E+03 0.  0.
         24    2    1    2    0    0 -0.40909125161E+02 -0.10795670955E+02 -0.36531761951E+02  0.97754901518E+02  0.80195686335E+02 0.  0.
        -11    1    5    5    0    0 -0.58201086419E+01 -0.42349014508E+02 -0.23584085839E+02  0.48821325251E+02  0.00000000000E+00 0.  1.
         12    1    5    5    0    0 -0.35089016519E+02  0.31553343553E+02 -0.12947676112E+02  0.48933576268E+02  0.00000000000E+00 0. -1.
         11    1    3    3    0    0  0.42287107641E+01  0.49757351416E+02 -0.16929544256E+03  0.17650672193E+03  0.00000000000E+00 0. -1.
        -12    1    3    3    0    0 -0.39984966906E+00 -0.89311169945E+01  0.10769640487E+00  0.89407118868E+01  0.00000000000E+00 0.  1.
          5    1    4    4  501    0  0.27550875697E+02 -0.78041473209E+02 -0.20495643803E+03  0.22107495603E+03  0.41800000000E+01 0.  1.
         -5    1    4    4    0  501  0.95293883691E+01  0.48010909742E+02 -0.82297214123E+02  0.95844460191E+02  0.41800000000E+01 0.  1.
</event>
<event>
11    1  0.7882745E-009  0.1425270E+03  0.7561462E-02  0.1104769E+00
         22   -1    0    0    0    0  0.00000000000E+00  0.00000000000E+00  0.38822131834E+03  0.38822131834E+03  0.00000000000E+00 0.  1.
         22   -1    0    0    0    0 -0.00000000000E+00 -0.00000000000E+00 -0.58662650968E+03  0.58662650968E+03  0.00000000000E+00 0. -1.
         24    2    1    2    0    0  0.37950828554E+01  0.40463010728E+02 -0.52843902273E+03  0.53592296114E+03  0.79460440738E+02 0.  0.
         25    2    1    2    0    0  0.64517590553E+02 -0.42558460116E+02  0.79824639600E+02  0.16731234313E+03  0.12509078726E+03 0.  0.
        -24    2    1    2    0    0 -0.68312673408E+02  0.20954493881E+01  0.25020919180E+03  0.27161252374E+03  0.80608381309E+02 0.  0.
        -13    1    3    3    0    0 -0.20847896528E+02  0.16926424925E+02 -0.54464002015E+02  0.60724510421E+02  0.00000000000E+00 0.  1.
         14    1    3    3    0    0  0.24642979383E+02  0.23536585803E+02 -0.47397502072E+03  0.47519845072E+03  0.00000000000E+00 0. -1.
         13    1    5    5    0    0  0.15481957304E+02 -0.98212509735E+01  0.24832858369E+02  0.30867763564E+02  0.00000000000E+00 0. -1.
        -14    1    5    5    0    0 -0.83794630712E+02  0.11916700362E+02  0.22537633343E+03  0.24074476018E+03  0.00000000000E+00 0.  1.
          5    1    4    4  501    0  0.83641940175E+02 -0.25901489640E+02  0.45590018576E+01  0.87778802793E+02  0.41800000000E+01 0.  1.
         -5    1    4    4    0  501 -0.19124349622E+02 -0.16656970475E+02  0.75265637742E+02  0.79533540338E+02  0.41800000000E+01 0.  1.
</event>
<event>
11    1  0.7882745E-009  0.1433438E+03  0.7561462E-02  0.1103881E+00
         22   -1    0    0    0    0  0.00000000000E+00  0.00000000000E+00  0.25521029847E+04  0.25521029847E+04  0.00000000000E+00 0.  1.
         22   -1    0    0    0    0 -0.00000000000E+00 -0.00000000000E+00 -0.49941771206E+03  0.49941771206E+03  0.00000000000E+00 0. -1.
        -24    2    1    2    0    0 -0.41405003163E+02 -0.76170229473E+01 -0.45731103132E+03  0.46647566966E+03  0.81815510130E+02 0.  0.
         25    2    1    2    0    0  0.10641842837E+03 -0.15072316818E+02  0.15067544872E+03  0.22338878358E+03  0.12508957251E+03 0.  0.
         24    2    1    2    0    0 -0.65013425203E+02  0.22689339765E+02  0.23593208552E+04  0.23616562435E+04  0.79270190034E+02 0.  0.
        -13    1    5    5    0    0 -0.59177605686E+02  0.39441266016E+02  0.22289275758E+04  0.22300618244E+04  0.00000000000E+00 0.  1.
         14    1    5    5    0    0 -0.58358195173E+01 -0.16751926251E+02  0.13039327934E+03  0.13159441903E+03  0.00000000000E+00 0. -1.
         11    1    3    3    0    0 -0.39801128869E+02 -0.34944209668E+02 -0.39339413722E+03  0.39694354113E+03  0.00000000000E+00 0. -1.
        -12    1    3    3    0    0 -0.16038742942E+01  0.27327186721E+02 -0.63916894098E+02  0.69532128530E+02  0.00000000000E+00 0.  1.
          5    1    4    4  501    0  0.55208804970E+02  0.46193104735E+02  0.28841980397E+02  0.77660461655E+02  0.41800000000E+01 0. -1.
         -5    1    4    4    0  501  0.51209623396E+02 -0.61265421553E+02  0.12183346833E+03  0.14572832192E+03  0.41800000000E+01 0. -1.
</event>
<event>
11    1  0.7882745E-009  0.1528802E+03  0.7561462E-02  0.1093972E+00
         22   -1    0    0    0    0  0.00000000000E+00  0.00000000000E+00  0.48953090555E+03  0.48953090555E+03  0.00000000000E+00 0.  1.
         22   -1    0    0    0    0 -0.00000000000E+00 -0.00000000000E+00 -0.41862292845E+03  0.41862292845E+03  0.00000000000E+00 0. -1.
         24    2    1    2    0    0 -0.86122164381E+02 -0.23451551604E+02 -0.22107550002E+03  0.25168318614E+03  0.80641472015E+02 0.  0.
         25    2    1    2    0    0  0.54129406094E+02  0.89760183632E+02 -0.13774599195E+03  0.21356084727E+03  0.12508954401E+03 0.  0.
        -24    2    1    2    0    0  0.31992758287E+02 -0.66308632028E+02  0.42972946907E+03  0.44290980058E+03  0.77982713488E+02 0.  0.
        -13    1    3    3    0    0 -0.15204605180E+02  0.11744046347E+02 -0.27021544350E+01  0.19401141251E+02  0.00000000000E+00 0.  1.
         14    1    3    3    0    0 -0.70917559202E+02 -0.35195597951E+02 -0.21837334558E+03  0.23228204489E+03  0.00000000000E+00 0. -1.
         13    1    5    5    0    0  0.10527338485E+02 -0.59451911580E+01  0.45300614795E+01  0.12910910521E+02  0.00000000000E+00 0. -1.
        -14    1    5    5    0    0  0.21465419803E+02 -0.60363440870E+02  0.42519940759E+03  0.42999889006E+03  0.00000000000E+00 0.  1.
          5    1    4    4  501    0  0.33386607857E+02  0.10696130042E+03 -0.52030925503E+02  0.12361260041E+03  0.41800000000E+01 0.  1.
         -5    1    4    4    0  501  0.20742798237E+02 -0.17201116789E+02 -0.85715066443E+02  0.89948246858E+02  0.41800000000E+01 0.  1.
</event>
<event>
11    1  0.7882745E-009  0.1524839E+03  0.7561462E-02  0.1094367E+00
         22   -1    0    0    0    0  0.00000000000E+00  0.00000000000E+00  0.49667788879E+03  0.49667788879E+03  0.00000000000E+00 0. -1.
         22   -1    0    0    0    0 -0.00000000000E+00 -0.00000000000E+00 -0.17814686486E+04  0.17814686486E+04  0.00000000000E+00 0. -1.
         24    2    1    2    0    0  0.14278809446E+02 -0.66196450656E+02 -0.15176798910E+04  0.15232525567E+04  0.11117664102E+03 0.  0.
         25    2    1    2    0    0  0.53168793942E+02  0.78247349340E+01 -0.23291476605E+03  0.26978345937E+03  0.12508269096E+03 0.  0.
        -24    2    1    2    0    0 -0.67447603388E+02  0.58371715722E+02  0.46580389726E+03  0.48511052128E+03  0.10199269950E+03 0.  0.
        -11    1    3    3    0    0 -0.37072317569E+02 -0.38602611969E+02 -0.34520844377E+03  0.34933277549E+03  0.00000000000E+00 0.  1.
         12    1    3    3    0    0  0.51351127015E+02 -0.27593838687E+02 -0.11724714473E+04  0.11739197812E+04  0.00000000000E+00 0. -1.
         13    1    5    5    0    0 -0.77747916335E+02  0.12967569214E+02  0.19490621669E+03  0.21024112264E+03  0.00000000000E+00 0. -1.
        -14    1    5    5    0    0  0.10300312946E+02  0.45404146508E+02  0.27089768058E+03  0.27486939864E+03  0.00000000000E+00 0.  1.
          5    1    4    4  501    0  0.39874973086E+02  0.50764835557E+02 -0.20882224785E+03  0.21861218083E+03  0.41800000000E+01 0.  1.
         -5    1    4    4    0  501  0.13293820856E+02 -0.42940100623E+02 -0.24092518202E+02  0.51171278543E+02  0.41800000000E+01 0.  1.
</event>
<event>
11    1  0.7882745E-009  0.2093572E+03  0.7561462E-02  0.1048097E+00
         22   -1    0    0    0    0  0.00000000000E+00  0.00000000000E+00  0.48028918545E+03  0.48028918545E+03  0.00000000000E+00 0. -1.
         22   -1    0    0    0    0 -0.00000000000E+00 -0.00000000000E+00 -0.48719956329E+03  0.48719956329E+03  0.00000000000E+00 0.  1.
        -24    2    1    2    0    0  0.13915029399E+02  0.49174715285E+02 -0.39643318424E+03  0.40791444033E+03  0.81382678702E+02 0.  0.
         25    2    1    2    0    0 -0.16056076251E+03 -0.99533000649E+02  0.20543103256E+03  0.30584389051E+03  0.12510795158E+03 0.  0.
         24    2    1    2    0    0  0.14664573312E+03  0.50358285364E+02  0.18409177384E+03  0.25373041789E+03  0.80302028756E+02 0.  0.
        -13    1    5    5    0    0  0.79177886030E+02  0.63699666537E+02  0.81724624610E+02  0.13040590255E+03  0.00000000000E+00 0.  1.
         14    1    5    5    0    0  0.67467847087E+02 -0.13341381173E+02  0.10236714923E+03  0.12332451534E+03  0.00000000000E+00 0. -1.
         13    1    3    3    0    0  0.13046165805E+02 -0.16469545884E+02 -0.37126272798E+02  0.42659213726E+02  0.00000000000E+00 0. -1.
        -14    1    3    3    0    0  0.86886359405E+00  0.65644261169E+02 -0.35930691144E+03  0.36525522660E+03  0.00000000000E+00 0.  1.
          5    1    4    4  501    0 -0.13019488629E+03 -0.73198573360E+02  0.70924624903E+02  0.16539804828E+03  0.41800000000E+01 0.  1.
         -5    1    4    4    0  501 -0.30365876223E+02 -0.26334427289E+02  0.13450640765E+03  0.14044584223E+03  0.41800000000E+01 0.  1.
</event>
<event>
11    1  0.7882745E-009  0.1694399E+03  0.7561462E-02  0.1078520E+00
         22   -1    0    0    0    0  0.00000000000E+00  0.00000000000E+00  0.14239840474E+03  0.14239840474E+03  0.00000000000E+00 0. -1.
         22   -1    0    0    0    0 -0.00000000000E+00 -0.00000000000E+00 -0.12797527425E+04  0.12797527425E+04  0.00000000000E+00 0.  1.
        -24    2    1    2    0    0 -0.16285364314E+02  0.11429418371E+03 -0.54209085931E+03  0.56015373815E+03  0.81125440505E+02 0.  0.
         25    2    1    2    0    0  0.12734140136E+03 -0.13013008473E+03 -0.66747896725E+03  0.70308303401E+03  0.12509160459E+03 0.  0.
         24    2    1    2    0    0 -0.11105603705E+03  0.15835901021E+02  0.72215488840E+02  0.15891437504E+03  0.86339345837E+02 0.  0.
        -13    1    5    5    0    0 -0.89950736598E+02 -0.68555413497E+01  0.11754466735E+02  0.90974177380E+02  0.00000000000E+00 0.  1.
         14    1    5    5    0    0 -0.21105300450E+02  0.22691442371E+02  0.60461022105E+02  0.67940197659E+02  0.00000000000E+00 0. -1.
         13    1    3    3    0    0  0.43495728151E+01 -0.15917939156E+01  0.75487143193E+00  0.46928053893E+01  0.00000000000E+00 0. -1.
        -14    1    3    3    0    0 -0.20634937129E+02  0.11588597763E+03 -0.54284573074E+03  0.55546093276E+03  0.00000000000E+00 0.  1.
          5    1    4    4  501    0 -0.44146077731E+01 -0.46196769554E+02 -0.30231240808E+03  0.30588215829E+03  0.41800000000E+01 0. -1.
         -5    1    4    4    0  501  0.13175600913E+03 -0.83933315180E+02 -0.36516655916E+03  0.39720087572E+03  0.41800000000E+01 0. -1.
</event>
<event>
11    1  0.7882745E-009  0.1621212E+03  0.7561462E-02  0.1085099E+00
         22   -1    0    0    0    0  0.00000000000E+00  0.00000000000E+00  0.13576821667E+04  0.13576821667E+04  0.00000000000E+00 0.  1.
         22   -1    0    0    0    0 -0.00000000000E+00 -0.00000000000E+00 -0.37014091097E+04  0.37014091097E+04  0.00000000000E+00 0. -1.
        -24    2    1    2    0    0  0.20005491102E+02 -0.10214342655E+03 -0.36469685512E+04  0.36493403022E+04  0.80445810194E+02 0.  0.
         25    2    1    2    0    0 -0.56451748048E+02  0.14750272475E+02  0.44504651588E+02  0.14503812786E+03  0.12510405319E+03 0.  0.
         24    2    1    2    0    0  0.36446256946E+02  0.87393154080E+02  0.12587369565E+04  0.12647128464E+04  0.78191847988E+02 0.  0.
        -13    1    5    5    0    0  0.30637485636E+02  0.65121874264E+02  0.11909973039E+04  0.11931697666E+04  0.00000000000E+00 0.  1.
         14    1    5    5    0    0  0.58087713103E+01  0.22271279815E+02  0.67739652619E+02  0.71543079789E+02  0.00000000000E+00 0. -1.
         11    1    3    3    0    0  0.38278673454E+02 -0.25434812807E+02 -0.19488763772E+04  0.19494182004E+04  0.00000000000E+00 0. -1.
        -12    1    3    3    0    0 -0.18273182352E+02 -0.76708613748E+02 -0.16980921740E+04  0.16999221018E+04  0.00000000000E+00 0.  1.
          5    1    4    4  501    0  0.17153801595E+02  0.45610560024E+02 -0.77930218816E+01  0.49525545781E+02  0.41800000000E+01 0. -1.
         -5    1    4    4    0  501 -0.73605549643E+02 -0.30860287549E+02  0.52297673469E+02  0.95512582083E+02  0.41800000000E+01 0. -1.
</event>
<event>
11    1  0.7882745E-009  0.1360437E+03  0.7561462E-02  0.1112058E+00
         22   -1    0    0    0    0  0.00000000000E+00  0.00000000000E+00  0.11167924354E+03  0.11167924354E+03  0.00000000000E+00 0. -1.
         22   -1    0    0    0    0 -0.00000000000E+00 -0.00000000000E+00 -0.86163421320E+03  0.86163421320E+03  0.00000000000E+00 0. -1.
        -24    2    1    2    0    0  0.45879963510E+02  0.49075539457E+02 -0.54854478768E+03  0.55854095653E+03  0.80952062381E+02 0.  0.
         25    2    1    2    0    0 -0.59787221433E+00 -0.18794306874E+02 -0.26691208422E+03  0.29536827052E+03  0.12508705412E+03 0.  0.
         24    2    1    2    0    0 -0.45282091296E+02 -0.30281232583E+02  0.65501902229E+02  0.11940422969E+03  0.83662715907E+02 0.  0.
        -13    1    5    5    0    0 -0.41214993718E+02 -0.11358722187E+02 -0.79157787945E+01  0.43478222489E+02  0.00000000000E+00 0.  1.
         14    1    5    5    0    0 -0.40670975783E+01 -0.18922510396E+02  0.73417681023E+02  0.75926007199E+02  0.00000000000E+00 0. -1.
         11    1    3    3    0    0 -0.51152724546E+01  0.53519513916E+02 -0.26188549808E+03  0.26734718716E+03  0.00000000000E+00 0. -1.
        -12    1    3    3    0    0  0.50995235965E+02 -0.44439744593E+01 -0.28665928960E+03  0.29119376936E+03  0.00000000000E+00 0.  1.
          5    1    4    4  501    0  0.14097006976E+02  0.51603519726E+02 -0.13057967681E+03  0.14117426553E+03  0.41800000000E+01 0. -1.
         -5    1    4    4    0  501 -0.14694879190E+02 -0.70397826599E+02 -0.13633240741E+03  0.15419400499E+03  0.41800000000E+01 0. -1.
</event>
<event>
11    1  0.7882745E-009  0.2368117E+03  0.7561462E-02  0.1031169E+00
         22   -1    0    0    0    0  0.00000000000E+00  0.00000000000E+00  0.89268154489E+03  0.89268154489E+03  0.00000000000E+00 0. -1.
         22   -1    0    0    0    0 -0.00000000000E+00 -0.00000000000E+00 -0.10097258214E+04  0.10097258214E+04  0.00000000000E+00 0. -1.
        -24    2    1    2    0    0  0.13920666067E+03  0.14147737540E+03 -0.89065861277E+03  0.91603074750E+03  0.80282150896E+02 0.  0.
         25    2    1    2    0    0 -0.18512999170E+03 -0.15015458832E+03  0.72096319509E+02  0.27868419842E+03  0.12508992341E+03 0.  0.
         24    2    1    2    0    0  0.45923331026E+02  0.86772129279E+01  0.70151801673E+03  0.70769242039E+03  0.80726623358E+02 0.  0.
        -13    1    5    5    0    0 -0.20142713122E+02  0.22464865417E+01  0.75778561909E+02  0.78442119034E+02  0.00000000000E+00 0.  1.
         14    1    5    5    0    0  0.66066044148E+02  0.64307263862E+01  0.62573945482E+03  0.62925030135E+03  0.00000000000E+00 0. -1.
         11    1    3    3    0    0  0.14536365626E+03  0.13490629742E+03 -0.77323207834E+03  0.79825944944E+03  0.00000000000E+00 0. -1.
        -12    1    3    3    0    0 -0.61569955855E+01  0.65710779735E+01 -0.11742653442E+03  0.11777129806E+03  0.00000000000E+00 0.  1.
          5    1    4    4  501    0 -0.17130800743E+03 -0.16077922325E+03  0.35113827234E+02  0.23758544842E+03  0.41800000000E+01 0.  1.
         -5    1    4    4    0  501 -0.13821984274E+02  0.10624634923E+02  0.36982492276E+02  0.41098749998E+02  0.41800000000E+01 0.  1.
</event>
<event>
11    1  0.7882745E-009  0.1660966E+03  0.7561462E-02  0.1081479E+00
         22   -1    0    0    0    0  0.00000000000E+00  0.00000000000E+00  0.81493586619E+02  0.81493586619E+02  0.00000000000E+00 0. -1.
         22   -1    0    0    0    0 -0.00000000000E+00 -0.00000000000E+00 -0.13565406600E+04  0.13565406600E+04  0.00000000000E+00 0. -1.
         24    2    1    2    0    0  0.50918193860E+02  0.83581307397E+01 -0.97501740647E+03  0.98083287642E+03  0.93336315168E+02 0.  0.
         25    2    1    2    0    0  0.67763451480E+02 -0.28752818853E+02 -0.27345737382E+03  0.30958877023E+03  0.12509061279E+03 0.  0.
        -24    2    1    2    0    0 -0.11868164534E+03  0.20394688113E+02 -0.26572293083E+02  0.14761259996E+03  0.81130245064E+02 0.  0.
        -11    1    3    3    0    0  0.54814315993E+01  0.71981518757E+01 -0.62421549465E+01  0.10991996233E+02  0.00000000000E+00 0.  1.
         12    1    3    3    0    0  0.45436762261E+02  0.11599788640E+01 -0.96877525152E+03  0.96984088018E+03  0.00000000000E+00 0. -1.
         11    1    5    5    0    0 -0.55078798801E+02  0.41217974015E+02  0.12786561385E+02  0.69972077369E+02  0.00000000000E+00 0. -1.
        -12    1    5    5    0    0 -0.63602846539E+02 -0.20823285902E+02 -0.39358854468E+02  0.77640522594E+02  0.00000000000E+00 0.  1.
          5    1    4    4  501    0 -0.35891530776E+02 -0.12453356958E+01 -0.50093124819E+02  0.61778203248E+02  0.41800000000E+01 0. -1.
         -5    1    4    4    0  501  0.10365498226E+03 -0.27507483157E+02 -0.22336424900E+03  0.24781056698E+03  0.41800000000E+01 0. -1.
</event>
<event>
11    1  0.7882745E-009  0.2718988E+03  0.7561462E-02  0.1012840E+00
         22   -1    0    0    0    0  0.00000000000E+00  0.00000000000E+00  0.10679893123E+04  0.10679893123E+04  0.00000000000E+00 0.  1.
         22   -1    0    0    0    0 -0.00000000000E+00 -0.00000000000E+00 -0.17757465207E+04  0.17757465207E+04  0.00000000000E+00 0.  1.
        -24    2    1    2    0    0 -0.33972463082E+02 -0.24394534137E+02 -0.14742240610E+04  0.14770243305E+04  0.80715977682E+02 0.  0.
         25    2    1    2    0    0  0.88376812695E+02  0.25785725493E+03 -0.20480857104E+03  0.36317452706E+03  0.12509341065E+03 0.  0.
         24    2    1    2    0    0 -0.54404349614E+02 -0.23346272079E+03  0.97127542368E+03  0.10035369754E+04  0.79030609108E+02 0.  0.
        -13    1    5    5    0    0 -0.49272153656E+00 -0.16553327343E+03  0.65374347004E+03  0.67437529018E+03  0.00000000000E+00 0.  1.
         14    1    5    5    0    0 -0.53911628077E+02 -0.67929447369E+02  0.31753195364E+03  0.32916168526E+03  0.00000000000E+00 0. -1.
         13    1    3    3    0    0 -0.35143442785E+02 -0.20324029027E+02 -0.29368454777E+03  0.29647721890E+03  0.00000000000E+00 0. -1.
        -14    1    3    3    0    0  0.11709797039E+01 -0.40705051101E+01 -0.11805395133E+04  0.11805471116E+04  0.00000000000E+00 0.  1.
          5    1    4    4  501    0  0.67472811808E+01 -0.13962234187E+02 -0.11706968567E+02  0.19874488669E+02  0.41800000000E+01 0.  1.
         -5    1    4    4    0  501  0.81629531514E+02  0.27181948912E+03 -0.19310160247E+03  0.34330003839E+03  0.41800000000E+01 0.  1.
</event>
<event>
11    1  0.7882745E-009  0.1436066E+03  0.7561462E-02  0.1103597E+00
         22   -1    0    0    0    0  0.00000000000E+00  0.00000000000E+00  0.32737373486E+03  0.32737373486E+03  0.00000000000E+00 0. -1.
         22   -1    0    0    0    0 -0.00000000000E+00 -0.00000000000E+00 -0.11753998993E+04  0.11753998993E+04  0.00000000000E+00 0.  1.
         24    2    1    2    0    0 -0.20966708471E+01  0.56609421460E+02 -0.10648034073E+04  0.10689937289E+04  0.75711779706E+02 0.  0.
         25    2    1    2    0    0 -0.13152891254E+02 -0.11983279227E+03 -0.20272634106E+02  0.17490270318E+03  0.12508828576E+03 0.  0.
        -24    2    1    2    0    0  0.15249562101E+02  0.63223370811E+02  0.23704987693E+03  0.25887720212E+03  0.81209715332E+02 0.  0.
        -11    1    3    3    0    0  0.40118891585E+01  0.61032461701E+02 -0.10542485871E+04  0.10560213729E+04  0.00000000000E+00 0.  1.
         12    1    3    3    0    0 -0.61085600055E+01 -0.44230402415E+01 -0.10554820198E+02  0.12972355982E+02  0.00000000000E+00 0. -1.
         11    1    5    5    0    0  0.38085016774E+02  0.90826584644E+01  0.14049299162E+03  0.14584664509E+03  0.00000000000E+00 0. -1.
        -12    1    5    5    0    0 -0.22835454673E+02  0.54140712346E+02  0.96556885306E+02  0.11303055703E+03  0.00000000000E+00 0.  1.
          5    1    4    4  501    0  0.47300408985E+02 -0.20562818783E+02  0.14087867055E+02  0.53629270036E+02  0.41800000000E+01 0. -1.
         -5    1    4    4    0  501 -0.60453300239E+02 -0.99269973488E+02 -0.34360501161E+02  0.12127343314E+03  0.41800000000E+01 0. -1.
</event>
<event>
11    1  0.7882745E-009  0.1493765E+03  0.7561462E-02  0.1097518E+00
         22   -1    0    0    0    0  0.00000000000E+00  0.00000000000E+00  0.13714955259E+04  0.13714955259E+04  0.00000000000E+00 0.  1.
         22   -1    0    0    0    0 -0.00000000000E+00 -0.00000000000E+00 -0.10101932403E+03  0.10101932403E+03  0.00000000000E+00 0. -1.
         24    2    1    2    0    0  0.24380625985E+02 -0.79834236188E+02 -0.37617720757E+02  0.12130096701E+03  0.79567025153E+02 0.  0.
         25    2    1    2    0    0 -0.34094278659E+01  0.72092939020E+02  0.24206216441E+03  0.28186896616E+03  0.12508799538E+03 0.  0.
        -24    2    1    2    0    0 -0.20971198119E+02  0.77412971689E+01  0.10660317583E+04  0.10693449168E+04  0.81087130063E+02 0.  0.
        -11    1    3    3    0    0  0.43458303768E+02 -0.12445896109E+02 -0.16945923402E+02  0.48277208041E+02  0.00000000000E+00 0.  1.
         12    1    3    3    0    0 -0.19077677783E+02 -0.67388340079E+02 -0.20671797355E+02  0.73023758970E+02  0.00000000000E+00 0. -1.
         13    1    5    5    0    0  0.25625350866E+02 -0.17231639960E+02  0.44233110650E+03  0.44340770832E+03  0.00000000000E+00 0. -1.
        -14    1    5    5    0    0 -0.46596548985E+02  0.24972937129E+02  0.62370065176E+03  0.62593720849E+03  0.00000000000E+00 0.  1.
          5    1    4    4  501    0  0.43130251066E+02 -0.21781296879E+01  0.14345649944E+03  0.14987395516E+03  0.41800000000E+01 0. -1.
         -5    1    4    4    0  501 -0.46539678932E+02  0.74271068707E+02  0.98605664975E+02  0.13199501099E+03  0.41800000000E+01 0. -1.
</event>
<event>
11    1  0.7882745E-009  0.2116853E+03  0.7561462E-02  0.1046555E+00
         22   -1    0    0    0    0  0.00000000000E+00  0.00000000000E+00  0.72687248877E+03  0.72687248877E+03  0.00000000000E+00 0.  1.
         22   -1    0    0    0    0 -0.00000000000E+00 -0.00000000000E+00 -0.20547523980E+03  0.20547523980E+03  0.00000000000E+00 0. -1.
        -24    2    1    2    0    0 -0.23864417579E+02  0.89765056982E+02 -0.79305521375E+02  0.14389895048E+03  0.76093799667E+02 0.  0.
         25    2    1    2    0    0 -0.10487049984E+03  0.43368726873E+02  0.15711509327E+02  0.16962596303E+03  0.12508975818E+03 0.  0.
         24    2    1    2    0    0  0.12873491742E+03 -0.13313378386E+03  0.58499126101E+03  0.61882281506E+03  0.80184896403E+02 0.  0.
        -13    1    5    5    0    0  0.65764884857E+02 -0.10701425416E+03  0.28958831224E+03  0.31565560546E+03  0.00000000000E+00 0.  1.
         14    1    5    5    0    0  0.62970032558E+02 -0.26119529700E+02  0.29540294878E+03  0.30316720960E+03  0.00000000000E+00 0. -1.
         11    1    3    3    0    0  0.64027361724E+01  0.38161356069E+02 -0.74415150497E+02  0.83874303282E+02  0.00000000000E+00 0. -1.
        -12    1    3    3    0    0 -0.30267153751E+02  0.51603700913E+02 -0.48903708782E+01  0.60024647200E+02  0.00000000000E+00 0.  1.
          5    1    4    4  501    0  0.15103450139E+02 -0.10031705586E+02  0.32217950955E+02  0.37205081465E+02  0.41800000000E+01 0. -1.
         -5    1    4    4    0  501 -0.11997394998E+03  0.53400432460E+02 -0.16506441628E+02  0.13242088157E+03  0.41800000000E+01 0. -1.
</event>
<event>
11    1  0.7882745E-009  0.1402093E+03  0.7561462E-02  0.1107325E+00
         22   -1    0    0    0    0  0.00000000000E+00  0.00000000000E+00  0.19450842695E+03  0.19450842695E+03  0.00000000000E+00 0. -1.
         22   -1    0    0    0    0 -0.00000000000E+00 -0.00000000000E+00 -0.11538976466E+04  0.11538976466E+04  0.00000000000E+00 0.  1.
         24    2    1    2    0    0  0.98814916732E+01  0.59480168110E+02 -0.71966966649E+03  0.72626057278E+03  0.76775363394E+02 0.  0.
         25    2    1    2    0    0 -0.45114894402E+02 -0.10971402075E+03 -0.39738436285E+03  0.43316676989E+03  0.12508636478E+03 0.  0.
        -24    2    1    2    0    0  0.35233402729E+02  0.50233852639E+02  0.15766480969E+03  0.18897873089E+03  0.84201757073E+02 0.  0.
        -13    1    3    3    0    0  0.27814613860E+02  0.60878614151E+02 -0.67174828010E+03  0.67507452197E+03  0.00000000000E+00 0.  1.
         14    1    3    3    0    0 -0.17933122187E+02 -0.13984460407E+01 -0.47921386396E+02  0.51186050803E+02  0.00000000000E+00 0. -1.
         13    1    5    5    0    0  0.61643945618E+02  0.41109230415E+02  0.13015231213E+03  0.14976504669E+03  0.00000000000E+00 0. -1.
        -14    1    5    5    0    0 -0.26410542889E+02  0.91246222241E+01  0.27512497557E+02  0.39213684196E+02  0.00000000000E+00 0.  1.
          5    1    4    4  501    0 -0.22771344936E+01 -0.99865237336E+02 -0.14006657028E+03  0.17208825492E+03  0.41800000000E+01 0.  1.
         -5    1    4    4    0  501 -0.42837759909E+02 -0.98487834136E+01 -0.25731779256E+03  0.26107851497E+03  0.41800000000E+01 0.  1.
</event>
<event>
11    1  0.7882745E-009  0.2076782E+03  0.7561462E-02  0.1049223E+00
         22   -1    0    0    0    0  0.00000000000E+00  0.00000000000E+00  0.73005667812E+03  0.73005667812E+03  0.00000000000E+00 0. -1.
         22   -1    0    0    0    0 -0.00000000000E+00 -0.00000000000E+00 -0.57568336407E+03  0.57568336407E+03  0.00000000000E+00 0. -1.
        -24    2    1    2    0    0 -0.19773962783E+03 -0.16069157624E+02 -0.46816370917E+03  0.51558858417E+03  0.85411657842E+02 0.  0.
         25    2    1    2    0    0  0.63832764989E+02 -0.46989704460E+02  0.31280993050E+01  0.14812225965E+03  0.12509102521E+03 0.  0.
         24    2    1    2    0    0  0.13390686284E+03  0.63058862084E+02  0.61940892392E+03  0.64202919837E+03  0.81403983479E+02 0.  0.
        -11    1    5    5    0    0  0.58583159317E+02 -0.12286884606E+02  0.17227108161E+03  0.18237401034E+03  0.00000000000E+00 0.  1.
         12    1    5    5    0    0  0.75323703519E+02  0.75345746690E+02  0.44713784231E+03  0.45965518803E+03  0.00000000000E+00 0. -1.
         13    1    3    3    0    0 -0.11547331164E+03 -0.20239340417E+01 -0.36533211072E+03  0.38315236282E+03  0.00000000000E+00 0. -1.
        -14    1    3    3    0    0 -0.82266316187E+02 -0.14045223582E+02 -0.10283159846E+03  0.13243622135E+03  0.00000000000E+00 0.  1.
          5    1    4    4  501    0  0.64121249961E+02  0.27392542511E+02  0.18040165440E+02  0.72144341780E+02  0.41800000000E+01 0. -1.
         -5    1    4    4    0  501 -0.28848497152E+00 -0.74382246972E+02 -0.14912066135E+02  0.75977917875E+02  0.41800000000E+01 0. -1.
</event>
<event>
11    1  0.7882745E-009  0.3763815E+03  0.7561462E-02  0.9722136E-01
         22   -1    0    0    0    0  0.00000000000E+00  0.00000000000E+00  0.10609425714E+04  0.10609425714E+04  0.00000000000E+00 0. -1.
         22   -1    0    0    0    0 -0.00000000000E+00 -0.00000000000E+00 -0.23593583018E+04  0.23593583018E+04  0.00000000000E+00 0. -1.
         24    2    1    2    0    0 -0.47879052084E+02 -0.55720285462E+01 -0.22269811260E+04  0.22289841179E+04  0.81251530559E+02 0.  0.
         25    2    1    2    0    0  0.33273697739E+03 -0.17554231836E+03  0.48131866174E+03  0.62357086643E+03  0.12507585565E+03 0.  0.
        -24    2    1    2    0    0 -0.28485792531E+03  0.18111434690E+03  0.44724673380E+03  0.56774588889E+03  0.91429257852E+02 0.  0.
        -11    1    3    3    0    0 -0.12704690393E+02 -0.17038569072E+02 -0.13391971959E+03  0.13559577165E+03  0.00000000000E+00 0.  1.
         12    1    3    3    0    0 -0.35174361690E+02  0.11466540525E+02 -0.20930614064E+04  0.20933883462E+04  0.00000000000E+00 0. -1.
         11    1    5    5    0    0 -0.22670225720E+03  0.14639900300E+03  0.40887171683E+03  0.48990066577E+03  0.00000000000E+00 0. -1.
        -12    1    5    5    0    0 -0.58155668106E+02  0.34715343899E+02  0.38375016974E+02  0.77845223120E+02  0.00000000000E+00 0.  1.
          5    1    4    4  501    0  0.22291052129E+03 -0.53932163413E+02  0.24136710197E+03  0.33297646923E+03  0.41800000000E+01 0.  1.
         -5    1    4    4    0  501  0.10982645610E+03 -0.12161015494E+03  0.23995155978E+03  0.29059439720E+03  0.41800000000E+01 0.  1.
</event>
<event>
11    1  0.7882745E-009  0.1265066E+03  0.7561462E-02  0.1123637E+00
         22   -1    0    0    0    0  0.00000000000E+00  0.00000000000E+00  0.14371207166E+03  0.14371207166E+03  0.00000000000E+00 0.  1.
         22   -1    0    0    0    0 -0.00000000000E+00 -0.00000000000E+00 -0.90025167559E+03  0.90025167559E+03  0.00000000000E+00 0. -1.
        -24    2    1    2    0    0 -0.18048306553E+01 -0.30110381242E+02 -0.43615068281E+03  0.44376747094E+03  0.76106883264E+02 0.  0.
         25    2    1    2    0    0  0.99583344858E+01  0.12200297174E+02 -0.43830117417E+03  0.45607208610E+03  0.12508322338E+03 0.  0.
         24    2    1    2    0    0 -0.81535038306E+01  0.17910084068E+02  0.11791225304E+03  0.14412419020E+03  0.80506099441E+02 0.  0.
        -13    1    5    5    0    0  0.23258354823E+02  0.32428680637E+02  0.30863231290E+02  0.50449077718E+02  0.00000000000E+00 0.  1.
         14    1    5    5    0    0 -0.31411858654E+02 -0.14518596569E+02  0.87049021751E+02  0.93675112481E+02  0.00000000000E+00 0. -1.
         13    1    3    3    0    0 -0.28680735432E+02 -0.17484597707E+02 -0.36669975551E+03  0.36823498806E+03  0.00000000000E+00 0. -1.
        -14    1    3    3    0    0  0.26875904777E+02 -0.12625783535E+02 -0.69450927299E+02  0.75532482880E+02  0.00000000000E+00 0.  1.
          5    1    4    4  501    0  0.26728993936E+02  0.21115715608E+01 -0.12631122303E+02  0.29931847619E+02  0.41800000000E+01 0. -1.
         -5    1    4    4    0  501 -0.16770659450E+02  0.10088725613E+02 -0.42567005186E+03  0.42614023848E+03  0.41800000000E+01 0. -1.
</event>
<event>
11    1  0.7882745E-009  0.1623137E+03  0.7561462E-02  0.1084921E+00
         22   -1    0    0    0    0  0.00000000000E+00  0.00000000000E+00  0.17130290665E+03  0.17130290665E+03  0.00000000000E+00 0.  1.
         22   -1    0    0    0    0 -0.00000000000E+00 -0.00000000000E+00 -0.19419931823E+04  0.19419931823E+04  0.00000000000E+00 0. -1.
         24    2    1    2    0    0  0.60346455318E+02 -0.26603830611E+01 -0.16857470464E+04  0.16887218560E+04  0.79935162714E+02 0.  0.
         25    2    1    2    0    0  0.47836387149E+02 -0.20814113689E+02 -0.20310569808E+03  0.24417284940E+03  0.12508760342E+03 0.  0.
        -24    2    1    2    0    0 -0.10818284247E+03  0.23474496750E+02  0.11816246878E+03  0.18040138358E+03  0.79546909235E+02 0.  0.
        -13    1    3    3    0    0 -0.13363996359E+02 -0.39534032916E+01 -0.74699256932E+02  0.75988188441E+02  0.00000000000E+00 0.  1.
         14    1    3    3    0    0  0.73710451676E+02  0.12930202305E+01 -0.16110477894E+04  0.16127336675E+04  0.00000000000E+00 0. -1.
         11    1    5    5    0    0 -0.76025578774E+02  0.13204509987E+02  0.24686192181E+02  0.81016392145E+02  0.00000000000E+00 0. -1.
        -12    1    5    5    0    0 -0.32157263693E+02  0.10269986763E+02  0.93476276600E+02  0.99384991439E+02  0.00000000000E+00 0.  1.
          5    1    4    4  501    0  0.12315812037E+01  0.63435192182E+01  0.16390487366E+02  0.18107388117E+02  0.41800000000E+01 0.  1.
         -5    1    4    4    0  501  0.46604805946E+02 -0.27157632907E+02 -0.21949618544E+03  0.22606546128E+03  0.41800000000E+01 0.  1.
</event>
<event>
11    1  0.7882745E-009  0.1793103E+03  0.7561462E-02  0.1070202E+00
         22   -1    0    0    0    0  0.00000000000E+00  0.00000000000E+00  0.27921883119E+03  0.27921883119E+03  0.00000000000E+00 0. -1.
         22   -1    0    0    0    0 -0.00000000000E+00 -0.00000000000E+00 -0.11488609043E+04  0.11488609043E+04  0.00000000000E+00 0. -1.
        -24    2    1    2    0    0 -0.11874888422E+03 -0.66022244975E+02 -0.89451444333E+03  0.90841592389E+03  0.81259873935E+02 0.  0.
         25    2    1    2    0    0  0.81532942894E+02  0.58558964362E+02 -0.21190999081E+03  0.26576229894E+03  0.12508789808E+03 0.  0.
         24    2    1    2    0    0  0.37215941321E+02  0.74632806127E+01  0.23678236101E+03  0.25390151269E+03  0.83422807540E+02 0.  0.
        -11    1    5    5    0    0  0.33884995512E+02 -0.29416475469E+02  0.70674547075E+02  0.83716268157E+02  0.00000000000E+00 0.  1.
         12    1    5    5    0    0  0.33309458089E+01  0.36879756081E+02  0.16610781393E+03  0.17018524454E+03  0.00000000000E+00 0. -1.
         11    1    3    3    0    0 -0.10839801281E+03 -0.28671865417E+02 -0.76666025518E+03  0.77481620525E+03  0.00000000000E+00 0. -1.
        -12    1    3    3    0    0 -0.10350871402E+02 -0.37350379558E+02 -0.12785418815E+03  0.13359971864E+03  0.00000000000E+00 0.  1.
          5    1    4    4  501    0  0.10156659296E+02  0.83768986465E+02 -0.11606288434E+03  0.14355649182E+03  0.41800000000E+01 0.  1.
         -5    1    4    4    0  501  0.71376283598E+02 -0.25210022103E+02 -0.95847106468E+02  0.12220580712E+03  0.41800000000E+01 0.  1.
</event>
<event>
11    1  0.7882745E-009  0.1369087E+03  0.7561462E-02  0.1111060E+00
         22   -1    0    0    0    0  0.00000000000E+00  0.00000000000E+00  0.13866222152E+03  0.13866222152E+03  0.00000000000E+00 0. -1.
         22   -1    0    0    0    0 -0.00000000000E+00 -0.00000000000E+00 -0.91666685133E+03  0.91666685133E+03  0.00000000000E+00 0.  1.
         24    2    1    2    0    0  0.47515481530E+02 -0.27005536435E+02 -0.81362419929E+03  0.81937662445E+03  0.80041832983E+02 0.  0.
         25    2    1    2    0    0 -0.76714250806E+02  0.32539084868E+02  0.87114417649E+01  0.15056068331E+03  0.12509501117E+03 0.  0.
        -24    2    1    2    0    0  0.29198769276E+02 -0.55335484334E+01  0.26908127716E+02  0.85391765098E+02  0.75395742080E+02 0.  0.
        -13    1    3    3    0    0  0.54507863828E+02 -0.37316260573E+01 -0.73628354840E+03  0.73830785983E+03  0.00000000000E+00 0.  1.
         14    1    3    3    0    0 -0.69923822983E+01 -0.23273910378E+02 -0.77340650899E+02  0.81068764613E+02  0.00000000000E+00 0. -1.
         13    1    5    5    0    0  0.23258451445E+02 -0.14783693144E+02  0.51524663733E+02  0.58432047024E+02  0.00000000000E+00 0. -1.
        -14    1    5    5    0    0  0.59403178312E+01  0.92501447104E+01 -0.24616536018E+02  0.26959718074E+02  0.00000000000E+00 0.  1.
          5    1    4    4  501    0 -0.35849962141E+02  0.67938220214E+02  0.41279892216E+02  0.87305918772E+02  0.41800000000E+01 0. -1.
         -5    1    4    4    0  501 -0.40864288665E+02 -0.35399135346E+02 -0.32568450451E+02  0.63254764533E+02  0.41800000000E+01 0. -1.
</event>
<event>
11    1  0.7882745E-009  0.1511112E+03  0.7561462E-02  0.1095749E+00
         22   -1    0    0    0    0  0.00000000000E+00  0.00000000000E+00  0.24718660774E+04  0.24718660774E+04  0.00000000000E+00 0. -1.
         22   -1    0    0    0    0 -0.00000000000E+00 -0.00000000000E+00 -0.54337054227E+03  0.54337054227E+03  0.00000000000E+00 0. -1.
         24    2    1    2    0    0 -0.22784753945E+02 -0.15741190433E+02 -0.52077129266E+03  0.52788531000E+03  0.81812170034E+02 0.  0.
         25    2    1    2    0    0  0.45830329658E+02 -0.66628189234E+02  0.30155610191E+03  0.33633713078E+03  0.12508736237E+03 0.  0.
        -24    2    1    2    0    0 -0.23045575713E+02  0.82369379667E+02  0.21477107259E+04  0.21510141789E+04  0.82974830314E+02 0.  0.
        -11    1    3    3    0    0 -0.14121109355E+02  0.67972758505E+01 -0.15516294456E+02  0.22053663688E+02  0.00000000000E+00 0.  1.
         12    1    3    3    0    0 -0.86636445897E+01 -0.22538466283E+02 -0.50525499820E+03  0.50583164631E+03  0.00000000000E+00 0. -1.
         11    1    5    5    0    0 -0.42958337569E+01  0.64966823755E+02  0.20031260096E+04  0.20041838620E+04  0.00000000000E+00 0. -1.
        -12    1    5    5    0    0 -0.18749741956E+02  0.17402555912E+02  0.14458471623E+03  0.14683031684E+03  0.00000000000E+00 0.  1.
          5    1    4    4  501    0  0.18793906809E+02 -0.17370827652E+02  0.27100478827E+03  0.27224258346E+03  0.41800000000E+01 0.  1.
         -5    1    4    4    0  501  0.27036422849E+02 -0.49257361581E+02  0.30551313642E+02  0.64094547316E+02  0.41800000000E+01 0.  1.
</event>
<event>
11    1  0.7882745E-009  0.1545800E+03  0.7561462E-02  0.1092289E+00
         22   -1    0    0    0    0  0.00000000000E+00  0.00000000000E+00  0.14017725225E+04  0.14017725225E+04  0.00000000000E+00 0. -1.
         22   -1    0    0    0    0 -0.00000000000E+00 -0.00000000000E+00 -0.32386097228E+03  0.32386097228E+03  0.00000000000E+00 0.  1.
         24    2    1    2    0    0 -0.61300940279E+02  0.64168459876E+02 -0.28208441315E+03  0.30544385543E+03  0.76478337809E+02 0.  0.
         25    2    1    2    0    0  0.88552868120E+02 -0.13811206253E+03  0.37073949341E+03  0.42427891481E+03  0.12509305858E+03 0.  0.
        -24    2    1    2    0    0 -0.27251927842E+02  0.73943602654E+02  0.98925647000E+03  0.99591072460E+03  0.83662918807E+02 0.  0.
        -13    1    3    3    0    0 -0.78306279654E+02  0.61476333126E+02 -0.24857965186E+03  0.26777426368E+03  0.00000000000E+00 0.  1.
         14    1    3    3    0    0  0.17005339375E+02  0.26921267507E+01 -0.33504761290E+02  0.37669591752E+02  0.00000000000E+00 0. -1.
         11    1    5    5    0    0 -0.44415706305E+02  0.64708668916E+01  0.43048163961E+03  0.43281528292E+03  0.00000000000E+00 0. -1.
        -12    1    5    5    0    0  0.17163778463E+02  0.67472735762E+02  0.55877483039E+03  0.56309544168E+03  0.00000000000E+00 0.  1.
          5    1    4    4  501    0 -0.17778520720E+02 -0.62895177028E+02  0.66645319071E+02  0.93439552902E+02  0.41800000000E+01 0.  1.
         -5    1    4    4    0  501  0.10633138884E+03 -0.75216885502E+02  0.30409417434E+03  0.33083936191E+03  0.41800000000E+01 0.  1.
</event>
<event>
11    1  0.7882745E-009  0.1399036E+03  0.7561462E-02  0.1107666E+00
         22   -1    0    0    0    0  0.00000000000E+00  0.00000000000E+00  0.45260715428E+03  0.45260715428E+03  0.00000000000E+00 0.  1.
         22   -1    0    0    0    0 -0.00000000000E+00 -0.00000000000E+00 -0.20780477983E+04  0.20780477983E+04  0.00000000000E+00 0. -1.
        -24    2    1    2    0    0 -0.34422425833E+02  0.20883043114E+02 -0.19083826108E+04  0.19104593219E+04  0.79433157233E+02 0.  0.
         25    2    1    2    0    0  0.23562398095E+02  0.41776104337E+02 -0.13496854394E+03  0.19016995643E+03  0.12509066703E+03 0.  0.
         24    2    1    2    0    0  0.10860027738E+02 -0.62659147451E+02  0.41791051073E+03  0.43002567426E+03  0.78922598649E+02 0.  0.
        -13    1    5    5    0    0  0.15499862610E+02 -0.43311037530E+02  0.40179915799E+03  0.40442385572E+03  0.00000000000E+00 0.  1.
         14    1    5    5    0    0 -0.46398348723E+01 -0.19348109921E+02  0.16111352737E+02  0.25601818532E+02  0.00000000000E+00 0. -1.
         11    1    3    3    0    0  0.57413467243E+01  0.39964870277E+02 -0.12024449726E+04  0.12031226313E+04  0.00000000000E+00 0. -1.
        -12    1    3    3    0    0 -0.40163772557E+02 -0.19081827164E+02 -0.70593763822E+03  0.70733669055E+03  0.00000000000E+00 0.  1.
          5    1    4    4  501    0 -0.44724084725E+02  0.21843066646E+02 -0.17783386271E+02  0.53019661846E+02  0.41800000000E+01 0.  1.
         -5    1    4    4    0  501  0.68286482820E+02  0.19933037691E+02 -0.11718515767E+03  0.13715029459E+03  0.41800000000E+01 0.  1.
</event>
<event>
11    1  0.7882745E-009  0.1312467E+03  0.7561462E-02  0.1117747E+00
         22   -1    0    0    0    0  0.00000000000E+00  0.00000000000E+00  0.25818472189E+03  0.25818472189E+03  0.00000000000E+00 0. -1.
         22   -1    0    0    0    0 -0.00000000000E+00 -0.00000000000E+00 -0.10032163921E+04  0.10032163921E+04  0.00000000000E+00 0.  1.
        -24    2    1    2    0    0  0.60792274326E+01 -0.18193094696E+02 -0.77007271598E+03  0.77458616039E+03  0.81263683551E+02 0.  0.
         25    2    1    2    0    0 -0.11168942255E+02 -0.21943094396E+02 -0.20264479220E+03  0.23941402327E+03  0.12509163868E+03 0.  0.
         24    2    1    2    0    0  0.50897148226E+01  0.40136189091E+02  0.22768583795E+03  0.24740093035E+03  0.87917920045E+02 0.  0.
        -13    1    5    5    0    0 -0.28050232268E+02  0.67233060896E+00  0.22859887068E+02  0.36191739327E+02  0.00000000000E+00 0.  1.
         14    1    5    5    0    0  0.33139947091E+02  0.39463858482E+02  0.20482595088E+03  0.21120919103E+03  0.00000000000E+00 0. -1.
         11    1    3    3    0    0 -0.13450398850E+02  0.12853606695E+02 -0.46490032273E+02  0.50074459908E+02  0.00000000000E+00 0. -1.
        -12    1    3    3    0    0  0.19529626282E+02 -0.31046701391E+02 -0.72358268371E+03  0.72451170048E+03  0.00000000000E+00 0.  1.
          5    1    4    4  501    0 -0.10931144615E+02  0.42319996696E+02 -0.25158003475E+02  0.50605035142E+02  0.41800000000E+01 0.  1.
         -5    1    4    4    0  501 -0.23779764066E+00 -0.64263091091E+02 -0.17748678873E+03  0.18880898813E+03  0.41800000000E+01 0.  1.
</event>
<event>
11    1  0.7882745E-009  0.1486549E+03  0.7561462E-02  0.1098261E+00
         22   -1    0    0    0    0  0.00000000000E+00  0.00000000000E+00  0.82982825719E+03  0.82982825719E+03  0.00000000000E+00 0.  1.
         22   -1    0    0    0    0 -0.00000000000E+00 -0.00000000000E+00 -0.89691332892E+03  0.89691332892E+03  0.00000000000E+00 0. -1.
         24    2    1    2    0    0  0.25741832326E+02  0.78297709924E+01 -0.46463815612E+03  0.47240181636E+03  0.80937708965E+02 0.  0.
         25    2    1    2    0    0 -0.76585181224E+02 -0.69737703893E+02 -0.40883979684E+03  0.43991542765E+03  0.12508783585E+03 0.  0.
        -24    2    1    2    0    0  0.50843348897E+02  0.61907932901E+02  0.80639288122E+03  0.81442434210E+03  0.81239718320E+02 0.  0.
        -13    1    3    3    0    0 -0.44676789493E+00  0.38769002366E+02 -0.14094323394E+03  0.14617876159E+03  0.00000000000E+00 0.  1.
         14    1    3    3    0    0  0.26188600221E+02 -0.30939231374E+02 -0.32369492218E+03  0.32622305478E+03  0.00000000000E+00 0. -1.
         11    1    5    5    0    0  0.44698549710E+02  0.36959614549E+02  0.22151134136E+03  0.22897870601E+03  0.00000000000E+00 0. -1.
        -12    1    5    5    0    0  0.61447991874E+01  0.24948318352E+02  0.58488153986E+03  0.58544563609E+03  0.00000000000E+00 0.  1.
          5    1    4    4  501    0 -0.28550715817E+01 -0.80771992076E+02 -0.14900563293E+03  0.16956537731E+03  0.41800000000E+01 0. -1.
         -5    1    4    4    0  501 -0.73730109642E+02  0.11034288183E+02 -0.25983416391E+03  0.27035005034E+03  0.41800000000E+01 0. -1.
</event>
<event>
11    1  0.7882745E-009  0.1323351E+03  0.7561462E-02  0.1116433E+00
         22   -1    0    0    0    0  0.00000000000E+00  0.00000000000E+00  0.11028173584E+04  0.11028173584E+04  0.00000000000E+00 0.  1.
         22   -1    0    0    0    0 -0.00000000000E+00 -0.00000000000E+00 -0.25964445878E+03  0.25964445878E+03  0.00000000000E+00 0.  1.
        -24    2    1    2    0    0  0.37186225114E+02 -0.42251280587E+01 -0.23373675498E+03  0.24973603943E+03  0.79589897087E+02 0.  0.
         25    2    1    2    0    0  0.58060894988E+01  0.25256202128E+02  0.25327274136E+03  0.28366491807E+03  0.12508843995E+03 0.  0.
         24    2    1    2    0    0 -0.42992314613E+02 -0.21031074069E+02  0.82363691327E+03  0.82906085970E+03  0.81691486622E+02 0.  0.
        -11    1    5    5    0    0  0.89598197685E+01 -0.82623085851E+01  0.55578221247E+03  0.55591583159E+03  0.00000000000E+00 0.  1.
         12    1    5    5    0    0 -0.51952134381E+02 -0.12768765484E+02  0.26785470080E+03  0.27314502811E+03  0.00000000000E+00 0. -1.
         11    1    3    3    0    0 -0.24406276526E+02  0.41796600082E+01 -0.50542696266E+02  0.56282324378E+02  0.00000000000E+00 0. -1.
        -12    1    3    3    0    0  0.61592501640E+02 -0.84047880669E+01 -0.18319405871E+03  0.19345371505E+03  0.00000000000E+00 0.  1.
          5    1    4    4  501    0  0.64425337057E+02  0.32864508619E+01  0.13915622774E+03  0.15343843369E+03  0.41800000000E+01 0.  1.
         -5    1    4    4    0  501 -0.58619247558E+02  0.21969751266E+02  0.11411651362E+03  0.13022648439E+03  0.41800000000E+01 0.  1.
</event>
<event>
11    1  0.7882745E-009  0.1797201E+03  0.7561462E-02  0.1069869E+00
         22   -1    0    0    0    0  0.00000000000E+00  0.00000000000E+00  0.62364132141E+03  0.62364132141E+03  0.00000000000E+00 0.  1.
         22   -1    0    0    0    0 -0.00000000000E+00 -0.00000000000E+00 -0.54958813294E+03  0.54958813294E+03  0.00000000000E+00 0. -1.
         24    2    1    2    0    0 -0.11980874333E+03 -0.28460402353E+02 -0.40184445654E+03  0.42790911873E+03  0.80393514436E+02 0.  0.
         25    2    1    2    0    0  0.15697967709E+03  0.61811868284E+02 -0.45884998692E+02  0.21497995341E+03  0.12509045202E+03 0.  0.
        -24    2    1    2    0    0 -0.37170933755E+02 -0.33351465931E+02  0.52178264371E+03  0.53034038220E+03  0.80683301402E+02 0.  0.
        -13    1    3    3    0    0  0.11362963809E+02 -0.87835625714E+01 -0.35741480361E+02  0.38519103525E+02  0.00000000000E+00 0.  1.
         14    1    3    3    0    0 -0.13117170714E+03 -0.19676839782E+02 -0.36610297618E+03  0.38939001521E+03  0.00000000000E+00 0. -1.
         11    1    5    5    0    0  0.16878468948E+02  0.14799290154E+02  0.11606738830E+03  0.11821818950E+03  0.00000000000E+00 0. -1.
        -12    1    5    5    0    0 -0.54049402702E+02 -0.48150756084E+02  0.40571525541E+03  0.41212219270E+03  0.00000000000E+00 0.  1.
          5    1    4    4  501    0  0.10063154263E+03  0.61104117297E+02 -0.85850618754E+02  0.14576769760E+03  0.41800000000E+01 0.  1.
         -5    1    4    4    0  501  0.56348134458E+02  0.70775098689E+00  0.39965620062E+02  0.69212255817E+02  0.41800000000E+01 0.  1.
</event>
<event>
11    1  0.7882745E-009  0.1344140E+03  0.7561462E-02  0.1113961E+00
         22   -1    0    0    0    0  0.00000000000E+00  0.00000000000E+00  0.13801408107E+04  0.13801408107E+04  0.00000000000E+00 0. -1.
         22   -1    0    0    0    0 -0.00000000000E+00 -0.00000000000E+00 -0.29051015371E+03  0.29051015371E+03  0.00000000000E+00 0. -1.
         24    2    1    2    0    0 -0.31053217016E+02 -0.37947547661E+02 -0.25347796711E+03  0.27166428884E+03  0.84534533534E+02 0.  0.
         25    2    1    2    0    0  0.64334486312E+02  0.13976765476E+02  0.16440877836E+03  0.21682382810E+03  0.12509216573E+03 0.  0.
        -24    2    1    2    0    0 -0.33281269297E+02  0.23970782185E+02  0.11786998457E+04  0.11821628475E+04  0.80581823706E+02 0.  0.
        -13    1    3    3    0    0 -0.32563191586E+02 -0.63842210074E+02 -0.18001538086E+03  0.19375687492E+03  0.00000000000E+00 0.  1.
         14    1    3    3    0    0  0.15099745709E+01  0.25894662413E+02 -0.73462586245E+02  0.77907413912E+02  0.00000000000E+00 0. -1.
         13    1    5    5    0    0 -0.43450714391E+02  0.20165506010E+02  0.11560792274E+04  0.11570712131E+04  0.00000000000E+00 0. -1.
        -14    1    5    5    0    0  0.10169445095E+02  0.38052761751E+01  0.22620618360E+02  0.25091634368E+02  0.00000000000E+00 0.  1.
          5    1    4    4  501    0  0.58443786347E+02  0.51765090349E+02  0.42500903319E+02  0.88989324777E+02  0.41800000000E+01 0.  1.
         -5    1    4    4    0  501  0.58906999659E+01 -0.37788324873E+02  0.12190787504E+03  0.12783450332E+03  0.41800000000E+01 0.  1.
</event>
<event>
11    1  0.7882745E-009  0.1400976E+03  0.7561462E-02  0.1107449E+00
         22   -1    0    0    0    0  0.00000000000E+00  0.00000000000E+00  0.88154553244E+03  0.88154553244E+03  0.00000000000E+00 0.  1.
         22   -1    0    0    0    0 -0.00000000000E+00 -0.00000000000E+00 -0.13560175325E+04  0.13560175325E+04  0.00000000000E+00 0. -1.
         24    2    1    2    0    0 -0.58287514833E+02 -0.11936178977E+02 -0.50670279277E+03  0.51636034350E+03  0.79626486708E+02 0.  0.
         25    2    1    2    0    0  0.55213865137E+02  0.46684216495E+02 -0.83623804964E+03  0.84862807128E+03  0.12509013044E+03 0.  0.
        -24    2    1    2    0    0  0.30736496961E+01 -0.34748037518E+02  0.86846884236E+03  0.87257465013E+03  0.77016338997E+02 0.  0.
        -13    1    3    3    0    0  0.10565553829E+01  0.87763760090E+01 -0.39302421934E+01  0.96740833585E+01  0.00000000000E+00 0.  1.
         14    1    3    3    0    0 -0.59344070216E+02 -0.20712554986E+02 -0.50277255058E+03  0.50668626014E+03  0.00000000000E+00 0. -1.
         11    1    5    5    0    0  0.20918952341E+02 -0.54965607658E+01  0.67659003302E+02  0.71032073567E+02  0.00000000000E+00 0. -1.
        -12    1    5    5    0    0 -0.17845302645E+02 -0.29251476752E+02  0.80080983906E+03  0.80154257657E+03  0.00000000000E+00 0.  1.
          5    1    4    4  501    0  0.80039085241E+02  0.14116982849E+02 -0.73272908099E+03  0.73723464575E+03  0.41800000000E+01 0.  1.
         -5    1    4    4    0  501 -0.24825220105E+02  0.32567233646E+02 -0.10350896865E+03  0.11139342553E+03  0.41800000000E+01 0.  1.
</event>
<event>
11    1  0.7882745E-009  0.1929680E+03  0.7561462E-02  0.1059611E+00
         22   -1    0    0    0    0  0.00000000000E+00  0.00000000000E+00  0.75025790441E+03  0.75025790441E+03  0.00000000000E+00 0. -1.
         22   -1    0    0    0    0 -0.00000000000E+00 -0.00000000000E+00 -0.71792886711E+03  0.71792886711E+03  0.00000000000E+00 0.  1.
         24    2    1    2    0    0  0.87180318969E+02 -0.11805799742E+02 -0.53021565981E+03  0.54361218949E+03  0.81521664213E+02 0.  0.
         25    2    1    2    0    0 -0.19452432650E+03  0.10584569056E+03 -0.75900349243E+02  0.26542743477E+03  0.12509131186E+03 0.  0.
        -24    2    1    2    0    0  0.10734400753E+03 -0.94039890815E+02  0.63844504635E+03  0.65914714725E+03  0.80601783486E+02 0.  0.
        -11    1    3    3    0    0  0.56200846259E+02  0.32789713541E+02 -0.26236344209E+03  0.27031144293E+03  0.00000000000E+00 0.  1.
         12    1    3    3    0    0  0.30979472710E+02 -0.44595513283E+02 -0.26785221772E+03  0.27330074656E+03  0.00000000000E+00 0. -1.
         11    1    5    5    0    0  0.11599726563E+03 -0.75224368330E+02  0.59720487700E+03  0.61299896928E+03  0.00000000000E+00 0. -1.
        -12    1    5    5    0    0 -0.86532580953E+01 -0.18815522485E+02  0.41240169349E+02  0.46148177971E+02  0.00000000000E+00 0.  1.
          5    1    4    4  501    0 -0.14566939742E+03  0.95328549166E+01 -0.49153734385E+02  0.15409091690E+03  0.41800000000E+01 0. -1.
         -5    1    4    4    0  501 -0.48854929081E+02  0.96312835641E+02 -0.26746614858E+02  0.11133651787E+03  0.41800000000E+01 0. -1.
</event>
<event>
11    1  0.7882745E-009  0.1337341E+03  0.7561462E-02  0.1114764E+00
         22   -1    0    0    0    0  0.00000000000E+00  0.00000000000E+00  0.86413561823E+03  0.86413561823E+03  0.00000000000E+00 0.  1.
         22   -1    0    0    0    0 -0.00000000000E+00 -0.00000000000E+00 -0.31008121239E+03  0.31008121239E+03  0.00000000000E+00 0.  1.
         24    2    1    2    0    0 -0.20022396451E+02 -0.41576714556E+02 -0.24701571858E+03  0.26333928071E+03  0.78748282414E+02 0.  0.
         25    2    1    2    0    0  0.32950137068E+02  0.51010811374E+02  0.39145250377E+02  0.14445561765E+03  0.12508901005E+03 0.  0.
        -24    2    1    2    0    0 -0.12927740618E+02 -0.94340968187E+01  0.76192487404E+03  0.76642193226E+03  0.81344550608E+02 0.  0.
        -13    1    3    3    0    0 -0.22359621676E+02 -0.56558696447E+02 -0.23810968142E+03  0.24575406245E+03  0.00000000000E+00 0.  1.
         14    1    3    3    0    0  0.23372252249E+01  0.14981981891E+02 -0.89060371611E+01  0.17585218254E+02  0.00000000000E+00 0. -1.
         13    1    5    5    0    0  0.23120978239E+02  0.67608244597E+01  0.85085528025E+02  0.88429833549E+02  0.00000000000E+00 0. -1.
        -14    1    5    5    0    0 -0.36048718857E+02 -0.16194921278E+02  0.67683934602E+03  0.67799209872E+03  0.00000000000E+00 0.  1.
          5    1    4    4  501    0  0.42704241658E+02  0.69699493429E+02  0.69423410239E+02  0.10732545797E+03  0.41800000000E+01 0. -1.
         -5    1    4    4    0  501 -0.97541045894E+01 -0.18688682055E+02 -0.30278159861E+02  0.37130159680E+02  0.41800000000E+01 0. -1.
</event>
<event>
11    1  0.7882745E-009  0.1791749E+03  0.7561462E-02  0.1070312E+00
         22   -1    0    0    0    0  0.00000000000E+00  0.00000000000E+00  0.14415966263E+03  0.14415966263E+03  0.00000000000E+00 0.  1.
         22   -1    0    0    0    0 -0.00000000000E+00 -0.00000000000E+00 -0.11297164589E+04  0.11297164589E+04  0.00000000000E+00 0. -1.
        -24    2    1    2    0    0 -0.51502949513E+02  0.11437134499E+03 -0.60419573539E+03  0.62232159804E+03  0.80612197330E+02 0.  0.
         25    2    1    2    0    0  0.64372893672E+02 -0.11726961428E+03 -0.48693453222E+03  0.52023944495E+03  0.12509120491E+03 0.  0.
         24    2    1    2    0    0 -0.12869944159E+02  0.28982692899E+01  0.10557347132E+03  0.13131507857E+03  0.76966593953E+02 0.  0.
        -13    1    5    5    0    0 -0.27276711092E+02 -0.28597848803E+02  0.76459670365E+02  0.86069373859E+02  0.00000000000E+00 0.  1.
         14    1    5    5    0    0  0.14406766933E+02  0.31496118093E+02  0.29113800955E+02  0.45245704707E+02  0.00000000000E+00 0. -1.
         13    1    3    3    0    0 -0.60524849523E+02  0.92375348434E+02 -0.57045162352E+03  0.58104347272E+03  0.00000000000E+00 0. -1.
        -14    1    3    3    0    0  0.90219000101E+01  0.21995996556E+02 -0.33744111866E+02  0.41278125319E+02  0.00000000000E+00 0.  1.
          5    1    4    4  501    0 -0.75196127448E+01 -0.61016648862E+02 -0.69339946663E+02  0.92763552204E+02  0.41800000000E+01 0. -1.
         -5    1    4    4    0  501  0.71892506417E+02 -0.56252965418E+02 -0.41759458556E+03  0.42747589275E+03  0.41800000000E+01 0. -1.
</event>
<event>
11    1  0.7882745E-009  0.2208554E+03  0.7561462E-02  0.1040683E+00
         22   -1    0    0    0    0  0.00000000000E+00  0.00000000000E+00  0.16420569986E+04  0.16420569986E+04  0.00000000000E+00 0. -1.
         22   -1    0    0    0    0 -0.00000000000E+00 -0.00000000000E+00 -0.97999872997E+02  0.97999872997E+02  0.00000000000E+00 0. -1.
         24    2    1    2    0    0  0.17136853395E+03  0.22432494820E+01  0.71679019755E+02  0.20425359706E+03  0.84908441512E+02 0.  0.
         25    2    1    2    0    0 -0.22633349281E+03 -0.20338742339E+02  0.55123758488E+03  0.60922100891E+03  0.12508736269E+03 0.  0.
        -24    2    1    2    0    0  0.54964958857E+02  0.18095492857E+02  0.92114052095E+03  0.92658226561E+03  0.81891648211E+02 0.  0.
        -13    1    3    3    0    0  0.36497502659E+02  0.23037016002E+02  0.50044139429E+02  0.66084700936E+02  0.00000000000E+00 0.  1.
         14    1    3    3    0    0  0.13487103129E+03 -0.20793766520E+02  0.21634880326E+02  0.13816889612E+03  0.00000000000E+00 0. -1.
         13    1    5    5    0    0  0.29437911546E+02 -0.25414176644E+02  0.62229580815E+03  0.62350985867E+03  0.00000000000E+00 0. -1.
        -14    1    5    5    0    0  0.25527047311E+02  0.43509669500E+02  0.29884471280E+03  0.30307240695E+03  0.00000000000E+00 0.  1.
          5    1    4    4  501    0 -0.15368341939E+03 -0.71261660405E+02  0.33396378360E+03  0.37449445763E+03  0.41800000000E+01 0. -1.
         -5    1    4    4    0  501 -0.72650073417E+02  0.50922918066E+02  0.21727380128E+03  0.23472655128E+03  0.41800000000E+01 0. -1.
</event>
<event>
11    1  0.7882745E-009  0.1462020E+03  0.7561462E-02  0.1100824E+00
         22   -1    0    0    0    0  0.00000000000E+00  0.00000000000E+00  0.49186037918E+03  0.49186037918E+03  0.00000000000E+00 0. -1.
         22   -1    0    0    0    0 -0.00000000000E+00 -0.00000000000E+00 -0.31860931061E+03  0.31860931061E+03  0.00000000000E+00 0. -1.
        -24    2    1    2    0    0  0.36504789762E+02 -0.17820531740E+02 -0.24656056852E+03  0.26273892075E+03  0.81175461207E+02 0.  0.
         25    2    1    2    0    0 -0.41050480029E+02  0.90907843350E+02  0.56785452415E+02  0.16976798059E+03  0.12508877542E+03 0.  0.
         24    2    1    2    0    0  0.45456902671E+01 -0.73087311610E+02  0.36302618468E+03  0.37796278845E+03  0.75534364839E+02 0.  0.
        -11    1    5    5    0    0 -0.15634074495E+00  0.77038664762E+01  0.14817841256E+03  0.14837862363E+03  0.00000000000E+00 0.  1.
         12    1    5    5    0    0  0.47020310120E+01 -0.80791178086E+02  0.21484777212E+03  0.22958416482E+03  0.00000000000E+00 0. -1.
         13    1    3    3    0    0 -0.24895931913E+00 -0.30309922587E+02 -0.19924652463E+03  0.20153890682E+03  0.00000000000E+00 0. -1.
        -14    1    3    3    0    0  0.36753749081E+02  0.12489390847E+02 -0.47314043889E+02  0.61200013925E+02  0.00000000000E+00 0.  1.
          5    1    4    4  501    0 -0.53311483449E+02  0.99650736268E+02  0.23320633117E+01  0.11311628718E+03  0.41800000000E+01 0. -1.
         -5    1    4    4    0  501  0.12261003420E+02 -0.87428929189E+01  0.54453389103E+02  0.56651693410E+02  0.41800000000E+01 0. -1.
</event>
<event>
11    1  0.7882745E-009  0.1361839E+03  0.7561462E-02  0.1111896E+00
         22   -1    0    0    0    0  0.00000000000E+00  0.00000000000E+00  0.58621470071E+03  0.58621470071E+03  0.00000000000E+00 0. -1.
         22   -1    0    0    0    0 -0.00000000000E+00 -0.00000000000E+00 -0.36669599321E+03  0.36669599321E+03  0.00000000000E+00 0. -1.
        -24    2    1    2    0    0  0.69443551038E+01  0.54756701786E+02 -0.28725330037E+03  0.30342175232E+03  0.80646021304E+02 0.  0.
         25    2    1    2    0    0 -0.20530087897E+02 -0.40504232373E+02 -0.33067874625E+01  0.13311566923E+03  0.12508704650E+03 0.  0.
         24    2    1    2    0    0  0.13585732793E+02 -0.14252469413E+02  0.51007879532E+03  0.51637327237E+03  0.77931213005E+02 0.  0.
        -13    1    5    5    0    0 -0.32210675456E+01  0.24205222354E+02  0.66998264486E+02  0.71309434926E+02  0.00000000000E+00 0.  1.
         14    1    5    5    0    0  0.16806800339E+02 -0.38457691768E+02  0.44308053084E+03  0.44506383744E+03  0.00000000000E+00 0. -1.
         13    1    3    3    0    0  0.34850842451E+02  0.52219555864E+02 -0.24351039955E+03  0.25147321512E+03  0.00000000000E+00 0. -1.
        -14    1    3    3    0    0 -0.27906487347E+02  0.25371459227E+01 -0.43742900818E+02  0.51948537203E+02  0.00000000000E+00 0.  1.
          5    1    4    4  501    0  0.16905145793E+02 -0.46593004165E+02 -0.51531229537E+02  0.71621449364E+02  0.41800000000E+01 0.  1.
         -5    1    4    4    0  501 -0.37435233690E+02  0.60887717925E+01  0.48224442075E+02  0.61494219865E+02  0.41800000000E+01 0.  1.
</event>
<event>
11    1  0.7882745E-009  0.1460366E+03  0.7561462E-02  0.1100999E+00
         22   -1    0    0    0    0  0.00000000000E+00  0.00000000000E+00  0.29427609188E+04  0.29427609188E+04  0.00000000000E+00 0. -1.
         22   -1    0    0    0    0 -0.00000000000E+00 -0.00000000000E+00 -0.55405980066E+02  0.55405980066E+02  0.00000000000E+00 0. -1.
        -24    2    1    2    0    0  0.48485495619E+02  0.54067623206E+02  0.17528191281E+02  0.11077282447E+03  0.81787712929E+02 0.  0.
         25    2    1    2    0    0 -0.52997901981E+02 -0.11397682676E+03  0.10545272472E+04  0.10693334609E+04  0.12508733250E+03 0.  0.
         24    2    1    2    0    0  0.45124063628E+01  0.59909203558E+02  0.18152995002E+04  0.18180606135E+04  0.80141402793E+02 0.  0.
        -13    1    5    5    0    0  0.32777746436E+02  0.18987823817E+02  0.37627435129E+03  0.37817628899E+03  0.00000000000E+00 0.  1.
         14    1    5    5    0    0 -0.28265340073E+02  0.40921379741E+02  0.14390251490E+04  0.14398843246E+04  0.00000000000E+00 0. -1.
         13    1    3    3    0    0  0.41847414809E+02  0.72544962255E+02 -0.10309397931E+01  0.83755838672E+02  0.00000000000E+00 0. -1.
        -14    1    3    3    0    0  0.66380808099E+01 -0.18477339049E+02  0.18559131074E+02  0.27016985794E+02  0.00000000000E+00 0.  1.
          5    1    4    4  501    0 -0.35873358238E+02 -0.20197105113E+02  0.72732438940E+03  0.72850055642E+03  0.41800000000E+01 0.  1.
         -5    1    4    4    0  501 -0.17124543743E+02 -0.93779721650E+02  0.32720285784E+03  0.34083290447E+03  0.41800000000E+01 0.  1.
</event>
<event>
11    1  0.7882745E-009  0.1501834E+03  0.7561462E-02  0.1096692E+00
         22   -1    0    0    0    0  0.00000000000E+00  0.00000000000E+00  0.26277445638E+03  0.26277445638E+03  0.00000000000E+00 0. -1.
         22   -1    0    0    0    0 -0.00000000000E+00 -0.00000000000E+00 -0.93047675122E+03  0.93047675122E+03  0.00000000000E+00 0.  1.
         24    2    1    2    0    0  0.79018894019E+02  0.19493994582E+02 -0.82044496901E+03  0.82848729547E+03  0.81469320242E+02 0.  0.
         25    2    1    2    0    0 -0.10614912364E+03 -0.73064625618E+02 -0.23027214645E+01  0.17960783626E+03  0.12509035275E+03 0.  0.
        -24    2    1    2    0    0  0.27130229624E+02  0.53570631036E+02  0.15504539563E+03  0.18515607588E+03  0.81472914870E+02 0.  0.
        -11    1    3    3    0    0  0.82289671930E+02  0.12779897759E+02 -0.81500305818E+03  0.81924654453E+03  0.00000000000E+00 0.  1.
         12    1    3    3    0    0 -0.32707779116E+01  0.67140968226E+01 -0.54419108314E+01  0.92407509320E+01  0.00000000000E+00 0. -1.
         11    1    5    5    0    0  0.30062778106E+02  0.72361163925E+02  0.14170210836E+03  0.16192404449E+03  0.00000000000E+00 0. -1.
        -12    1    5    5    0    0 -0.29325484812E+01 -0.18790532889E+02  0.13343287277E+02  0.23232031384E+02  0.00000000000E+00 0.  1.
          5    1    4    4  501    0 -0.11711131770E+03 -0.87619013128E+02  0.23032722754E+02  0.14812201360E+03  0.41800000000E+01 0.  1.
         -5    1    4    4    0  501  0.10962194062E+02  0.14554387510E+02 -0.25335444218E+02  0.31485822654E+02  0.41800000000E+01 0.  1.
</event>
<event>
11    1  0.7882745E-009  0.1294438E+03  0.7561462E-02  0.1119954E+00
         22   -1    0    0    0    0  0.00000000000E+00  0.00000000000E+00  0.25070506991E+04  0.25070506991E+04  0.00000000000E+00 0.  1.
         22   -1    0    0    0    0 -0.00000000000E+00 -0.00000000000E+00 -0.39115539026E+02  0.39115539026E+02  0.00000000000E+00 0.  1.
         24    2    1    2    0    0  0.14013011264E+02  0.21168320150E+02  0.48055818839E+02  0.96373152419E+02  0.79586182974E+02 0.  0.
         25    2    1    2    0    0 -0.85911194120E+00 -0.50836399530E+02  0.30952226835E+03  0.33769474489E+03  0.12509447843E+03 0.  0.
        -24    2    1    2    0    0 -0.13153899323E+02  0.29668079380E+02  0.21103570729E+04  0.21120983408E+04  0.79367538635E+02 0.  0.
        -13    1    3    3    0    0 -0.28365971090E+02 -0.89057995748E+01  0.27468821654E+02  0.40478114396E+02  0.00000000000E+00 0.  1.
         14    1    3    3    0    0  0.42378982354E+02  0.30074119725E+02  0.20586997185E+02  0.55895038024E+02  0.00000000000E+00 0. -1.
         13    1    5    5    0    0 -0.11849338114E+01  0.11678229477E+02  0.41491810624E+02  0.43120244209E+02  0.00000000000E+00 0. -1.
        -14    1    5    5    0    0 -0.11968965511E+02  0.17989849904E+02  0.20688652623E+04  0.20689780966E+04  0.00000000000E+00 0.  1.
          5    1    4    4  501    0  0.70406702628E+01 -0.13918267612E+02  0.29737790414E+03  0.29781601616E+03  0.41800000000E+01 0. -1.
         -5    1    4    4    0  501 -0.78997822040E+01 -0.36918131918E+02  0.12144364209E+02  0.39878728731E+02  0.41800000000E+01 0. -1.
</event>
<event>
11    1  0.7882745E-009  0.1301476E+03  0.7561462E-02  0.1119088E+00
         22   -1    0    0    0    0  0.00000000000E+00  0.00000000000E+00  0.10877131919E+04  0.10877131919E+04  0.00000000000E+00 0.  1.
         22   -1    0    0    0    0 -0.00000000000E+00 -0.00000000000E+00 -0.15387178262E+03  0.15387178262E+03  0.00000000000E+00 0.  1.
         24    2    1    2    0    0 -0.24129558974E+02 -0.26680116301E+02 -0.83357967187E+02  0.12027051069E+03  0.78882069106E+02 0.  0.
         25    2    1    2    0    0 -0.89290063518E+01  0.41760583386E+02  0.37318063847E+02  0.13734441008E+03  0.12508867099E+03 0.  0.
        -24    2    1    2    0    0  0.33058565326E+02 -0.15080467085E+02  0.97988131258E+03  0.98397005371E+03  0.81910870009E+02 0.  0.
        -11    1    3    3    0    0 -0.45419134874E+02 -0.30582747275E+02 -0.81977103408E+02  0.98582187675E+02  0.00000000000E+00 0.  1.
         12    1    3    3    0    0  0.21289575900E+02  0.39026309741E+01 -0.13808637788E+01  0.21688323017E+02  0.00000000000E+00 0. -1.
         11    1    5    5    0    0 -0.15138172141E+02  0.19702440100E+02  0.15793359288E+03  0.15987610879E+03  0.00000000000E+00 0. -1.
        -12    1    5    5    0    0  0.48196737467E+02 -0.34782907185E+02  0.82194771969E+03  0.82409394491E+03  0.00000000000E+00 0.  1.
          5    1    4    4  501    0 -0.27878665897E+02  0.10269950601E+02 -0.40956461041E+02  0.50770030516E+02  0.41800000000E+01 0.  1.
         -5    1    4    4    0  501  0.18949659545E+02  0.31490632785E+02  0.78274524888E+02  0.86574379562E+02  0.41800000000E+01 0.  1.
</event>
<event>
11    1  0.7882745E-009  0.1682202E+03  0.7561462E-02  0.1079591E+00
         22   -1    0    0    0    0  0.00000000000E+00  0.00000000000E+00  0.53016723813E+03  0.53016723813E+03  0.00000000000E+00 0. -1.
         22   -1    0    0    0    0 -0.00000000000E+00 -0.00000000000E+00 -0.43438239012E+03  0.43438239012E+03  0.00000000000E+00 0.  1.
        -24    2    1    2    0    0 -0.16519542365E+01  0.56375326876E+02 -0.37619559832E+03  0.38799982136E+03  0.76418759136E+02 0.  0.
         25    2    1    2    0    0  0.48238944039E+02 -0.12416442527E+03  0.38383399620E+03  0.42511183190E+03  0.12509089797E+03 0.  0.
         24    2    1    2    0    0 -0.46586989803E+02  0.67789098396E+02  0.88146450128E+02  0.15143797499E+03  0.91640352026E+02 0.  0.
        -13    1    5    5    0    0 -0.45925567966E+02  0.13789406642E+01  0.68366460177E+01  0.46452115120E+02  0.00000000000E+00 0.  1.
         14    1    5    5    0    0 -0.66142183697E+00  0.66410157731E+02  0.81309804110E+02  0.10498585987E+03  0.00000000000E+00 0. -1.
         11    1    3    3    0    0 -0.60078434931E+01  0.73714462425E+02 -0.25555934830E+03  0.26604604236E+03  0.00000000000E+00 0. -1.
        -12    1    3    3    0    0  0.43558892567E+01 -0.17339135549E+02 -0.12063625003E+03  0.12195377900E+03  0.00000000000E+00 0.  1.
          5    1    4    4  501    0  0.42554932193E+02 -0.10724485487E+03  0.14395902449E+03  0.18453740619E+03  0.41800000000E+01 0. -1.
         -5    1    4    4    0  501  0.56840118456E+01 -0.16919570402E+02  0.23987497171E+03  0.24057442571E+03  0.41800000000E+01 0. -1.
</event>
<event>
11    1  0.7882745E-009  0.2144631E+03  0.7561462E-02  0.1044742E+00
         22   -1    0    0    0    0  0.00000000000E+00  0.00000000000E+00  0.63844898140E+03  0.63844898140E+03  0.00000000000E+00 0. -1.
         22   -1    0    0    0    0 -0.00000000000E+00 -0.00000000000E+00 -0.28347766977E+04  0.28347766977E+04  0.00000000000E+00 0.  1.
         24    2    1    2    0    0 -0.70676525333E+01 -0.42745594335E+02 -0.26713202379E+04  0.26728409519E+04  0.79055696289E+02 0.  0.
         25    2    1    2    0    0  0.18055523112E+03  0.38477325287E+02 -0.61196979024E+02  0.23124311266E+03  0.12509041076E+03 0.  0.
        -24    2    1    2    0    0 -0.17348757859E+03  0.42682690478E+01  0.53618950069E+03  0.56914161450E+03  0.79415607155E+02 0.  0.
        -11    1    3    3    0    0 -0.35438689478E+02 -0.28838716819E+02 -0.21942088963E+04  0.21946845452E+04  0.00000000000E+00 0.  1.
         12    1    3    3    0    0  0.28371036945E+02 -0.13906877516E+02 -0.47711134166E+03  0.47815640675E+03  0.00000000000E+00 0. -1.
         11    1    5    5    0    0 -0.17923246476E+03  0.80785280936E+01  0.53106224765E+03  0.56055030989E+03  0.00000000000E+00 0. -1.
        -12    1    5    5    0    0  0.57448861733E+01 -0.38102590458E+01  0.51272530420E+01  0.85913046097E+01  0.00000000000E+00 0.  1.
          5    1    4    4  501    0 -0.82661503887E+01 -0.22655544313E+02 -0.61294908967E+01  0.25231844741E+02  0.41800000000E+01 0. -1.
         -5    1    4    4    0  501  0.18882138151E+03  0.61132869600E+02 -0.55067488127E+02  0.20601126792E+03  0.41800000000E+01 0. -1.
</event>
<event>
11    1  0.7882745E-009  0.1324131E+03  0.7561462E-02  0.1116339E+00
         22   -1    0    0    0    0  0.00000000000E+00  0.00000000000E+00  0.22086989933E+03  0.22086989933E+03  0.00000000000E+00 0.  1.
         22   -1    0    0    0    0 -0.00000000000E+00 -0.00000000000E+00 -0.86979409673E+03  0.86979409673E+03  0.00000000000E+00 0. -1.
         24    2    1    2    0    0  0.40361588752E+02 -0.17295404368E+01 -0.72610190219E+03  0.73186348860E+03  0.82268733000E+02 0.  0.
         25    2    1    2    0    0 -0.91221152154E+02  0.79673601035E+01 -0.83445345027E+02  0.17606356724E+03  0.12510186520E+03 0.  0.
        -24    2    1    2    0    0  0.50859563402E+02 -0.62378196667E+01  0.16062304982E+03  0.18273694023E+03  0.70479923442E+02 0.  0.
        -13    1    3    3    0    0 -0.17943168943E+02 -0.37335698173E+01 -0.50067327545E+02  0.53316359054E+02  0.00000000000E+00 0.  1.
         14    1    3    3    0    0  0.58304757694E+02  0.20040293805E+01 -0.67603457464E+03  0.67854712954E+03  0.00000000000E+00 0. -1.
         13    1    5    5    0    0  0.14174322258E+02  0.12308772266E+02  0.20057915109E+01  0.18879631505E+02  0.00000000000E+00 0. -1.
        -14    1    5    5    0    0  0.36685241144E+02 -0.18546591933E+02  0.15861725830E+03  0.16385730872E+03  0.00000000000E+00 0.  1.
          5    1    4    4  501    0 -0.12230447660E+02  0.31454599238E+02  0.23241894932E+02  0.41190214168E+02  0.41800000000E+01 0. -1.
         -5    1    4    4    0  501 -0.78990704494E+02 -0.23487239135E+02 -0.10668723996E+03  0.13487335307E+03  0.41800000000E+01 0. -1.
</event>
<event>
11    1  0.7882745E-009  0.1565465E+03  0.7561462E-02  0.1090371E+00
         22   -1    0    0    0    0  0.00000000000E+00  0.00000000000E+00  0.57064758572E+03  0.57064758572E+03  0.00000000000E+00 0.  1.
         22   -1    0    0    0    0 -0.00000000000E+00 -0.00000000000E+00 -0.22263054724E+03  0.22263054724E+03  0.00000000000E+00 0.  1.
        -24    2    1    2    0    0  0.32272927724E+01 -0.16340681206E+02 -0.12856416848E+03  0.15224312823E+03  0.79823501524E+02 0.  0.
         25    2    1    2    0    0  0.25586042671E+02 -0.74927376466E+02 -0.66250713055E+00  0.14804332623E+03  0.12509048806E+03 0.  0.
         24    2    1    2    0    0 -0.28813335444E+02  0.91268057672E+02  0.47724371408E+03  0.49299167851E+03  0.78225096964E+02 0.  0.
        -13    1    5    5    0    0 -0.26323466346E+02  0.12549182043E+02  0.26511989376E+03  0.26671888745E+03  0.00000000000E+00 0.  1.
         14    1    5    5    0    0 -0.24898690981E+01  0.78718875629E+02  0.21212382032E+03  0.22627279106E+03  0.00000000000E+00 0. -1.
         13    1    3    3    0    0 -0.90086509859E+00  0.15241585793E+02  0.40999478024E+01  0.15809081801E+02  0.00000000000E+00 0. -1.
        -14    1    3    3    0    0  0.41281578710E+01 -0.31582267000E+02 -0.13266411628E+03  0.13643404643E+03  0.00000000000E+00 0.  1.
          5    1    4    4  501    0 -0.11347489994E+02 -0.99654562379E+02 -0.14218611255E+02  0.10138756649E+03  0.41800000000E+01 0.  1.
         -5    1    4    4    0  501  0.36933532666E+02  0.24727185913E+02  0.13556104124E+02  0.46655759745E+02  0.41800000000E+01 0.  1.
</event>
<event>
11    1  0.7882745E-009  0.1842112E+03  0.7561462E-02  0.1066286E+00
         22   -1    0    0    0    0  0.00000000000E+00  0.00000000000E+00  0.45809545414E+03  0.45809545414E+03  0.00000000000E+00 0.  1.
         22   -1    0    0    0    0 -0.00000000000E+00 -0.00000000000E+00 -0.47643800089E+03  0.47643800089E+03  0.00000000000E+00 0.  1.
         24    2    1    2    0    0  0.83562855292E+02  0.90901790410E+02 -0.27939143495E+03  0.31581558787E+03  0.80212376443E+02 0.  0.
         25    2    1    2    0    0 -0.19717157604E+03 -0.74809905232E+02 -0.73806608327E+02  0.25606240004E+03  0.12508950781E+03 0.  0.
        -24    2    1    2    0    0  0.11360872074E+03 -0.16091885177E+02  0.33485549653E+03  0.36265546712E+03  0.78897997926E+02 0.  0.
        -13    1    3    3    0    0  0.47482113228E+02  0.27539060703E+02 -0.20267220458E+03  0.20997374467E+03  0.00000000000E+00 0.  1.
         14    1    3    3    0    0  0.36080742065E+02  0.63362729706E+02 -0.76719230368E+02  0.10584184320E+03  0.00000000000E+00 0. -1.
         13    1    5    5    0    0  0.53120287492E+02 -0.24995398602E+02  0.72595237400E+02  0.93362751607E+02  0.00000000000E+00 0. -1.
        -14    1    5    5    0    0  0.60488433253E+02  0.89035134243E+01  0.26226025913E+03  0.26929271551E+03  0.00000000000E+00 0.  1.
          5    1    4    4  501    0 -0.51881109770E+02 -0.39887116817E+02 -0.83605676180E+02  0.10625447345E+03  0.41800000000E+01 0. -1.
         -5    1    4    4    0  501 -0.14529046627E+03 -0.34922788415E+02  0.97990678530E+01  0.14980792659E+03  0.41800000000E+01 0. -1.
</event>
<event>
11    1  0.7882745E-009  0.1350400E+03  0.7561462E-02  0.1113227E+00
         22   -1    0    0    0    0  0.00000000000E+00  0.00000000000E+00  0.59415461138E+03  0.59415461138E+03  0.00000000000E+00 0.  1.
         22   -1    0    0    0    0 -0.00000000000E+00 -0.00000000000E+00 -0.91489380486E+02  0.91489380486E+02  0.00000000000E+00 0. -1.
         24    2    1    2    0    0  0.65674013800E+02  0.86500357578E+01  0.34808487043E+01  0.10525022612E+03  0.81716550237E+02 0.  0.
         25    2    1    2    0    0 -0.18611786934E+02 -0.64803332665E+01  0.75598986253E+02  0.14748250908E+03  0.12508992937E+03 0.  0.
        -24    2    1    2    0    0 -0.47062226866E+02 -0.21697024913E+01  0.42358539594E+03  0.43291125667E+03  0.75947400853E+02 0.  0.
        -13    1    3    3    0    0  0.40144539886E+02 -0.28460151182E+01  0.41647330497E+02  0.57915317682E+02  0.00000000000E+00 0.  1.
         14    1    3    3    0    0  0.25529473914E+02  0.11496050876E+02 -0.38166481792E+02  0.47334908434E+02  0.00000000000E+00 0. -1.
         13    1    5    5    0    0 -0.32492290008E+02 -0.28049552901E+02  0.11249158572E+03  0.12040300322E+03  0.00000000000E+00 0. -1.
        -14    1    5    5    0    0 -0.14569936858E+02  0.25879850410E+02  0.31109381022E+03  0.31250825345E+03  0.00000000000E+00 0.  1.
          5    1    4    4  501    0 -0.31761997481E+02 -0.46277141126E+02  0.87205594205E+02  0.10379155233E+03  0.41800000000E+01 0. -1.
         -5    1    4    4    0  501  0.13150210546E+02  0.39796807860E+02 -0.11606607951E+02  0.43690956746E+02  0.41800000000E+01 0. -1.
</event>
<event>
11    1  0.7882745E-009  0.1742637E+03  0.7561462E-02  0.1074380E+00
         22   -1    0    0    0    0  0.00000000000E+00  0.00000000000E+00  0.82162180828E+02  0.82162180828E+02  0.00000000000E+00 0. -1.
         22   -1    0    0    0    0 -0.00000000000E+00 -0.00000000000E+00 -0.97766336086E+03  0.97766336086E+03  0.00000000000E+00 0. -1.
         24    2    1    2    0    0  0.78069110222E+02 -0.88413333765E+02 -0.42423585859E+03  0.44626152577E+03  0.72536763855E+02 0.  0.
         25    2    1    2    0    0 -0.27693703264E+02  0.13464227705E+03 -0.47162917010E+03  0.50692885717E+03  0.12508920087E+03 0.  0.
        -24    2    1    2    0    0 -0.50375406958E+02 -0.46228943282E+02  0.36384864930E+00  0.10663515875E+03  0.81829871524E+02 0.  0.
        -11    1    3    3    0    0  0.67860387719E+02 -0.48754017119E+02 -0.17791662086E+03  0.19656121282E+03  0.00000000000E+00 0.  1.
         12    1    3    3    0    0  0.10208722503E+02 -0.39659316646E+02 -0.24631923773E+03  0.24970031295E+03  0.00000000000E+00 0. -1.
         13    1    5    5    0    0 -0.25444588920E+02 -0.70663572403E+01  0.38410018048E+02  0.46612122848E+02  0.00000000000E+00 0. -1.
        -14    1    5    5    0    0 -0.24930818039E+02 -0.39162586041E+02 -0.38046169399E+02  0.60023035907E+02  0.00000000000E+00 0.  1.
          5    1    4    4  501    0  0.35705017551E+02  0.11096699901E+03 -0.32736093918E+03  0.34752148142E+03  0.41800000000E+01 0. -1.
         -5    1    4    4    0  501 -0.63398720815E+02  0.23675278034E+02 -0.14426823092E+03  0.15940737575E+03  0.41800000000E+01 0. -1.
</event>
<event>
11    1  0.7882745E-009  0.1650250E+03  0.7561462E-02  0.1082444E+00
         22   -1    0    0    0    0  0.00000000000E+00  0.00000000000E+00  0.69377497754E+03  0.69377497754E+03  0.00000000000E+00 0. -1.
         22   -1    0    0    0    0 -0.00000000000E+00 -0.00000000000E+00 -0.54178694910E+03  0.54178694910E+03  0.00000000000E+00 0.  1.
         24    2    1    2    0    0 -0.84202814803E+02  0.64856370984E+02 -0.41947705753E+03  0.44001351987E+03  0.79714697479E+02 0.  0.
         25    2    1    2    0    0  0.14851891246E+03  0.40322299205E+01 -0.16644577202E+02  0.19492924908E+03  0.12508494697E+03 0.  0.
        -24    2    1    2    0    0 -0.64316097660E+02 -0.68888600905E+02  0.58810966318E+03  0.60061915770E+03  0.77383440880E+02 0.  0.
        -11    1    3    3    0    0 -0.64285689073E+02  0.32965653000E+02 -0.37443375131E+03  0.38133976742E+03  0.00000000000E+00 0.  1.
         12    1    3    3    0    0 -0.19917125730E+02  0.31890717984E+02 -0.45043306224E+02  0.58673752449E+02  0.00000000000E+00 0. -1.
         13    1    5    5    0    0 -0.71045699313E+02 -0.66623238811E+02  0.58467429587E+03  0.59273111914E+03  0.00000000000E+00 0. -1.
        -14    1    5    5    0    0  0.67296016533E+01 -0.22653620939E+01  0.34353673014E+01  0.78880385600E+01  0.00000000000E+00 0.  1.
          5    1    4    4  501    0  0.10809487681E+03 -0.31211730043E+02 -0.58398768665E+02  0.12683281542E+03  0.41800000000E+01 0. -1.
         -5    1    4    4    0  501  0.40424035651E+02  0.35243959964E+02  0.41754191463E+02  0.68096433658E+02  0.41800000000E+01 0. -1.
</event>
<event>
11    1  0.7882745E-009  0.1543176E+03  0.7561462E-02  0.1092547E+00
         22   -1    0    0    0    0  0.00000000000E+00  0.00000000000E+00  0.15260088205E+03  0.15260088205E+03  0.00000000000E+00 0.  1.
         22   -1    0    0    0    0 -0.00000000000E+00 -0.00000000000E+00 -0.17306402813E+04  0.17306402813E+04  0.00000000000E+00 0.  1.
        -24    2    1    2    0    0  0.83276201494E+02  0.40072542662E+02 -0.16308174084E+04  0.16354617271E+04  0.81418099011E+02 0.  0.
         25    2    1    2    0    0 -0.37935000524E+02  0.19137435730E+01 -0.16691577748E+01  0.13074122917E+03  0.12509099184E+03 0.  0.
         24    2    1    2    0    0 -0.45341200969E+02 -0.41986286235E+02  0.54447166917E+02  0.11703820709E+03  0.83155127308E+02 0.  0.
        -11    1    5    5    0    0 -0.60597284180E+02 -0.11370197945E+02  0.55299202693E+02  0.82820976025E+02  0.00000000000E+00 0.  1.
         12    1    5    5    0    0  0.15256083211E+02 -0.30616088290E+02 -0.85203577588E+00  0.34217231070E+02  0.00000000000E+00 0. -1.
         13    1    3    3    0    0  0.12474391557E+02  0.18677450734E+02 -0.86315146790E+02  0.89189473459E+02  0.00000000000E+00 0. -1.
        -14    1    3    3    0    0  0.70801809937E+02  0.21395091927E+02 -0.15445022616E+04  0.15462722536E+04  0.00000000000E+00 0.  1.
          5    1    4    4  501    0  0.31407022961E+02 -0.26990010552E+02  0.27672934844E+02  0.49981251322E+02  0.41800000000E+01 0. -1.
         -5    1    4    4    0  501 -0.69342023485E+02  0.28903754125E+02 -0.29342092618E+02  0.80759977853E+02  0.41800000000E+01 0. -1.
</event>
<event>
11    1  0.7882745E-009  0.1813274E+03  0.7561462E-02  0.1068574E+00
         22   -1    0    0    0    0  0.00000000000E+00  0.00000000000E+00  0.28607503753E+04  0.28607503753E+04  0.00000000000E+00 0. -1.
         22   -1    0    0    0    0 -0.00000000000E+00 -0.00000000000E+00 -0.15334757960E+04  0.15334757960E+04  0.00000000000E+00 0. -1.
        -24    2    1    2    0    0  0.75107191286E+02 -0.11875826767E+03 -0.11847237911E+04  0.11957586286E+04  0.80768932732E+02 0.  0.
         25    2    1    2    0    0 -0.92543797031E+02  0.55024557365E+02 -0.32239953442E+03  0.36218880397E+03  0.12508882303E+03 0.  0.
         24    2    1    2    0    0  0.17436605745E+02  0.63733710302E+02  0.28343979048E+04  0.28362787388E+04  0.79369895696E+02 0.  0.
        -11    1    5    5    0    0  0.42542015431E+01  0.24342276640E+02  0.23424231775E+04  0.23425535185E+04  0.00000000000E+00 0.  1.
         12    1    5    5    0    0  0.13182404202E+02  0.39391433661E+02  0.49197472724E+03  0.49372522020E+03  0.00000000000E+00 0. -1.
         13    1    3    3    0    0  0.61317204511E+02 -0.12783786145E+03 -0.11209986951E+04  0.11299293751E+04  0.00000000000E+00 0. -1.
        -14    1    3    3    0    0  0.13789986775E+02  0.90795937868E+01 -0.63725095960E+02  0.65829253479E+02  0.00000000000E+00 0.  1.
          5    1    4    4  501    0 -0.62351275833E+01 -0.35287947813E+02 -0.43169751354E+02  0.56260251588E+02  0.41800000000E+01 0. -1.
         -5    1    4    4    0  501 -0.86308669448E+02  0.90312505177E+02 -0.27922978307E+03  0.30592855239E+03  0.41800000000E+01 0. -1.
</event>
<event>
11    1  0.7882745E-009  0.1334909E+03  0.7561462E-02  0.1115053E+00
         22   -1    0    0    0    0  0.00000000000E+00  0.00000000000E+00  0.71248255153E+03  0.71248255153E+03  0.00000000000E+00 0. -1.
         22   -1    0    0    0    0 -0.00000000000E+00 -0.00000000000E+00 -0.68166137922E+03  0.68166137922E+03  0.00000000000E+00 0.  1.
         24    2    1    2    0    0  0.36803945277E+02 -0.21209619928E+02 -0.62976549043E+03  0.63630135593E+03  0.80439196045E+02 0.  0.
         25    2    1    2    0    0 -0.73966412880E+02  0.43694462638E+02  0.83003617159E+02  0.17296266113E+03  0.12508495267E+03 0.  0.
        -24    2    1    2    0    0  0.37162467603E+02 -0.22484842710E+02  0.57758304558E+03  0.58487991369E+03  0.81214048977E+02 0.  0.
        -13    1    3    3    0    0  0.49802341682E+02 -0.35207637630E+02 -0.30865644056E+03  0.31462461647E+03  0.00000000000E+00 0.  1.
         14    1    3    3    0    0 -0.12998396405E+02  0.13998017702E+02 -0.32110904986E+03  0.32167673946E+03  0.00000000000E+00 0. -1.
         11    1    5    5    0    0  0.35962327848E+01 -0.16413552937E+02  0.49813956447E+03  0.49842287598E+03  0.00000000000E+00 0. -1.
        -12    1    5    5    0    0  0.33566234818E+02 -0.60712897738E+01  0.79443481111E+02  0.86457037715E+02  0.00000000000E+00 0.  1.
          5    1    4    4  501    0  0.12926480183E+02  0.11039249511E+01 -0.24638349914E+02  0.28157294378E+02  0.41800000000E+01 0. -1.
         -5    1    4    4    0  501 -0.86892893063E+02  0.42590537687E+02  0.10764196707E+03  0.14480536675E+03  0.41800000000E+01 0. -1.
</event>
<event>
11    1  0.7882745E-009  0.1660199E+03  0.7561462E-02  0.1081548E+00
         22   -1    0    0    0    0  0.00000000000E+00  0.00000000000E+00  0.29392409406E+03  0.29392409406E+03  0.00000000000E+00 0.  1.
         22   -1    0    0    0    0 -0.00000000000E+00 -0.00000000000E+00 -0.68300811954E+03  0.68300811954E+03  0.00000000000E+00 0.  1.
        -24    2    1    2    0    0  0.10532991847E+03  0.15890559360E+02 -0.48822567812E+03  0.50613132234E+03  0.80359822496E+02 0.  0.
         25    2    1    2    0    0 -0.11489073447E+03 -0.51551538548E+02 -0.13348816249E+03  0.22209139333E+03  0.12509218790E+03 0.  0.
         24    2    1    2    0    0  0.95608159946E+01  0.35660979188E+02  0.23262981513E+03  0.24870949793E+03  0.79854047056E+02 0.  0.
        -13    1    5    5    0    0  0.37888134045E+02  0.38384190233E+02  0.18959009166E+03  0.19711230205E+03  0.00000000000E+00 0.  1.
         14    1    5    5    0    0 -0.28327318051E+02 -0.27232110453E+01  0.43039723468E+02  0.51597195878E+02  0.00000000000E+00 0. -1.
         13    1    3    3    0    0  0.40374292142E+02 -0.29374014040E+02 -0.12993805598E+03  0.13920062701E+03  0.00000000000E+00 0. -1.
        -14    1    3    3    0    0  0.64955626329E+02  0.45264573401E+02 -0.35828762214E+03  0.36693069533E+03  0.00000000000E+00 0.  1.
          5    1    4    4  501    0 -0.52026421630E+02  0.37990281908E+02 -0.71274629275E+02  0.96164209794E+02  0.41800000000E+01 0.  1.
         -5    1    4    4    0  501 -0.62864312836E+02 -0.89541820456E+02 -0.62213533219E+02  0.12592718354E+03  0.41800000000E+01 0.  1.
</event>
<event>
11    1  0.7882745E-009  0.1501629E+03  0.7561462E-02  0.1096712E+00
         22   -1    0    0    0    0  0.00000000000E+00  0.00000000000E+00  0.70109024323E+03  0.70109024323E+03  0.00000000000E+00 0. -1.
         22   -1    0    0    0    0 -0.00000000000E+00 -0.00000000000E+00 -0.25789465247E+03  0.25789465247E+03  0.00000000000E+00 0.  1.
        -24    2    1    2    0    0 -0.77485256193E+02 -0.93915922669E+01 -0.14311784367E+03  0.18105379862E+03  0.78775591950E+02 0.  0.
         25    2    1    2    0    0  0.10583051756E+03 -0.67448730482E+02 -0.31439419148E+01  0.17721752648E+03  0.12508692031E+03 0.  0.
         24    2    1    2    0    0 -0.28345261363E+02  0.76840322749E+02  0.58945737634E+03  0.60071357059E+03  0.81785734267E+02 0.  0.
        -13    1    5    5    0    0  0.90016487677E+01 -0.14363122087E+02  0.10107484428E+03  0.10248635569E+03  0.00000000000E+00 0.  1.
         14    1    5    5    0    0 -0.37346910131E+02  0.91203444836E+02  0.48838253207E+03  0.49822721491E+03  0.00000000000E+00 0. -1.
         13    1    3    3    0    0  0.63016680828E+01 -0.24552586739E+02 -0.26646356349E+02  0.36777287052E+02  0.00000000000E+00 0. -1.
        -14    1    3    3    0    0 -0.83786924276E+02  0.15160994472E+02 -0.11647148732E+03  0.14427651157E+03  0.00000000000E+00 0.  1.
          5    1    4    4  501    0  0.12185764367E+03 -0.29011241592E+02 -0.28159022346E+02  0.12845754317E+03  0.41800000000E+01 0. -1.
         -5    1    4    4    0  501 -0.16027126109E+02 -0.38437488889E+02  0.25015080431E+02  0.48759983310E+02  0.41800000000E+01 0. -1.
</event>
<event>
11    1  0.7882745E-009  0.1451532E+03  0.7561462E-02  0.1101937E+00
         22   -1    0    0    0    0  0.00000000000E+00  0.00000000000E+00  0.42210478294E+03  0.42210478294E+03  0.00000000000E+00 0.  1.
         22   -1    0    0    0    0 -0.00000000000E+00 -0.00000000000E+00 -0.95787149769E+03  0.95787149769E+03  0.00000000000E+00 0. -1.
        -24    2    1    2    0    0 -0.65649311795E+02  0.31707391876E+02 -0.90217407655E+03  0.90875677763E+03  0.81275000165E+02 0.  0.
         25    2    1    2    0    0  0.93077424602E+02 -0.50780679719E+02  0.10133606587E+03  0.19276798001E+03  0.12509361081E+03 0.  0.
         24    2    1    2    0    0 -0.27428112807E+02  0.19073287843E+02  0.26507129592E+03  0.27845152300E+03  0.78462520092E+02 0.  0.
        -11    1    5    5    0    0 -0.48255552725E+02  0.25417510045E+02  0.23547972827E+03  0.24171336457E+03  0.00000000000E+00 0.  1.
         12    1    5    5    0    0  0.20827439918E+02 -0.63442222018E+01  0.29591567651E+02  0.36738158431E+02  0.00000000000E+00 0. -1.
         13    1    3    3    0    0 -0.63604213202E+02 -0.92591975536E+01 -0.42629829780E+03  0.43111653573E+03  0.00000000000E+00 0. -1.
        -14    1    3    3    0    0 -0.20450985930E+01  0.40966589429E+02 -0.47587577875E+03  0.47764024190E+03  0.00000000000E+00 0.  1.
          5    1    4    4  501    0  0.90251617753E+02  0.13980976933E+02  0.87091690946E+02  0.12626661180E+03  0.41800000000E+01 0.  1.
         -5    1    4    4    0  501  0.28258068488E+01 -0.64761656651E+02  0.14244374927E+02  0.66501368209E+02  0.41800000000E+01 0.  1.
</event>
<event>
11    1  0.7882745E-009  0.1465434E+03  0.7561462E-02  0.1100464E+00
         22   -1    0    0    0    0  0.00000000000E+00  0.00000000000E+00  0.21648270548E+04  0.21648270548E+04  0.00000000000E+00 0.  1.
         22   -1    0    0    0    0 -0.00000000000E+00 -0.00000000000E+00 -0.88356720754E+02  0.88356720754E+02  0.00000000000E+00 0. -1.
        -24    2    1    2    0    0 -0.38901203213E+02 -0.62968859608E+01 -0.44619114392E+02  0.99212911083E+02  0.79368646028E+02 0.  0.
         25    2    1    2    0    0  0.71742215845E+02 -0.61186922234E+02  0.40181097401E+03  0.43126638092E+03  0.12509135658E+03 0.  0.
         24    2    1    2    0    0 -0.32841012632E+02  0.67483808195E+02  0.17192784745E+04  0.17227044836E+04  0.78483555829E+02 0.  0.
        -11    1    5    5    0    0 -0.36486459840E+02  0.26941582285E+02  0.14136232177E+04  0.14143506327E+04  0.00000000000E+00 0.  1.
         12    1    5    5    0    0  0.36454472079E+01  0.40542225910E+02  0.30565525674E+03  0.30835385086E+03  0.00000000000E+00 0. -1.
         13    1    3    3    0    0 -0.25717978568E+02 -0.64088703932E+01 -0.67660421383E+02  0.72666503033E+02  0.00000000000E+00 0. -1.
        -14    1    3    3    0    0 -0.13183224645E+02  0.11198443236E+00  0.23041306990E+02  0.26546408050E+02  0.00000000000E+00 0.  1.
          5    1    4    4  501    0 -0.96628313123E+00 -0.12882455681E+02  0.28529810564E+03  0.28562103012E+03  0.41800000000E+01 0.  1.
         -5    1    4    4    0  501  0.72708498977E+02 -0.48304466553E+02  0.11651286837E+03  0.14564535079E+03  0.41800000000E+01 0.  1.
</event>
<event>
11    1  0.7882745E-009  0.1384526E+03  0.7561462E-02  0.1109299E+00
         22   -1    0    0    0    0  0.00000000000E+00  0.00000000000E+00  0.84375727757E+02  0.84375727757E+02  0.00000000000E+00 0.  1.
         22   -1    0    0    0    0 -0.00000000000E+00 -0.00000000000E+00 -0.35943187290E+03  0.35943187290E+03  0.00000000000E+00 0.  1.
         24    2    1    2    0    0 -0.39633072668E+02  0.44971403246E+02 -0.96887307333E+02  0.13914888960E+03  0.79887768746E+02 0.  0.
         25    2    1    2    0    0 -0.34242782628E+01  0.30102190881E+02 -0.96255186127E+02  0.16071985437E+03  0.12509173895E+03 0.  0.
        -24    2    1    2    0    0  0.43057350931E+02 -0.75073594127E+02 -0.81913651681E+02  0.14393885669E+03  0.80737650014E+02 0.  0.
        -13    1    3    3    0    0 -0.15421233477E+02  0.14931730628E+02  0.11320953035E+02  0.24267983005E+02  0.00000000000E+00 0.  1.
         14    1    3    3    0    0 -0.24211839191E+02  0.30039672618E+02 -0.10820826037E+03  0.11488090659E+03  0.00000000000E+00 0. -1.
         13    1    5    5    0    0  0.24306342853E+02 -0.71071910441E+01 -0.67338000973E+02  0.71942455077E+02  0.00000000000E+00 0. -1.
        -14    1    5    5    0    0  0.18751008078E+02 -0.67966403083E+02 -0.14575650708E+02  0.71996401615E+02  0.00000000000E+00 0.  1.
          5    1    4    4  501    0  0.10299825854E+02  0.77360165830E+02 -0.48268040320E+02  0.91858357193E+02  0.41800000000E+01 0.  1.
         -5    1    4    4    0  501 -0.13724104117E+02 -0.47257974949E+02 -0.47987145807E+02  0.68861497172E+02  0.41800000000E+01 0.  1.
</event>
<event>
11    1  0.7882745E-009  0.1437981E+03  0.7561462E-02  0.1103390E+00
         22   -1    0    0    0    0  0.00000000000E+00  0.00000000000E+00  0.24462147036E+03  0.24462147036E+03  0.00000000000E+00 0.  1.
         22   -1    0    0    0    0 -0.00000000000E+00 -0.00000000000E+00 -0.11644412781E+04  0.11644412781E+04  0.00000000000E+00 0.  1.
        -24    2    1    2    0    0  0.67372238269E+02  0.35782823149E+02 -0.73893056299E+03  0.74723114916E+03  0.80725364260E+02 0.  0.
         25    2    1    2    0    0 -0.28942899588E+02 -0.58105196237E+02 -0.39959961912E+03  0.42372096828E+03  0.12508276496E+03 0.  0.
         24    2    1    2    0    0 -0.38429338681E+02  0.22322373088E+02  0.21871037440E+03  0.23811063098E+03  0.82990013274E+02 0.  0.
        -11    1    5    5    0    0 -0.17488158316E+02  0.35458508380E+02  0.20702716608E+03  0.21076856738E+03  0.00000000000E+00 0.  1.
         12    1    5    5    0    0 -0.20941180365E+02 -0.13136135292E+02  0.11683208319E+02  0.27342063604E+02  0.00000000000E+00 0. -1.
         13    1    3    3    0    0  0.26510046969E+02 -0.25305983124E+02 -0.20257307822E+03  0.20586167052E+03  0.00000000000E+00 0. -1.
        -14    1    3    3    0    0  0.40862191300E+02  0.61088806273E+02 -0.53635748477E+03  0.54136947863E+03  0.00000000000E+00 0.  1.
          5    1    4    4  501    0  0.40526016592E+02  0.30171835429E+01 -0.67070846333E+02  0.78533000994E+02  0.41800000000E+01 0. -1.
         -5    1    4    4    0  501 -0.69468916180E+02 -0.61122379780E+02 -0.33252877279E+03  0.34518796728E+03  0.41800000000E+01 0. -1.
</event>
<event>
11    1  0.7882745E-009  0.1410438E+03  0.7561462E-02  0.1106398E+00
         22   -1    0    0    0    0  0.00000000000E+00  0.00000000000E+00  0.27882153321E+04  0.27882153321E+04  0.00000000000E+00 0.  1.
         22   -1    0    0    0    0 -0.00000000000E+00 -0.00000000000E+00 -0.30344059943E+02  0.30344059943E+02  0.00000000000E+00 0. -1.
        -24    2    1    2    0    0  0.57627530117E+02 -0.21249739479E+02  0.88530271541E+02  0.13315515664E+03  0.78231726972E+02 0.  0.
         25    2    1    2    0    0 -0.94286698627E+02  0.16403337985E+02  0.89028209058E+03  0.90411484807E+03  0.12514953719E+03 0.  0.
         24    2    1    2    0    0  0.36659168510E+02  0.48464014939E+01  0.17790589100E+04  0.17812893873E+04  0.81079552322E+02 0.  0.
        -11    1    5    5    0    0  0.40406071669E+02  0.29400775853E+01  0.17749454108E+04  0.17754077013E+04  0.00000000000E+00 0.  1.
         12    1    5    5    0    0 -0.37469031588E+01  0.19063239087E+01  0.41134992512E+01  0.58816860011E+01  0.00000000000E+00 0. -1.
         13    1    3    3    0    0 -0.19478149233E+02 -0.93439838205E+00  0.13961000170E+02  0.23982929838E+02  0.00000000000E+00 0. -1.
        -14    1    3    3    0    0  0.77105679349E+02 -0.20315341096E+02  0.74569271371E+02  0.10917222680E+03  0.00000000000E+00 0.  1.
          5    1    4    4  501    0 -0.55587151614E+02  0.52538317556E+02  0.75349198743E+03  0.75737563584E+03  0.41800000000E+01 0. -1.
         -5    1    4    4    0  501 -0.38699547013E+02 -0.36134979572E+02  0.13679010315E+03  0.14673921224E+03  0.41800000000E+01 0. -1.
</event>
<event>
11    1  0.7882745E-009  0.1318594E+03  0.7561462E-02  0.1117005E+00
         22   -1    0    0    0    0  0.00000000000E+00  0.00000000000E+00  0.33137934478E+03  0.33137934478E+03  0.00000000000E+00 0. -1.
         22   -1    0    0    0    0 -0.00000000000E+00 -0.00000000000E+00 -0.82934151452E+03  0.82934151452E+03  0.00000000000E+00 0.  1.
        -24    2    1    2    0    0  0.11057434195E+02  0.40961569983E+02 -0.68864989756E+03  0.69442037668E+03  0.78618452540E+02 0.  0.
         25    2    1    2    0    0 -0.99545554868E+01 -0.32459420994E+02 -0.10038447378E+03  0.16393912412E+03  0.12508511764E+03 0.  0.
         24    2    1    2    0    0 -0.11028787083E+01 -0.85021489884E+01  0.29107220160E+03  0.30236135850E+03  0.81399396115E+02 0.  0.
        -11    1    5    5    0    0 -0.56678285200E+01 -0.44854556602E+02  0.16025162992E+03  0.16650717828E+03  0.00000000000E+00 0.  1.
         12    1    5    5    0    0  0.45649498117E+01  0.36352407614E+02  0.13082057168E+03  0.13585418021E+03  0.00000000000E+00 0. -1.
         13    1    3    3    0    0 -0.45211106606E+01 -0.21854609560E+02 -0.11620740032E+03  0.11833099463E+03  0.00000000000E+00 0. -1.
        -14    1    3    3    0    0  0.15578544856E+02  0.62816179542E+02 -0.57244249724E+03  0.57608938206E+03  0.00000000000E+00 0.  1.
          5    1    4    4  501    0 -0.26084388236E+02 -0.61901826227E+02 -0.10779987458E+02  0.68160926706E+02  0.41800000000E+01 0.  1.
         -5    1    4    4    0  501  0.16129832749E+02  0.29442405232E+02 -0.89604486323E+02  0.95778197412E+02  0.41800000000E+01 0.  1.
</event>
<event>
11    1  0.7882745E-009  0.1417072E+03  0.7561462E-02  0.1105667E+00
         22   -1    0    0    0    0  0.00000000000E+00  0.00000000000E+00  0.11493757265E+04  0.11493757265E+04  0.00000000000E+00 0. -1.
         22   -1    0    0    0    0 -0.00000000000E+00 -0.00000000000E+00 -0.49838610976E+03  0.49838610976E+03  0.00000000000E+00 0. -1.
        -24    2    1    2    0    0 -0.10271686469E+02  0.13627957802E+02 -0.46944699639E+03  0.47597430454E+03  0.76680032535E+02 0.  0.
         25    2    1    2    0    0  0.64024072657E+02  0.25574943146E+02  0.20056280971E+03  0.24622306569E+03  0.12508875985E+03 0.  0.
         24    2    1    2    0    0 -0.53752386188E+02 -0.39202900948E+02  0.91987380346E+03  0.92556446608E+03  0.77946007663E+02 0.  0.
        -11    1    5    5    0    0 -0.52928265609E+02 -0.30000582081E+01  0.30104949346E+03  0.30568153225E+03  0.00000000000E+00 0.  1.
         12    1    5    5    0    0 -0.82412057956E+00 -0.36202842740E+02  0.61882431000E+03  0.61988293383E+03  0.00000000000E+00 0. -1.
         13    1    3    3    0    0 -0.31673060321E+02  0.14704685035E+02 -0.10028343195E+03  0.10618934615E+03  0.00000000000E+00 0. -1.
        -14    1    3    3    0    0  0.21401373852E+02 -0.10767272331E+01 -0.36916356444E+03  0.36978495839E+03  0.00000000000E+00 0.  1.
          5    1    4    4  501    0  0.81441734901E+02  0.35448213751E+02  0.67605726233E+02  0.11170200831E+03  0.41800000000E+01 0.  1.
         -5    1    4    4    0  501 -0.17417662243E+02 -0.98732706053E+01  0.13295708347E+03  0.13452105737E+03  0.41800000000E+01 0.  1.
</event>
<event>
11    1  0.7882745E-009  0.1808587E+03  0.7561462E-02  0.1068950E+00
         22   -1    0    0    0    0  0.00000000000E+00  0.00000000000E+00  0.25943801648E+03  0.25943801648E+03  0.00000000000E+00 0.  1.
         22   -1    0    0    0    0 -0.00000000000E+00 -0.00000000000E+00 -0.13010070630E+04  0.13010070630E+04  0.00000000000E+00 0.  1.
         24    2    1    2    0    0 -0.12636120781E+03  0.22764173485E+02 -0.10596463820E+04  0.10703915178E+04  0.80013649417E+02 0.  0.
         25    2    1    2    0    0  0.13061332574E+03 -0.12603099797E+03 -0.15738131924E+03  0.27084574751E+03  0.12507951867E+03 0.  0.
        -24    2    1    2    0    0 -0.42521179364E+01  0.10326682449E+03  0.17545865465E+03  0.21920781422E+03  0.81143137581E+02 0.  0.
        -11    1    3    3    0    0 -0.12504266655E+03 -0.33490318003E+01 -0.88685470855E+03  0.89563282574E+03  0.00000000000E+00 0.  1.
         12    1    3    3    0    0 -0.13185412613E+01  0.26113205285E+02 -0.17279167342E+03  0.17475869204E+03  0.00000000000E+00 0. -1.
         11    1    5    5    0    0  0.21890992407E+02  0.20266343364E+02  0.98908133195E+02  0.10330904624E+03  0.00000000000E+00 0. -1.
        -12    1    5    5    0    0 -0.26143110344E+02  0.83000481124E+02  0.76550521456E+02  0.11589876799E+03  0.00000000000E+00 0.  1.
          5    1    4    4  501    0 -0.99271691992E+00  0.20524289232E+02 -0.44445471294E+01  0.21434979229E+02  0.41800000000E+01 0. -1.
         -5    1    4    4    0  501  0.13160604266E+03 -0.14655528721E+03 -0.15293677211E+03  0.24941076829E+03  0.41800000000E+01 0. -1.
</event>
<event>
11    1  0.7882745E-009  0.1316557E+03  0.7561462E-02  0.1117251E+00
         22   -1    0    0    0    0  0.00000000000E+00  0.00000000000E+00  0.24311079631E+04  0.24311079631E+04  0.00000000000E+00 0. -1.
         22   -1    0    0    0    0 -0.00000000000E+00 -0.00000000000E+00 -0.61621674193E+02  0.61621674193E+02  0.00000000000E+00 0.  1.
        -24    2    1    2    0    0  0.15575001076E+02  0.20195747034E+02 -0.54597732001E+01  0.85514371355E+02  0.81439853438E+02 0.  0.
         25    2    1    2    0    0 -0.36861180516E+02 -0.53455790944E+02  0.31289271290E+03  0.34317004652E+03  0.12509021875E+03 0.  0.
         24    2    1    2    0    0  0.21286179440E+02  0.33260043909E+02  0.20620533492E+04  0.20640452194E+04  0.81604662079E+02 0.  0.
        -13    1    5    5    0    0 -0.14575633259E+02  0.36208084869E+02  0.48053419915E+03  0.48211678155E+03  0.00000000000E+00 0.  1.
         14    1    5    5    0    0  0.35861812699E+02 -0.29480409593E+01  0.15815191501E+04  0.15819284379E+04  0.00000000000E+00 0. -1.
         13    1    3    3    0    0  0.29486580545E+01  0.10715329353E+02  0.37833328319E+02  0.39431885564E+02  0.00000000000E+00 0. -1.
        -14    1    3    3    0    0  0.12626343021E+02  0.94804176812E+01 -0.43293101519E+02  0.46082485791E+02  0.00000000000E+00 0.  1.
          5    1    4    4  501    0  0.29059528076E+02 -0.67322242571E+02  0.16243941461E+03  0.17827163638E+03  0.41800000000E+01 0. -1.
         -5    1    4    4    0  501 -0.65920708592E+02  0.13866451627E+02  0.15045329829E+03  0.16489841014E+03  0.41800000000E+01 0. -1.
</event>
<event>
11    1  0.7882745E-009  0.1616710E+03  0.7561462E-02  0.1085516E+00
         22   -1    0    0    0    0  0.00000000000E+00  0.00000000000E+00  0.14577583589E+04  0.14577583589E+04  0.00000000000E+00 0.  1.
         22   -1    0    0    0    0 -0.00000000000E+00 -0.00000000000E+00 -0.73892471640E+03  0.73892471640E+03  0.00000000000E+00 0. -1.
         24    2    1    2    0    0 -0.10998568952E+01  0.99140529111E+02 -0.59926307059E+03  0.61276957165E+03  0.80871910894E+02 0.  0.
         25    2    1    2    0    0  0.22941721204E+02 -0.13325407617E+03 -0.66859302888E+02  0.19596095368E+03  0.12509019784E+03 0.  0.
        -24    2    1    2    0    0 -0.21841864309E+02  0.34113547064E+02  0.13849560160E+04  0.13879525500E+04  0.81659743142E+02 0.  0.
        -13    1    3    3    0    0  0.18081392736E+01  0.35833342315E+02 -0.60853504209E+02  0.70643094239E+02  0.00000000000E+00 0.  1.
         14    1    3    3    0    0 -0.29079961688E+01  0.63307186796E+02 -0.53840956638E+03  0.54212647741E+03  0.00000000000E+00 0. -1.
         11    1    5    5    0    0 -0.27751885244E+02 -0.54017887763E+01  0.16963537361E+03  0.17197530764E+03  0.00000000000E+00 0. -1.
        -12    1    5    5    0    0  0.59100209347E+01  0.39515335840E+02  0.12153206424E+04  0.12159772423E+04  0.00000000000E+00 0.  1.
          5    1    4    4  501    0  0.55588134628E+02 -0.13747059741E+03 -0.41034872982E+02  0.15391406390E+03  0.41800000000E+01 0. -1.
         -5    1    4    4    0  501 -0.32646413424E+02  0.42165212375E+01 -0.25824429906E+02  0.42046889787E+02  0.41800000000E+01 0. -1.
</event>
<event>
11    1  0.7882745E-009  0.1391306E+03  0.7561462E-02  0.1108533E+00
         22   -1    0    0    0    0  0.00000000000E+00  0.00000000000E+00  0.10250403454E+04  0.10250403454E+04  0.00000000000E+00 0.  1.
         22   -1    0    0    0    0 -0.00000000000E+00 -0.00000000000E+00 -0.21420307266E+03  0.21420307266E+03  0.00000000000E+00 0.  1.
         24    2    1    2    0    0  0.34329319502E+02  0.40589413676E+02 -0.16855100766E+03  0.19359255620E+03  0.79010334479E+02 0.  0.
         25    2    1    2    0    0 -0.91918007072E+02 -0.40515521545E+02  0.18421712567E+03  0.24428097749E+03  0.12508724582E+03 0.  0.
        -24    2    1    2    0    0  0.57588687570E+02 -0.73892130946E-01  0.79517115469E+03  0.80136988432E+03  0.81117592717E+02 0.  0.
        -11    1    3    3    0    0 -0.93147088352E+00  0.30945781664E+02 -0.14891017548E+03  0.15209454100E+03  0.00000000000E+00 0.  1.
         12    1    3    3    0    0  0.35260790385E+02  0.96436320119E+01 -0.19640832177E+02  0.41498015201E+02  0.00000000000E+00 0. -1.
         13    1    5    5    0    0  0.40116666588E+01 -0.18643767187E+02  0.42698255280E+02  0.46763495681E+02  0.00000000000E+00 0. -1.
        -14    1    5    5    0    0  0.53577020911E+02  0.18569875056E+02  0.75247289941E+03  0.75460638864E+03  0.00000000000E+00 0.  1.
          5    1    4    4  501    0 -0.90998706130E+02 -0.61629330827E+02  0.75389737231E+02  0.13334175571E+03  0.41800000000E+01 0.  1.
         -5    1    4    4    0  501 -0.91930094200E+00  0.21113809283E+02  0.10882738843E+03  0.11093922178E+03  0.41800000000E+01 0.  1.
</event>
<event>
11    1  0.7882745E-009  0.1707365E+03  0.7561462E-02  0.1077393E+00
         22   -1    0    0    0    0  0.00000000000E+00  0.00000000000E+00  0.41184468609E+03  0.41184468609E+03  0.00000000000E+00 0. -1.
         22   -1    0    0    0    0 -0.00000000000E+00 -0.00000000000E+00 -0.31963822684E+03  0.31963822684E+03  0.00000000000E+00 0.  1.
         24    2    1    2    0    0 -0.53350107910E+02  0.39878524689E+02 -0.23504132783E+03  0.25626132929E+03  0.77388063389E+02 0.  0.
         25    2    1    2    0    0 -0.50106293047E+02 -0.10362505858E+03  0.78280266412E+02  0.18714829263E+03  0.12509152632E+03 0.  0.
        -24    2    1    2    0    0  0.10345640096E+03  0.63746533887E+02  0.24896752068E+03  0.28807329101E+03  0.78959148668E+02 0.  0.
        -11    1    3    3    0    0 -0.57573745674E+02  0.47753669371E+02 -0.23571584494E+03  0.24729963341E+03  0.00000000000E+00 0.  1.
         12    1    3    3    0    0  0.42236377641E+01 -0.78751446823E+01  0.67451710635E+00  0.89616958806E+01  0.00000000000E+00 0. -1.
         11    1    5    5    0    0  0.38596874193E+02  0.64516831544E+02  0.16999402382E+03  0.18587659450E+03  0.00000000000E+00 0. -1.
        -12    1    5    5    0    0  0.64859526764E+02 -0.77029765677E+00  0.78973496862E+02  0.10219669651E+03  0.00000000000E+00 0.  1.
          5    1    4    4  501    0  0.37988270144E+02 -0.34048995966E+02  0.17359443528E+01  0.51214536000E+02  0.41800000000E+01 0.  1.
         -5    1    4    4    0  501 -0.88094563191E+02 -0.69576062610E+02  0.76544322059E+02  0.13593375663E+03  0.41800000000E+01 0.  1.
</event>
<event>
11    1  0.7882745E-009  0.1525822E+03  0.7561462E-02  0.1094269E+00
         22   -1    0    0    0    0  0.00000000000E+00  0.00000000000E+00  0.72799901368E+03  0.72799901368E+03  0.00000000000E+00 0.  1.
         22   -1    0    0    0    0 -0.00000000000E+00 -0.00000000000E+00 -0.56266736989E+03  0.56266736989E+03  0.00000000000E+00 0. -1.
        -24    2    1    2    0    0 -0.22351714875E+02  0.51360688630E+02 -0.52909654218E+03  0.53787013821E+03  0.78889892440E+02 0.  0.
         25    2    1    2    0    0 -0.54690326721E+02  0.14763189663E+02  0.20554830801E+03  0.24719850011E+03  0.12509199784E+03 0.  0.
         24    2    1    2    0    0  0.77042041596E+02 -0.66123878293E+02  0.48887987797E+03  0.50559774526E+03  0.79483969940E+02 0.  0.
        -11    1    5    5    0    0  0.45313341080E+02 -0.34026154846E+02  0.41623330949E+03  0.42007290560E+03  0.00000000000E+00 0.  1.
         12    1    5    5    0    0  0.31728700516E+02 -0.32097723447E+02  0.72646568483E+02  0.85524839662E+02  0.00000000000E+00 0. -1.
         11    1    3    3    0    0 -0.30362570192E+02  0.47953382424E+02 -0.52532610952E+03  0.52838332099E+03  0.00000000000E+00 0. -1.
        -12    1    3    3    0    0  0.80108553166E+01  0.34073062059E+01 -0.37704326648E+01  0.94868172199E+01  0.00000000000E+00 0.  1.
          5    1    4    4  501    0  0.25684298155E+02  0.14554004025E+02  0.14074548176E+03  0.14386891687E+03  0.41800000000E+01 0. -1.
         -5    1    4    4    0  501 -0.80374624877E+02  0.20918563793E+00  0.64802826246E+02  0.10332958324E+03  0.41800000000E+01 0. -1.
</event>
<event>
11    1  0.7882745E-009  0.1622266E+03  0.7561462E-02  0.1085002E+00
         22   -1    0    0    0    0  0.00000000000E+00  0.00000000000E+00  0.12270785466E+04  0.12270785466E+04  0.00000000000E+00 0. -1.
         22   -1    0    0    0    0 -0.00000000000E+00 -0.00000000000E+00 -0.30050119183E+03  0.30050119183E+03  0.00000000000E+00 0.  1.
        -24    2    1    2    0    0  0.28781332641E+02 -0.95096230987E+02 -0.24002165708E+03  0.27177870621E+03  0.79884986227E+02 0.  0.
         25    2    1    2    0    0 -0.29208409377E+02  0.17135915781E+03  0.23810571668E+03  0.32024754975E+03  0.12508824350E+03 0.  0.
         24    2    1    2    0    0  0.42707673577E+00 -0.76262926822E+02  0.92849329512E+03  0.93555348242E+03  0.85698908909E+02 0.  0.
        -11    1    5    5    0    0 -0.29289955805E+02  0.25184437617E+01  0.30196428709E+03  0.30339194905E+03  0.00000000000E+00 0.  1.
         12    1    5    5    0    0  0.29717032540E+02 -0.78781370584E+02  0.62652900803E+03  0.63216153338E+03  0.00000000000E+00 0. -1.
         11    1    3    3    0    0  0.24173712475E+01  0.84173846147E+00  0.59333102181E+01  0.64619174809E+01  0.00000000000E+00 0. -1.
        -12    1    3    3    0    0  0.26363961394E+02 -0.95937969449E+02 -0.24595496730E+03  0.26531678873E+03  0.00000000000E+00 0.  1.
          5    1    4    4  501    0  0.15637758166E+02  0.15676453103E+03  0.21754040854E+03  0.26862792002E+03  0.41800000000E+01 0. -1.
         -5    1    4    4    0  501 -0.44846167543E+02  0.14594626779E+02  0.20565308143E+02  0.51619629727E+02  0.41800000000E+01 0. -1.
</event>
<event>
11    1  0.7882745E-009  0.1728458E+03  0.7561462E-02  0.1075581E+00
         22   -1    0    0    0    0  0.00000000000E+00  0.00000000000E+00  0.85226524064E+03  0.85226524064E+03  0.00000000000E+00 0. -1.
         22   -1    0    0    0    0 -0.00000000000E+00 -0.00000000000E+00 -0.60576499640E+03  0.60576499640E+03  0.00000000000E+00 0.  1.
        -24    2    1    2    0    0 -0.36455668974E+02 -0.35696289053E+02 -0.54301183192E+03  0.55165311411E+03  0.82801375853E+02 0.  0.
         25    2    1    2    0    0 -0.30348861964E+02 -0.70639363446E+02  0.54655605888E+02  0.15666975919E+03  0.12508878886E+03 0.  0.
         24    2    1    2    0    0  0.66804530938E+02  0.10633565250E+03  0.73485647028E+03  0.74970736374E+03  0.79227413144E+02 0.  0.
        -13    1    5    5    0    0  0.17099206458E+02  0.95842626357E+02  0.45881039792E+03  0.46902577022E+03  0.00000000000E+00 0.  1.
         14    1    5    5    0    0  0.49705324480E+02  0.10493026142E+02  0.27604607236E+03  0.28068159353E+03  0.00000000000E+00 0. -1.
         13    1    3    3    0    0  0.18695446193E+02 -0.28964650493E+02 -0.11517580807E+03  0.12022452932E+03  0.00000000000E+00 0. -1.
        -14    1    3    3    0    0 -0.55151115166E+02 -0.67316385600E+01 -0.42783602385E+03  0.43142858478E+03  0.00000000000E+00 0.  1.
          5    1    4    4  501    0 -0.45834364378E+02  0.22480097804E+01  0.66703665830E+02  0.81072152686E+02  0.41800000000E+01 0.  1.
         -5    1    4    4    0  501  0.15485502414E+02 -0.72887373226E+02 -0.12048059942E+02  0.75597606504E+02  0.41800000000E+01 0.  1.
</event>
<event>
11    1  0.7882745E-009  0.1391589E+03  0.7561462E-02  0.1108501E+00
         22   -1    0    0    0    0  0.00000000000E+00  0.00000000000E+00  0.10851742743E+04  0.10851742743E+04  0.00000000000E+00 0.  1.
         22   -1    0    0    0    0 -0.00000000000E+00 -0.00000000000E+00 -0.15814480913E+03  0.15814480913E+03  0.00000000000E+00 0. -1.
         24    2    1    2    0    0  0.37439554246E+01 -0.11624946968E+02 -0.13106274831E+03  0.15463879122E+03  0.81157594608E+02 0.  0.
         25    2    1    2    0    0 -0.54072389403E+01 -0.53070732304E+02  0.43784892838E+03  0.45848019877E+03  0.12508664086E+03 0.  0.
        -24    2    1    2    0    0  0.16632835157E+01  0.64695679272E+02  0.62024328506E+03  0.63020009340E+03  0.90896246509E+02 0.  0.
        -13    1    3    3    0    0 -0.29352228154E+02 -0.29731917869E+02 -0.49507228102E+02  0.64780443593E+02  0.00000000000E+00 0.  1.
         14    1    3    3    0    0  0.33096183578E+02  0.18106970901E+02 -0.81555520209E+02  0.89858347632E+02  0.00000000000E+00 0. -1.
         11    1    5    5    0    0  0.41590806800E+02  0.39443226948E+02  0.22682545945E+03  0.23395587707E+03  0.00000000000E+00 0. -1.
        -12    1    5    5    0    0 -0.39927523284E+02  0.25252452324E+02  0.39341782561E+03  0.39624421633E+03  0.00000000000E+00 0.  1.
          5    1    4    4  501    0  0.45884438719E+02  0.16407284873E+02  0.17971092840E+03  0.18624733797E+03  0.41800000000E+01 0.  1.
         -5    1    4    4    0  501 -0.51291677659E+02 -0.69478017177E+02  0.25813799998E+03  0.27223286080E+03  0.41800000000E+01 0.  1.
</event>
<event>
11    1  0.7882745E-009  0.1500009E+03  0.7561462E-02  0.1096878E+00
         22   -1    0    0    0    0  0.00000000000E+00  0.00000000000E+00  0.34617972095E+03  0.34617972095E+03  0.00000000000E+00 0.  1.
         22   -1    0    0    0    0 -0.00000000000E+00 -0.00000000000E+00 -0.41305023334E+03  0.41305023334E+03  0.00000000000E+00 0. -1.
        -24    2    1    2    0    0  0.63880883600E+01  0.29573152832E+02 -0.21413513794E+03  0.22972279576E+03  0.77481136755E+02 0.  0.
         25    2    1    2    0    0  0.20141240987E+02 -0.10642337348E+03 -0.14238295481E+03  0.21829992563E+03  0.12510134971E+03 0.  0.
         24    2    1    2    0    0 -0.26529329347E+02  0.76850220650E+02  0.28964758036E+03  0.31120723289E+03  0.79652114002E+02 0.  0.
        -13    1    5    5    0    0  0.27700914146E+01  0.80444117675E+02  0.17183773419E+03  0.18975546466E+03  0.00000000000E+00 0.  1.
         14    1    5    5    0    0 -0.29299420761E+02 -0.35938970254E+01  0.11780984616E+03  0.12145176823E+03  0.00000000000E+00 0. -1.
         13    1    3    3    0    0 -0.53285541853E+01  0.33548271504E+02 -0.21466775649E+03  0.21733873490E+03  0.00000000000E+00 0. -1.
        -14    1    3    3    0    0  0.11716642545E+02 -0.39751186717E+01  0.53261855346E+00  0.12384060865E+02  0.00000000000E+00 0.  1.
          5    1    4    4  501    0  0.69475055500E+02 -0.60741304839E+02 -0.10972911640E+03  0.14343723657E+03  0.41800000000E+01 0. -1.
         -5    1    4    4    0  501 -0.49333814513E+02 -0.45682068643E+02 -0.32653838408E+02  0.74862689056E+02  0.41800000000E+01 0. -1.
</event>
<event>
11    1  0.7882745E-009  0.1411902E+03  0.7561462E-02  0.1106237E+00
         22   -1    0    0    0    0  0.00000000000E+00  0.00000000000E+00  0.51520930847E+03  0.51520930847E+03  0.00000000000E+00 0.  1.
         22   -1    0    0    0    0 -0.00000000000E+00 -0.00000000000E+00 -0.72899906541E+03  0.72899906541E+03  0.00000000000E+00 0. -1.
         24    2    1    2    0    0 -0.37690257153E+02 -0.11168876358E+02 -0.63267106052E+03  0.63908968823E+03  0.81348998150E+02 0.  0.
         25    2    1    2    0    0  0.62671205810E+02 -0.48998423764E+02 -0.23752032356E+02  0.15013544161E+03  0.12509183114E+03 0.  0.
        -24    2    1    2    0    0 -0.24980948657E+02  0.60167300122E+02  0.44263333594E+03  0.45498324404E+03  0.82712335705E+02 0.  0.
        -11    1    3    3    0    0  0.63114483136E+01 -0.15223831430E+02 -0.25815203638E+02  0.30627180120E+02  0.00000000000E+00 0.  1.
         12    1    3    3    0    0 -0.44001705467E+02  0.40549550723E+01 -0.60685585688E+03  0.60846250811E+03  0.00000000000E+00 0. -1.
         11    1    5    5    0    0 -0.42931620219E+02  0.29346592376E+02  0.12545961204E+03  0.13581038528E+03  0.00000000000E+00 0. -1.
        -12    1    5    5    0    0  0.17950671562E+02  0.30820707746E+02  0.31717372390E+03  0.31917285876E+03  0.00000000000E+00 0.  1.
          5    1    4    4  501    0 -0.23687370925E+02  0.23969445499E+02  0.23146483943E+01  0.34036096369E+02  0.41800000000E+01 0. -1.
         -5    1    4    4    0  501  0.86358576735E+02 -0.72967869263E+02 -0.26066680750E+02  0.11609934524E+03  0.41800000000E+01 0. -1.
</event>
<event>
11    1  0.7882745E-009  0.1639790E+03  0.7561462E-02  0.1083393E+00
         22   -1    0    0    0    0  0.00000000000E+00  0.00000000000E+00  0.26643034014E+03  0.26643034014E+03  0.00000000000E+00 0. -1.
         22   -1    0    0    0    0 -0.00000000000E+00 -0.00000000000E+00 -0.20656178353E+04  0.20656178353E+04  0.00000000000E+00 0.  1.
        -24    2    1    2    0    0 -0.32794728010E+01 -0.35404039448E+02 -0.14055044072E+04  0.14084707591E+04  0.84160795895E+02 0.  0.
         25    2    1    2    0    0  0.33671777216E+02 -0.67091676847E+02 -0.63299071477E+03  0.64958246220E+03  0.12508016838E+03 0.  0.
         24    2    1    2    0    0 -0.30392304415E+02  0.10249571630E+03  0.23930762684E+03  0.27399495414E+03  0.79850050738E+02 0.  0.
        -13    1    5    5    0    0 -0.24171650147E+02  0.63463826037E+02  0.60759074609E+02  0.91124042017E+02  0.00000000000E+00 0.  1.
         14    1    5    5    0    0 -0.62206542683E+01  0.39031890259E+02  0.17854855223E+03  0.18287091212E+03  0.00000000000E+00 0. -1.
         13    1    3    3    0    0 -0.25831825126E+02 -0.17688940732E+02 -0.18507021573E+03  0.18769967118E+03  0.00000000000E+00 0. -1.
        -14    1    3    3    0    0  0.22552352325E+02 -0.17715098717E+02 -0.12204341915E+04  0.12207710879E+04  0.00000000000E+00 0.  1.
          5    1    4    4  501    0 -0.31359381771E+02 -0.73079521656E+02 -0.31323545077E+03  0.32319954723E+03  0.41800000000E+01 0.  1.
         -5    1    4    4    0  501  0.65031158988E+02  0.59878448088E+01 -0.31975526401E+03  0.32638291497E+03  0.41800000000E+01 0.  1.
</event>
<event>
11    1  0.7882745E-009  0.1493673E+03  0.7561462E-02  0.1097527E+00
         22   -1    0    0    0    0  0.00000000000E+00  0.00000000000E+00  0.92693395746E+03  0.92693395746E+03  0.00000000000E+00 0.  1.
         22   -1    0    0    0    0 -0.00000000000E+00 -0.00000000000E+00 -0.45426783797E+03  0.45426783797E+03  0.00000000000E+00 0. -1.
         24    2    1    2    0    0 -0.77060677448E+02 -0.45119461327E+02 -0.39011843794E+03  0.40846344810E+03  0.81706052484E+02 0.  0.
         25    2    1    2    0    0  0.77857802297E+01  0.18850544508E+02  0.26651009796E+02  0.12951307208E+03  0.12508956037E+03 0.  0.
        -24    2    1    2    0    0  0.69274897219E+02  0.26268916819E+02  0.83613354762E+03  0.84322527526E+03  0.80127947656E+02 0.  0.
        -11    1    3    3    0    0  0.12527980030E+01 -0.86257675782E+01  0.17831818378E+00  0.87180942025E+01  0.00000000000E+00 0.  1.
         12    1    3    3    0    0 -0.78313475451E+02 -0.36493693749E+02 -0.39029675612E+03  0.39974535389E+03  0.00000000000E+00 0. -1.
         11    1    5    5    0    0 -0.86979142048E+01  0.29812857993E+02  0.24567373488E+03  0.24762884368E+03  0.00000000000E+00 0. -1.
        -12    1    5    5    0    0  0.77972811423E+02 -0.35439411742E+01  0.59045981275E+03  0.59559643158E+03  0.00000000000E+00 0.  1.
          5    1    4    4  501    0  0.50790644449E+01  0.69007969266E+02  0.36213641529E+02  0.78209954294E+02  0.41800000000E+01 0.  1.
         -5    1    4    4    0  501  0.27067157848E+01 -0.50157424759E+02 -0.95626317326E+01  0.51303117784E+02  0.41800000000E+01 0.  1.
</event>
<event>
11    1  0.7882745E-009  0.1420222E+03  0.7561462E-02  0.1105321E+00
         22   -1    0    0    0    0  0.00000000000E+00  0.00000000000E+00  0.59622236785E+03  0.59622236785E+03  0.00000000000E+00 0. -1.
         22   -1    0    0    0    0 -0.00000000000E+00 -0.00000000000E+00 -0.12156769779E+04  0.12156769779E+04  0.00000000000E+00 0. -1.
         24    2    1    2    0    0 -0.63692979933E+02  0.22075973053E+02 -0.11768255557E+04  0.11815352088E+04  0.81011832199E+02 0.  0.
         25    2    1    2    0    0  0.43677874783E+02 -0.52027931382E+02  0.12634016194E+03  0.19031647814E+03  0.12507542901E+03 0.  0.
        -24    2    1    2    0    0  0.20015105150E+02  0.29951958329E+02  0.43103078367E+03  0.44004765880E+03  0.80973336985E+02 0.  0.
        -11    1    3    3    0    0 -0.21215204374E+02  0.77109791207E+01 -0.65041157227E+02  0.68846904280E+02  0.00000000000E+00 0.  1.
         12    1    3    3    0    0 -0.42477775559E+02  0.14364993932E+02 -0.11117843984E+04  0.11126883045E+04  0.00000000000E+00 0. -1.
         11    1    5    5    0    0  0.30668416176E+02 -0.73987303647E+01  0.33466926403E+03  0.33615295514E+03  0.00000000000E+00 0. -1.
        -12    1    5    5    0    0 -0.10653311026E+02  0.37350688693E+02  0.96361519641E+02  0.10389470366E+03  0.00000000000E+00 0.  1.
          5    1    4    4  501    0  0.30117032331E+01 -0.66626281326E+02  0.13059547261E+03  0.14669963049E+03  0.41800000000E+01 0.  1.
         -5    1    4    4    0  501  0.40666171550E+02  0.14598349945E+02 -0.42553106751E+01  0.43616847646E+02  0.41800000000E+01 0.  1.
</event>
<event>
11    1  0.7882745E-009  0.1753618E+03  0.7561462E-02  0.1073458E+00
         22   -1    0    0    0    0  0.00000000000E+00  0.00000000000E+00  0.88875779814E+03  0.88875779814E+03  0.00000000000E+00 0. -1.
         22   -1    0    0    0    0 -0.00000000000E+00 -0.00000000000E+00 -0.28389380975E+03  0.28389380975E+03  0.00000000000E+00 0.  1.
        -24    2    1    2    0    0 -0.22545588930E+02  0.52017005569E+01 -0.24538927444E+03  0.25880863080E+03  0.78934467082E+02 0.  0.
         25    2    1    2    0    0  0.10084259502E+03 -0.91975794753E+02  0.37103556082E+03  0.41466020320E+03  0.12508765301E+03 0.  0.
         24    2    1    2    0    0 -0.78297006091E+02  0.86774094196E+02  0.47921770201E+03  0.49918277390E+03  0.76639880274E+02 0.  0.
        -11    1    5    5    0    0  0.15114440733E+02  0.10008528326E+02  0.81564037221E+02  0.83554228652E+02  0.00000000000E+00 0.  1.
         12    1    5    5    0    0 -0.93411446824E+02  0.76765565870E+02  0.39765366479E+03  0.41562854525E+03  0.00000000000E+00 0. -1.
         13    1    3    3    0    0 -0.18642382457E+02  0.16305720391E+02 -0.16825073322E+02  0.29941577003E+02  0.00000000000E+00 0. -1.
        -14    1    3    3    0    0 -0.39032064725E+01 -0.11104019834E+02 -0.22856420112E+03  0.22886705379E+03  0.00000000000E+00 0.  1.
          5    1    4    4  501    0 -0.28821665423E+02 -0.88224748272E+01  0.49461122476E+02  0.58072364309E+02  0.41800000000E+01 0.  1.
         -5    1    4    4    0  501  0.12966426044E+03 -0.83153319926E+02  0.32157443834E+03  0.35658783889E+03  0.41800000000E+01 0.  1.
</event>
<event>
11    1  0.7882745E-009  0.1713800E+03  0.7561462E-02  0.1076837E+00
         22   -1    0    0    0    0  0.00000000000E+00  0.00000000000E+00  0.31649824916E+04  0.31649824916E+04  0.00000000000E+00 0.  1.
         22   -1    0    0    0    0 -0.00000000000E+00 -0.00000000000E+00 -0.36119252743E+02  0.36119252743E+02  0.00000000000E+00 0.  1.
        -24    2    1    2    0    0  0.18648271667E+02  0.50216537528E+01  0.81155274974E+02  0.11648799415E+03  0.81303745803E+02 0.  0.
         25    2    1    2    0    0  0.79020501400E+02 -0.72015721792E+02  0.39255517420E+03  0.42564845396E+03  0.12508612131E+03 0.  0.
         24    2    1    2    0    0 -0.97668773067E+02  0.66994068039E+02  0.26551527897E+04  0.26589652962E+04  0.78947549861E+02 0.  0.
        -13    1    5    5    0    0 -0.79212445312E+02  0.58463992754E+02  0.25479552648E+04  0.25498566001E+04  0.00000000000E+00 0.  1.
         14    1    5    5    0    0 -0.18456327755E+02  0.85300752856E+01  0.10719752488E+03  0.10910869607E+03  0.00000000000E+00 0. -1.
         11    1    3    3    0    0 -0.25290626428E+02 -0.20029966703E+02  0.24288267062E+02  0.40382363329E+02  0.00000000000E+00 0. -1.
        -12    1    3    3    0    0  0.43938898094E+02  0.25051620455E+02  0.56867007912E+02  0.76105630817E+02  0.00000000000E+00 0.  1.
          5    1    4    4  501    0  0.69238343516E+02 -0.97587434574E+02  0.21625510690E+03  0.24718616317E+03  0.41800000000E+01 0.  1.
         -5    1    4    4    0  501  0.97821578848E+01  0.25571712782E+02  0.17630006729E+03  0.17846229079E+03  0.41800000000E+01 0.  1.
</event>
<event>
11    1  0.7882745E-009  0.1293698E+03  0.7561462E-02  0.1120046E+00
         22   -1    0    0    0    0  0.00000000000E+00  0.00000000000E+00  0.12097682567E+04  0.12097682567E+04  0.00000000000E+00 0.  1.
         22   -1    0    0    0    0 -0.00000000000E+00 -0.00000000000E+00 -0.47882082381E+02  0.47882082381E+02  0.00000000000E+00 0.  1.
         24    2    1    2    0    0 -0.27231076530E+02 -0.24940877824E+02  0.28995545831E+02  0.95007146682E+02  0.82595625350E+02 0.  0.
         25    2    1    2    0    0 -0.11525039129E+02  0.27946992137E+02  0.32245834766E+03  0.34718248891E+03  0.12506971550E+03 0.  0.
        -24    2    1    2    0    0  0.38756115659E+02 -0.30061143132E+01  0.81043228078E+03  0.81546070344E+03  0.81637025282E+02 0.  0.
        -11    1    3    3    0    0 -0.70782910979E+01 -0.82619580335E+01 -0.29222450475E+02  0.31181946173E+02  0.00000000000E+00 0.  1.
         12    1    3    3    0    0 -0.20152785432E+02 -0.16678919790E+02  0.58217996306E+02  0.63825200508E+02  0.00000000000E+00 0. -1.
         11    1    5    5    0    0  0.14033157361E+02  0.22018632636E+02  0.79408574847E+02  0.83591096703E+02  0.00000000000E+00 0. -1.
        -12    1    5    5    0    0  0.24722958298E+02 -0.25024746950E+02  0.73102370593E+03  0.73186960674E+03  0.00000000000E+00 0.  1.
          5    1    4    4  501    0  0.18852831722E+02  0.67051339791E+02  0.12092066536E+03  0.13960870726E+03  0.41800000000E+01 0. -1.
         -5    1    4    4    0  501 -0.30377870851E+02 -0.39104347654E+02  0.20153768230E+03  0.20757378165E+03  0.41800000000E+01 0. -1.
</event>
<event>
11    1  0.7882745E-009  0.1794505E+03  0.7561462E-02  0.1070088E+00
         22   -1    0    0    0    0  0.00000000000E+00  0.00000000000E+00  0.61707590580E+03  0.61707590580E+03  0.00000000000E+00 0. -1.
         22   -1    0    0    0    0 -0.00000000000E+00 -0.00000000000E+00 -0.18763307906E+04  0.18763307906E+04  0.00000000000E+00 0.  1.
        -24    2    1    2    0    0 -0.72570126362E+02  0.10610491097E+03 -0.18233846077E+04  0.18298380307E+04  0.83970920572E+02 0.  0.
         25    2    1    2    0    0  0.75115636193E+02 -0.11213801672E+03  0.13924653076E+03  0.23077348315E+03  0.12509800400E+03 0.  0.
         24    2    1    2    0    0 -0.25455098310E+01  0.60331057447E+01  0.42488319216E+03  0.43279518256E+03  0.82116168182E+02 0.  0.
        -11    1    5    5    0    0 -0.29059310633E+01 -0.19656466998E+01 -0.31333006787E+01  0.47038043578E+01  0.00000000000E+00 0.  1.
         12    1    5    5    0    0  0.36042123236E+00  0.79987524445E+01  0.42801649284E+03  0.42809137820E+03  0.00000000000E+00 0. -1.
         11    1    3    3    0    0 -0.97759502425E+01  0.38767754313E+02 -0.20655114798E+03  0.21038508671E+03  0.00000000000E+00 0. -1.
        -12    1    3    3    0    0 -0.62794176119E+02  0.67337156659E+02 -0.16168334597E+04  0.16194529440E+04  0.00000000000E+00 0.  1.
          5    1    4    4  501    0 -0.32162184085E+02 -0.50900529108E+02  0.42553588645E+02  0.73848156749E+02  0.41800000000E+01 0.  1.
         -5    1    4    4    0  501  0.10727782028E+03 -0.61237487608E+02  0.96692942117E+02  0.15692532640E+03  0.41800000000E+01 0.  1.
</event>
<event>
11    1  0.7882745E-009  0.1449191E+03  0.7561462E-02  0.1102186E+00
         22   -1    0    0    0    0  0.00000000000E+00  0.00000000000E+00  0.46587491107E+03  0.46587491107E+03  0.00000000000E+00 0. -1.
         22   -1    0    0    0    0 -0.00000000000E+00 -0.00000000000E+00 -0.14009139482E+03  0.14009139482E+03  0.00000000000E+00 0.  1.
         24    2    1    2    0    0  0.67159065304E+02 -0.29345375975E+02 -0.82362226403E+02  0.12692810085E+03  0.62894477526E+02 0.  0.
         25    2    1    2    0    0 -0.79805767345E+02 -0.51326352662E+01  0.17521603573E+03  0.22966275637E+03  0.12509603527E+03 0.  0.
        -24    2    1    2    0    0  0.12646702041E+02  0.34478011242E+02  0.23292970692E+03  0.24937544867E+03  0.81136882485E+02 0.  0.
        -11    1    3    3    0    0  0.37429767047E+02  0.10641066377E+02 -0.61787924822E+02  0.73020321888E+02  0.00000000000E+00 0.  1.
         12    1    3    3    0    0  0.29729298257E+02 -0.39986442352E+02 -0.20574301581E+02  0.53907778960E+02  0.00000000000E+00 0. -1.
         11    1    5    5    0    0  0.51633203440E+01  0.54170556086E+02  0.92065478897E+02  0.10694466526E+03  0.00000000000E+00 0. -1.
        -12    1    5    5    0    0  0.74833816972E+01 -0.19692544844E+02  0.14086422802E+03  0.14243078340E+03  0.00000000000E+00 0.  1.
          5    1    4    4  501    0 -0.25096202236E+02 -0.31181037589E+02 -0.39924444881E+01  0.40441173138E+02  0.41800000000E+01 0.  1.
         -5    1    4    4    0  501 -0.54709565109E+02  0.26048402323E+02  0.17920848022E+03  0.18922158323E+03  0.41800000000E+01 0.  1.
</event>
<event>
11    1  0.7882745E-009  0.1893602E+03  0.7561462E-02  0.1062313E+00
         22   -1    0    0    0    0  0.00000000000E+00  0.00000000000E+00  0.30599314569E+03  0.30599314569E+03  0.00000000000E+00 0. -1.
         22   -1    0    0    0    0 -0.00000000000E+00 -0.00000000000E+00 -0.77062011491E+03  0.77062011491E+03  0.00000000000E+00 0.  1.
        -24    2    1    2    0    0  0.19785336314E+02 -0.14315180701E+03 -0.65352972935E+03  0.67423402785E+03  0.81280488294E+02 0.  0.
         25    2    1    2    0    0 -0.54891207642E+02  0.11628658468E+03 -0.13822360534E+02  0.17992925609E+03  0.12509142695E+03 0.  0.
         24    2    1    2    0    0  0.35105871328E+02  0.26865222332E+02  0.20272512067E+03  0.22244997666E+03  0.80201965031E+02 0.  0.
        -13    1    5    5    0    0 -0.51235897902E+01 -0.23127714175E+02  0.86523983480E+02  0.89708093573E+02  0.00000000000E+00 0.  1.
         14    1    5    5    0    0  0.40229461118E+02  0.49992936507E+02  0.11620113719E+03  0.13274188309E+03  0.00000000000E+00 0. -1.
         13    1    3    3    0    0  0.50185083075E+01 -0.15034728770E+02 -0.12027834487E+02  0.19897168072E+02  0.00000000000E+00 0. -1.
        -14    1    3    3    0    0  0.14766828006E+02 -0.12811707824E+03 -0.64150189486E+03  0.65433685978E+03  0.00000000000E+00 0.  1.
          5    1    4    4  501    0  0.21577949092E+02  0.34400990273E+02 -0.47720838748E+02  0.62799576986E+02  0.41800000000E+01 0.  1.
         -5    1    4    4    0  501 -0.76469156734E+02  0.81885594404E+02  0.33898478214E+02  0.11712967911E+03  0.41800000000E+01 0.  1.
</event>
<event>
11    1  0.7882745E-009  0.1389923E+03  0.7561462E-02  0.1108689E+00
         22   -1    0    0    0    0  0.00000000000E+00  0.00000000000E+00  0.63650953001E+03  0.63650953001E+03  0.00000000000E+00 0.  1.
         22   -1    0    0    0    0 -0.00000000000E+00 -0.00000000000E+00 -0.19788203231E+03  0.19788203231E+03  0.00000000000E+00 0.  1.
         24    2    1    2    0    0  0.45582756911E+02 -0.29121026301E+02 -0.11164846680E+03  0.14778567585E+03  0.80308181069E+02 0.  0.
         25    2    1    2    0    0 -0.93722357391E+02  0.31034218997E+02  0.35924459938E+02  0.16335585884E+03  0.12509023452E+03 0.  0.
        -24    2    1    2    0    0  0.48139600480E+02 -0.19131926960E+01  0.51435150456E+03  0.52325002763E+03  0.83138677699E+02 0.  0.
        -11    1    3    3    0    0  0.17111482548E+02  0.88326203125E+01 -0.95870463625E+02  0.97785294458E+02  0.00000000000E+00 0.  1.
         12    1    3    3    0    0  0.28471274363E+02 -0.37953646613E+02 -0.15778003179E+02  0.50000381392E+02  0.00000000000E+00 0. -1.
         13    1    5    5    0    0  0.25196043031E+02 -0.14960771391E+02  0.48595097147E+02  0.56746354348E+02  0.00000000000E+00 0. -1.
        -14    1    5    5    0    0  0.22943557449E+02  0.13047578695E+02  0.46575640741E+03  0.46650367328E+03  0.00000000000E+00 0.  1.
          5    1    4    4  501    0 -0.42556347652E+02  0.73475809938E+01  0.80440941284E+02  0.91396100063E+02  0.41800000000E+01 0. -1.
         -5    1    4    4    0  501 -0.51166009739E+02  0.23686638003E+02 -0.44516481346E+02  0.71959758782E+02  0.41800000000E+01 0. -1.
</event>
<event>
11    1  0.7882745E-009  0.1273138E+03  0.7561462E-02  0.1122614E+00
         22   -1    0    0    0    0  0.00000000000E+00  0.00000000000E+00  0.89553554082E+03  0.89553554082E+03  0.00000000000E+00 0.  1.
         22   -1    0    0    0    0 -0.00000000000E+00 -0.00000000000E+00 -0.47613209520E+03  0.47613209520E+03  0.00000000000E+00 0.  1.
        -24    2    1    2    0    0 -0.16772010677E+02 -0.32381517568E+02 -0.13220874371E+03  0.15928251774E+03  0.81005589455E+02 0.  0.
         25    2    1    2    0    0 -0.70434985374E+01  0.14979879186E+02 -0.31618842769E+03  0.34044358191E+03  0.12511076296E+03 0.  0.
         24    2    1    2    0    0  0.23815509214E+02  0.17401638382E+02  0.86780061702E+03  0.87194153636E+03  0.79587288149E+02 0.  0.
        -11    1    5    5    0    0  0.52453475832E+02  0.19629441911E+02  0.54887374628E+03  0.55172372749E+03  0.00000000000E+00 0.  1.
         12    1    5    5    0    0 -0.28637966618E+02 -0.22278035292E+01  0.31892687074E+03  0.32021780887E+03  0.00000000000E+00 0. -1.
         11    1    3    3    0    0 -0.13624279796E+02  0.26040254268E+02 -0.33749612353E+02  0.44752119238E+02  0.00000000000E+00 0. -1.
        -12    1    3    3    0    0 -0.31477308804E+01 -0.58421771836E+02 -0.98459131357E+02  0.11453039851E+03  0.00000000000E+00 0.  1.
          5    1    4    4  501    0  0.47022980928E+02 -0.21771344979E+02 -0.80553476247E+02  0.95872243809E+02  0.41800000000E+01 0.  1.
         -5    1    4    4    0  501 -0.54066479465E+02  0.36751224165E+02 -0.23563495145E+03  0.24457133810E+03  0.41800000000E+01 0.  1.
</event>
<event>
11    1  0.7882745E-009  0.1281082E+03  0.7561462E-02  0.1121615E+00
         22   -1    0    0    0    0  0.00000000000E+00  0.00000000000E+00  0.21787832694E+03  0.21787832694E+03  0.00000000000E+00 0.  1.
         22   -1    0    0    0    0 -0.00000000000E+00 -0.00000000000E+00 -0.77582453688E+03  0.77582453688E+03  0.00000000000E+00 0.  1.
         24    2    1    2    0    0  0.68872650831E+01  0.25609976786E+02 -0.70037122881E+03  0.70895856283E+03  0.10676647568E+03 0.  0.
         25    2    1    2    0    0 -0.34963698587E+02 -0.40815843779E+02  0.24146318487E+02  0.13827054208E+03  0.12508918733E+03 0.  0.
        -24    2    1    2    0    0  0.28076433504E+02  0.15205866993E+02  0.11827870038E+03  0.14647375892E+03  0.80282043948E+02 0.  0.
        -11    1    3    3    0    0 -0.24533826600E+02 -0.25288082159E+02 -0.45654509103E+03  0.45790262708E+03  0.00000000000E+00 0.  1.
         12    1    3    3    0    0  0.31421091683E+02  0.50898058945E+02 -0.24382613778E+03  0.25105593574E+03  0.00000000000E+00 0. -1.
         11    1    5    5    0    0 -0.21061206528E+02  0.24735452463E+02  0.68841607366E+02  0.76122164536E+02  0.00000000000E+00 0. -1.
        -12    1    5    5    0    0  0.49137640032E+02 -0.95295854703E+01  0.49437093013E+02  0.70351594387E+02  0.00000000000E+00 0.  1.
          5    1    4    4  501    0  0.26753301477E+02 -0.57120775400E+02  0.36677245148E+02  0.73083615358E+02  0.41800000000E+01 0. -1.
         -5    1    4    4    0  501 -0.61717000064E+02  0.16304931620E+02 -0.12530926661E+02  0.65186926719E+02  0.41800000000E+01 0. -1.
</event>
<event>
11    1  0.7882745E-009  0.1314221E+03  0.7561462E-02  0.1117534E+00
         22   -1    0    0    0    0  0.00000000000E+00  0.00000000000E+00  0.24089173086E+03  0.24089173086E+03  0.00000000000E+00 0. -1.
         22   -1    0    0    0    0 -0.00000000000E+00 -0.00000000000E+00 -0.20105250917E+04  0.20105250917E+04  0.00000000000E+00 0.  1.
        -24    2    1    2    0    0 -0.22925381092E+02 -0.33060700262E+02 -0.19536222730E+04  0.19555990521E+04  0.78160629998E+02 0.  0.
         25    2    1    2    0    0  0.37421176386E+02  0.32316360911E+02  0.62453107283E+02  0.14829878598E+03  0.12508975854E+03 0.  0.
         24    2    1    2    0    0 -0.14495795295E+02  0.74433935054E+00  0.12153580491E+03  0.14751898442E+03  0.82342071665E+02 0.  0.
        -11    1    5    5    0    0  0.27784763823E+02  0.71958106753E+01  0.14295672282E+02  0.32064607248E+02  0.00000000000E+00 0.  1.
         12    1    5    5    0    0 -0.42280559117E+02 -0.64514713247E+01  0.10724013263E+03  0.11545437717E+03  0.00000000000E+00 0. -1.
         11    1    3    3    0    0 -0.28906764234E+02 -0.24261061211E+01 -0.24793655516E+03  0.24962776768E+03  0.00000000000E+00 0. -1.
        -12    1    3    3    0    0  0.59813831419E+01 -0.30634594141E+02 -0.17056857178E+04  0.17059712844E+04  0.00000000000E+00 0.  1.
          5    1    4    4  501    0 -0.46225808469E+02  0.15304100280E+02  0.19126617085E+02  0.52481813375E+02  0.41800000000E+01 0. -1.
         -5    1    4    4    0  501  0.83646984856E+02  0.17012260632E+02  0.43326490198E+02  0.95816972610E+02  0.41800000000E+01 0. -1.
</event>
<event>
11    1  0.7882745E-009  0.1778225E+03  0.7561462E-02  0.1071418E+00
         22   -1    0    0    0    0  0.00000000000E+00  0.00000000000E+00  0.11121973185E+04  0.11121973185E+04  0.00000000000E+00 0.  1.
         22   -1    0    0    0    0 -0.00000000000E+00 -0.00000000000E+00 -0.39675958820E+03  0.39675958820E+03  0.00000000000E+00 0.  1.
         24    2    1    2    0    0  0.58174311025E+02 -0.46254555627E+02 -0.16460507891E+03  0.19720055423E+03  0.79180125056E+02 0.  0.
         25    2    1    2    0    0  0.39157477197E+02 -0.37344635611E+02 -0.18822559730E+03  0.23238312335E+03  0.12508041698E+03 0.  0.
        -24    2    1    2    0    0 -0.97331788222E+02  0.83599191238E+02  0.10682684065E+04  0.10793732291E+04  0.85946946621E+02 0.  0.
        -13    1    3    3    0    0  0.18548932982E+02 -0.62928961863E+02 -0.99559854125E+02  0.11923204984E+03  0.00000000000E+00 0.  1.
         14    1    3    3    0    0  0.39625378043E+02  0.16674406236E+02 -0.65045224787E+02  0.77968504385E+02  0.00000000000E+00 0. -1.
         11    1    5    5    0    0  0.10322468891E+02 -0.37882667609E+01  0.18120807310E+03  0.18154137293E+03  0.00000000000E+00 0. -1.
        -12    1    5    5    0    0 -0.10765425711E+03  0.87387457999E+02  0.88706033341E+03  0.89783185620E+03  0.00000000000E+00 0.  1.
          5    1    4    4  501    0 -0.16904425863E+02  0.36705584108E+02 -0.79862294995E+02  0.89601998194E+02  0.41800000000E+01 0. -1.
         -5    1    4    4    0  501  0.56061903060E+02 -0.74050219719E+02 -0.10836330230E+03  0.14278112516E+03  0.41800000000E+01 0. -1.
</event>
<event>
11    1  0.7882745E-009  0.2447650E+03  0.7561462E-02  0.1026726E+00
         22   -1    0    0    0    0  0.00000000000E+00  0.00000000000E+00  0.23139045167E+04  0.23139045167E+04  0.00000000000E+00 0. -1.
         22   -1    0    0    0    0 -0.00000000000E+00 -0.00000000000E+00 -0.47098354087E+03  0.47098354087E+03  0.00000000000E+00 0.  1.
         24    2    1    2    0    0 -0.92722982023E+02 -0.10276437911E+03 -0.39098815191E+03  0.42303720121E+03  0.83250643638E+02 0.  0.
         25    2    1    2    0    0 -0.12680061037E+03  0.10195135214E+03  0.12554804756E+03  0.24058549114E+03  0.12508634340E+03 0.  0.
        -24    2    1    2    0    0  0.21952359240E+03  0.81302696530E+00  0.21083610802E+04  0.21212653652E+04  0.79931449745E+02 0.  0.
        -13    1    3    3    0    0 -0.35838606451E+02 -0.98072292981E+02 -0.25648407441E+03  0.27692356488E+03  0.00000000000E+00 0.  1.
         14    1    3    3    0    0 -0.56884375572E+02 -0.46920861295E+01 -0.13450407750E+03  0.14611363633E+03  0.00000000000E+00 0. -1.
         11    1    5    5    0    0  0.22094406117E+03  0.70949218768E+01  0.19018736489E+04  0.19146775166E+04  0.00000000000E+00 0. -1.
        -12    1    5    5    0    0 -0.14204687747E+01 -0.62818949115E+01  0.20648743128E+03  0.20658784865E+03  0.00000000000E+00 0.  1.
          5    1    4    4  501    0 -0.63995975317E+02  0.80621132491E+02  0.52520485525E+01  0.10315186995E+03  0.41800000000E+01 0.  1.
         -5    1    4    4    0  501 -0.62804635056E+02  0.21330219654E+02  0.12029599901E+03  0.13743362119E+03  0.41800000000E+01 0.  1.
</event>
<event>
11    1  0.7882745E-009  0.1458116E+03  0.7561462E-02  0.1101237E+00
         22   -1    0    0    0    0  0.00000000000E+00  0.00000000000E+00  0.59897868694E+03  0.59897868694E+03  0.00000000000E+00 0.  1.
         22   -1    0    0    0    0 -0.00000000000E+00 -0.00000000000E+00 -0.90739816074E+02  0.90739816074E+02  0.00000000000E+00 0. -1.
         24    2    1    2    0    0 -0.19975540085E+02  0.24259424263E+02 -0.15046893156E+02  0.86215921576E+02  0.78862121911E+02 0.  0.
         25    2    1    2    0    0  0.52201401565E+02  0.45996730705E+02  0.12404482550E+03  0.18940282182E+03  0.12508247127E+03 0.  0.
        -24    2    1    2    0    0 -0.32225861480E+02 -0.70256154967E+02  0.39924093852E+03  0.41409975962E+03  0.78171928882E+02 0.  0.
        -11    1    3    3    0    0  0.31552743953E+01  0.27544905138E+02  0.26626634105E+02  0.38440280948E+02  0.00000000000E+00 0.  1.
         12    1    3    3    0    0 -0.23130814480E+02 -0.32854808751E+01 -0.41673527261E+02  0.47775640628E+02  0.00000000000E+00 0. -1.
         13    1    5    5    0    0  0.25587427286E+02 -0.25590604187E+02  0.11131285292E+03  0.11704762570E+03  0.00000000000E+00 0. -1.
        -14    1    5    5    0    0 -0.57813288766E+02 -0.44665550780E+02  0.28792808560E+03  0.29705213391E+03  0.00000000000E+00 0.  1.
          5    1    4    4  501    0  0.48963440649E+02  0.73066367239E+02  0.32610375476E+02  0.93898996429E+02  0.41800000000E+01 0.  1.
         -5    1    4    4    0  501  0.32379609158E+01 -0.27069636535E+02  0.91434450024E+02  0.95503825390E+02  0.41800000000E+01 0.  1.
</event>
<event>
11    1  0.7882745E-009  0.2923515E+03  0.7561462E-02  0.1003481E+00
         22   -1    0    0    0    0  0.00000000000E+00  0.00000000000E+00  0.22837108176E+03  0.22837108176E+03  0.00000000000E+00 0. -1.
         22   -1    0    0    0    0 -0.00000000000E+00 -0.00000000000E+00 -0.51764839265E+03  0.51764839265E+03  0.00000000000E+00 0.  1.
        -24    2    1    2    0    0 -0.41562401590E+02 -0.11462568543E+02 -0.10455853739E+03  0.13844666977E+03  0.79850916863E+02 0.  0.
         25    2    1    2    0    0 -0.10895919491E+03  0.23468122402E+03 -0.15095273311E+03  0.32462160405E+03  0.12508027470E+03 0.  0.
         24    2    1    2    0    0  0.15052159650E+03 -0.22321865548E+03 -0.33766040383E+02  0.28295120059E+03  0.80236632945E+02 0.  0.
        -13    1    5    5    0    0  0.89521841474E+02 -0.17170753771E+03 -0.53124830825E+02  0.20079812314E+03  0.00000000000E+00 0.  1.
         14    1    5    5    0    0  0.60999755030E+02 -0.51511117772E+02  0.19358790442E+02  0.82153077454E+02  0.00000000000E+00 0. -1.
         11    1    3    3    0    0 -0.53909792170E+02 -0.32879808090E+02 -0.89386041792E+02  0.10944044928E+03  0.00000000000E+00 0. -1.
        -12    1    3    3    0    0  0.12347390580E+02  0.21417239547E+02 -0.15172495602E+02  0.29006220484E+02  0.00000000000E+00 0.  1.
          5    1    4    4  501    0 -0.63057410980E+01  0.63317498550E+01 -0.55941671140E+02  0.56804897650E+02  0.41800000000E+01 0. -1.
         -5    1    4    4    0  501 -0.10265345382E+03  0.22834947417E+03 -0.95011061972E+02  0.26781670640E+03  0.41800000000E+01 0. -1.
</event>
<event>
11    1  0.7882745E-009  0.1579507E+03  0.7561462E-02  0.1089021E+00
         22   -1    0    0    0    0  0.00000000000E+00  0.00000000000E+00  0.20807679425E+04  0.20807679425E+04  0.00000000000E+00 0.  1.
         22   -1    0    0    0    0 -0.00000000000E+00 -0.00000000000E+00 -0.41389666894E+03  0.41389666894E+03  0.00000000000E+00 0. -1.
        -24    2    1    2    0    0  0.62181603977E+02 -0.57871925560E+02 -0.39011035839E+03  0.40870220200E+03  0.87382415615E+02 0.  0.
         25    2    1    2    0    0 -0.83617139728E+02 -0.43710915804E+02  0.51260563320E+03  0.53601962734E+03  0.12510010188E+03 0.  0.
         24    2    1    2    0    0  0.21435535750E+02  0.10158284136E+03  0.15443759988E+04  0.15499427821E+04  0.80292256303E+02 0.  0.
        -13    1    5    5    0    0  0.39313849417E+02  0.60604578027E+02  0.12604423581E+04  0.12625107650E+04  0.00000000000E+00 0.  1.
         14    1    5    5    0    0 -0.17878313666E+02  0.40978263337E+02  0.28393364064E+03  0.28743201710E+03  0.00000000000E+00 0. -1.
         13    1    3    3    0    0  0.36477386053E+02 -0.79517535466E+02 -0.26007915524E+03  0.27439898894E+03  0.00000000000E+00 0. -1.
        -14    1    3    3    0    0  0.25704217925E+02  0.21645609906E+02 -0.13003120315E+03  0.13430321306E+03  0.00000000000E+00 0.  1.
          5    1    4    4  501    0 -0.39326578426E+02 -0.73705110167E+02  0.17252539564E+03  0.19173290687E+03  0.41800000000E+01 0. -1.
         -5    1    4    4    0  501 -0.44290561302E+02  0.29994194363E+02  0.34008023756E+03  0.34428672047E+03  0.41800000000E+01 0. -1.
</event>
<event>
11    1  0.7882745E-009  0.1587764E+03  0.7561462E-02  0.1088234E+00
         22   -1    0    0    0    0  0.00000000000E+00  0.00000000000E+00  0.13024809071E+03  0.13024809071E+03  0.00000000000E+00 0. -1.
         22   -1    0    0    0    0 -0.00000000000E+00 -0.00000000000E+00 -0.75433276268E+03  0.75433276268E+03  0.00000000000E+00 0. -1.
         24    2    1    2    0    0  0.37266032930E+02 -0.52253289504E+02 -0.55807545541E+03  0.56726703660E+03  0.78895585447E+02 0.  0.
         25    2    1    2    0    0 -0.22768779344E+02  0.13523199769E+03 -0.75054558663E+02  0.20021595719E+03  0.12508849758E+03 0.  0.
        -24    2    1    2    0    0 -0.14497253586E+02 -0.82978708182E+02  0.90453421011E+01  0.11709785960E+03  0.80835970562E+02 0.  0.
        -13    1    3    3    0    0  0.36720534678E+02 -0.24310893655E+02 -0.11244865854E+03  0.12076472177E+03  0.00000000000E+00 0.  1.
         14    1    3    3    0    0  0.54549825190E+00 -0.27942395849E+02 -0.44562679687E+03  0.44650231483E+03  0.00000000000E+00 0. -1.
         11    1    5    5    0    0 -0.43488469595E+02 -0.72677834345E+02 -0.10966162376E+01  0.84702521568E+02  0.00000000000E+00 0. -1.
        -12    1    5    5    0    0  0.28991216009E+02 -0.10300873838E+02  0.10141958339E+02  0.32395338035E+02  0.00000000000E+00 0.  1.
          5    1    4    4  501    0 -0.12698543853E+02  0.82107744405E+02  0.24609170280E+02  0.86752627448E+02  0.41800000000E+01 0.  1.
         -5    1    4    4    0  501 -0.10070235491E+02  0.53124253281E+02 -0.99663728943E+02  0.11346332974E+03  0.41800000000E+01 0.  1.
</event>
<event>
11    1  0.7882745E-009  0.1648028E+03  0.7561462E-02  0.1082645E+00
         22   -1    0    0    0    0  0.00000000000E+00  0.00000000000E+00  0.56544392036E+03  0.56544392036E+03  0.00000000000E+00 0.  1.
         22   -1    0    0    0    0 -0.00000000000E+00 -0.00000000000E+00 -0.41533749662E+04  0.41533749662E+04  0.00000000000E+00 0.  1.
        -24    2    1    2    0    0  0.10386524906E+03 -0.48278945299E+02 -0.29773839638E+04  0.29806443475E+04  0.79414175872E+02 0.  0.
         25    2    1    2    0    0 -0.81483735850E+02  0.27189691977E+02 -0.11661356459E+04  0.11759671200E+04  0.12508974465E+03 0.  0.
         24    2    1    2    0    0 -0.22381513213E+02  0.21089253322E+02  0.55558856388E+03  0.56220741909E+03  0.80329577535E+02 0.  0.
        -13    1    5    5    0    0 -0.27697289388E+02 -0.56559078585E+01  0.49452142758E+03  0.49532875090E+03  0.00000000000E+00 0.  1.
         14    1    5    5    0    0  0.53157761744E+01  0.26745161180E+02  0.61067136293E+02  0.66878668183E+02  0.00000000000E+00 0. -1.
         11    1    3    3    0    0 -0.94557507181E+01  0.66496176707E+01 -0.14401798538E+03  0.14448117092E+03  0.00000000000E+00 0. -1.
        -12    1    3    3    0    0  0.11332099978E+03 -0.54928562970E+02 -0.28333659785E+04  0.28361631765E+04  0.00000000000E+00 0.  1.
          5    1    4    4  501    0 -0.53650808034E+02  0.94581750355E+01 -0.15613984475E+03  0.16542366758E+03  0.41800000000E+01 0. -1.
         -5    1    4    4    0  501 -0.27832927815E+02  0.17731516942E+02 -0.10099958011E+04  0.10105434524E+04  0.41800000000E+01 0. -1.
</event>
<event>
11    1  0.7882745E-009  0.1470431E+03  0.7561462E-02  0.1099939E+00
         22   -1    0    0    0    0  0.00000000000E+00  0.00000000000E+00  0.14456006379E+04  0.14456006379E+04  0.00000000000E+00 0.  1.
         22   -1    0    0    0    0 -0.00000000000E+00 -0.00000000000E+00 -0.37196826765E+03  0.37196826765E+03  0.00000000000E+00 0.  1.
         24    2    1    2    0    0 -0.20003844727E+02 -0.40162049108E+02 -0.34044706727E+03  0.35258286981E+03  0.79983313781E+02 0.  0.
         25    2    1    2    0    0 -0.59145936468E+02  0.30218199427E+02  0.19754546010E+03  0.24308330859E+03  0.12511556550E+03 0.  0.
        -24    2    1    2    0    0  0.79149781195E+02  0.99438496811E+01  0.12165339774E+04  0.12219027271E+04  0.82023096641E+02 0.  0.
        -11    1    3    3    0    0 -0.10938750617E+02 -0.14926967225E+02 -0.31523433071E+03  0.31577706357E+03  0.00000000000E+00 0.  1.
         12    1    3    3    0    0 -0.90650941107E+01 -0.25235081883E+02 -0.25212736554E+02  0.36805806246E+02  0.00000000000E+00 0. -1.
         11    1    5    5    0    0 -0.13788629165E+02 -0.10938569325E+02  0.27494290840E+03  0.27550568319E+03  0.00000000000E+00 0. -1.
        -12    1    5    5    0    0  0.92938410360E+02  0.20882419006E+02  0.94159106899E+03  0.94639704392E+03  0.00000000000E+00 0.  1.
          5    1    4    4  501    0 -0.77923548559E+01  0.11133843238E+02 -0.16683763037E+02  0.21920392526E+02  0.41800000000E+01 0.  1.
         -5    1    4    4    0  501 -0.51353581612E+02  0.19084356189E+02  0.21422922314E+03  0.22116291606E+03  0.41800000000E+01 0.  1.
</event>
<event>
11    1  0.7882745E-009  0.2072376E+03  0.7561462E-02  0.1049520E+00
         22   -1    0    0    0    0  0.00000000000E+00  0.00000000000E+00  0.92676386527E+03  0.92676386527E+03  0.00000000000E+00 0.  1.
         22   -1    0    0    0    0 -0.00000000000E+00 -0.00000000000E+00 -0.11535583634E+03  0.11535583634E+03  0.00000000000E+00 0.  1.
        -24    2    1    2    0    0 -0.13177593125E+02 -0.17448842328E+03  0.33964615178E+03  0.39599383470E+03  0.10407569305E+03 0.  0.
         25    2    1    2    0    0 -0.12708294930E+02  0.16189097553E+03  0.43594759460E+02  0.20956560462E+03  0.12508817238E+03 0.  0.
         24    2    1    2    0    0  0.25885888055E+02  0.12597447753E+02  0.42816711769E+03  0.43656026228E+03  0.80181089061E+02 0.  0.
        -11    1    5    5    0    0 -0.30508799079E+01 -0.13353463609E+02  0.33915841096E+03  0.33943489889E+03  0.00000000000E+00 0.  1.
         12    1    5    5    0    0  0.28936767963E+02  0.25950911362E+02  0.89008706728E+02  0.97125363392E+02  0.00000000000E+00 0. -1.
         13    1    3    3    0    0 -0.21252887854E+02  0.58257738579E+01  0.51040689802E+02  0.55594756035E+02  0.00000000000E+00 0. -1.
        -14    1    3    3    0    0  0.80752947288E+01 -0.18031419714E+03  0.28860546198E+03  0.34039907867E+03  0.00000000000E+00 0.  1.
          5    1    4    4  501    0  0.37603801768E+02  0.14008337053E+03  0.51573423425E+02  0.15399573699E+03  0.41800000000E+01 0. -1.
         -5    1    4    4    0  501 -0.50312096698E+02  0.21807604995E+02 -0.79786639652E+01  0.55569867630E+02  0.41800000000E+01 0. -1.
</event>
<event>
11    1  0.7882745E-009  0.1718319E+03  0.7561462E-02  0.1076448E+00
         22   -1    0    0    0    0  0.00000000000E+00  0.00000000000E+00  0.32033288444E+03  0.32033288444E+03  0.00000000000E+00 0. -1.
         22   -1    0    0    0    0 -0.00000000000E+00 -0.00000000000E+00 -0.29871712796E+04  0.29871712796E+04  0.00000000000E+00 0. -1.
         24    2    1    2    0    0  0.55215775277E+02 -0.10687965456E+03 -0.27637778185E+04  0.27675056763E+04  0.78407882978E+02 0.  0.
         25    2    1    2    0    0 -0.62922340978E+02  0.59325524540E+02 -0.18725063916E+03  0.24122146185E+03  0.12508498286E+03 0.  0.
        -24    2    1    2    0    0  0.77065657018E+01  0.47554130024E+02  0.28419006248E+03  0.29877702587E+03  0.78631629358E+02 0.  0.
        -13    1    3    3    0    0  0.26229905408E+02 -0.56862173295E+02 -0.66749518989E+03  0.67042609080E+03  0.00000000000E+00 0.  1.
         14    1    3    3    0    0  0.28985869869E+02 -0.50017481269E+02 -0.20962826286E+04  0.20970795855E+04  0.00000000000E+00 0. -1.
         13    1    5    5    0    0 -0.47009737219E+01 -0.10228424578E+02  0.16840727113E+03  0.16878308207E+03  0.00000000000E+00 0. -1.
        -14    1    5    5    0    0  0.12407539424E+02  0.57782554603E+02  0.11578279135E+03  0.12999394379E+03  0.00000000000E+00 0.  1.
          5    1    4    4  501    0 -0.90495121602E+02  0.54995640413E+02 -0.18462238331E+03  0.21287739269E+03  0.41800000000E+01 0.  1.
         -5    1    4    4    0  501  0.27572780623E+02  0.43298841266E+01 -0.26282558439E+01  0.28344069162E+02  0.41800000000E+01 0.  1.
</event>
<event>
11    1  0.7882745E-009  0.1921138E+03  0.7561462E-02  0.1060245E+00
         22   -1    0    0    0    0  0.00000000000E+00  0.00000000000E+00  0.29534205310E+03  0.29534205310E+03  0.00000000000E+00 0. -1.
         22   -1    0    0    0    0 -0.00000000000E+00 -0.00000000000E+00 -0.22862064944E+04  0.22862064944E+04  0.00000000000E+00 0. -1.
         24    2    1    2    0    0  0.12542478151E+03  0.77550789495E+02 -0.21243984984E+04  0.21310491191E+04  0.80968311224E+02 0.  0.
         25    2    1    2    0    0 -0.90415919475E+02 -0.82796258639E+02 -0.99733839031E+02  0.20155194359E+03  0.12508432506E+03 0.  0.
        -24    2    1    2    0    0 -0.35008862037E+02  0.52454691441E+01  0.23326789615E+03  0.24894748474E+03  0.79421681030E+02 0.  0.
        -11    1    3    3    0    0 -0.79535779456E+01 -0.20737902794E+01 -0.38143338861E+02  0.39018896803E+02  0.00000000000E+00 0.  1.
         12    1    3    3    0    0  0.13337835946E+03  0.79624579775E+02 -0.20862551595E+04  0.20920302223E+04  0.00000000000E+00 0. -1.
         11    1    5    5    0    0 -0.46527290547E+01  0.20344459457E+02  0.20120275599E+03  0.20228221359E+03  0.00000000000E+00 0. -1.
        -12    1    5    5    0    0 -0.30356132983E+02 -0.15098990312E+02  0.32065140166E+02  0.46665271155E+02  0.00000000000E+00 0.  1.
          5    1    4    4  501    0 -0.59052770698E+01 -0.69322304279E+02 -0.92145316795E+02  0.11553651360E+03  0.41800000000E+01 0.  1.
         -5    1    4    4    0  501 -0.84510642405E+02 -0.13473954360E+02 -0.75885222366E+01  0.86015429985E+02  0.41800000000E+01 0.  1.
</event>
<event>
11    1  0.7882745E-009  0.1500944E+03  0.7561462E-02  0.1096782E+00
         22   -1    0    0    0    0  0.00000000000E+00  0.00000000000E+00  0.14455322500E+04  0.14455322500E+04  0.00000000000E+00 0.  1.
         22   -1    0    0    0    0 -0.00000000000E+00 -0.00000000000E+00 -0.21073065904E+03  0.21073065904E+03  0.00000000000E+00 0. -1.
        -24    2    1    2    0    0  0.46457574802E+02  0.56618897110E+02 -0.64059975525E+02  0.12786700761E+03  0.82959540762E+02 0.  0.
         25    2    1    2    0    0 -0.58272673712E+02 -0.81677772750E+02 -0.56685688524E+02  0.17008232066E+03  0.12509102868E+03 0.  0.
         24    2    1    2    0    0  0.11815098911E+02  0.25058875640E+02  0.13555472550E+04  0.13583135807E+04  0.82096768187E+02 0.  0.
        -13    1    5    5    0    0 -0.27413399511E+02  0.11203517937E+02  0.98379227984E+03  0.98423790984E+03  0.00000000000E+00 0.  1.
         14    1    5    5    0    0  0.39228498421E+02  0.13855357703E+02  0.37175497513E+03  0.37407567090E+03  0.00000000000E+00 0. -1.
         11    1    3    3    0    0  0.70318662536E+02  0.38488927549E+02 -0.52071407463E+02  0.95590498063E+02  0.00000000000E+00 0. -1.
        -12    1    3    3    0    0 -0.23861087734E+02  0.18129969560E+02 -0.11988568062E+02  0.32276509543E+02  0.00000000000E+00 0.  1.
          5    1    4    4  501    0 -0.73611650774E+02 -0.38589174150E+02 -0.82680011191E+02  0.11730838053E+03  0.41800000000E+01 0.  1.
         -5    1    4    4    0  501  0.15338977062E+02 -0.43088598599E+02  0.25994322667E+02  0.52773940136E+02  0.41800000000E+01 0.  1.
</event>
<event>
11    1  0.7882745E-009  0.1378166E+03  0.7561462E-02  0.1110021E+00
         22   -1    0    0    0    0  0.00000000000E+00  0.00000000000E+00  0.30919068152E+03  0.30919068152E+03  0.00000000000E+00 0. -1.
         22   -1    0    0    0    0 -0.00000000000E+00 -0.00000000000E+00 -0.27856234380E+03  0.27856234380E+03  0.00000000000E+00 0. -1.
        -24    2    1    2    0    0  0.12952965711E+02 -0.54496610058E+02 -0.20341053849E+03  0.22776392365E+03  0.85807330204E+02 0.  0.
         25    2    1    2    0    0 -0.50408745689E+02  0.62807720769E+02  0.54125427224E+02  0.15831185929E+03  0.12508889435E+03 0.  0.
         24    2    1    2    0    0  0.37455779978E+02 -0.83111107109E+01  0.17991344898E+03  0.20167724239E+03  0.82661060707E+02 0.  0.
        -11    1    5    5    0    0  0.54822315542E+02 -0.18842322748E+02  0.74874366876E+02  0.94692609125E+02  0.00000000000E+00 0.  1.
         12    1    5    5    0    0 -0.17366535564E+02  0.10531212037E+02  0.10503908210E+03  0.10698463326E+03  0.00000000000E+00 0. -1.
         13    1    3    3    0    0 -0.63120005376E+01  0.50528765018E+01 -0.13422822659E+03  0.13447152013E+03  0.00000000000E+00 0. -1.
        -14    1    3    3    0    0  0.19264966249E+02 -0.59549486560E+02 -0.69182311897E+02  0.93292403515E+02  0.00000000000E+00 0.  1.
          5    1    4    4  501    0  0.27594378109E+02 -0.49968654899E+01 -0.16741096196E+02  0.32926510137E+02  0.41800000000E+01 0. -1.
         -5    1    4    4    0  501 -0.78003123798E+02  0.67804586259E+02  0.70866523419E+02  0.12538534915E+03  0.41800000000E+01 0. -1.
</event>
<event>
11    1  0.7882745E-009  0.1591059E+03  0.7561462E-02  0.1087921E+00
         22   -1    0    0    0    0  0.00000000000E+00  0.00000000000E+00  0.14422418432E+03  0.14422418432E+03  0.00000000000E+00 0.  1.
         22   -1    0    0    0    0 -0.00000000000E+00 -0.00000000000E+00 -0.33402804701E+04  0.33402804701E+04  0.00000000000E+00 0.  1.
         24    2    1    2    0    0 -0.34271278970E+00 -0.96828428912E+02 -0.30874044305E+04  0.30899722687E+04  0.80539687581E+02 0.  0.
         25    2    1    2    0    0 -0.46922317132E+01  0.14440856293E+03 -0.19093501300E+03  0.27014696762E+03  0.12508938739E+03 0.  0.
        -24    2    1    2    0    0  0.50349445029E+01 -0.47580134014E+02  0.82283157759E+02  0.12438541814E+03  0.80074929768E+02 0.  0.
        -11    1    3    3    0    0 -0.12555908041E+02 -0.10661423799E+03 -0.28690740991E+04  0.28710817530E+04  0.00000000000E+00 0.  1.
         12    1    3    3    0    0  0.12213195251E+02  0.97858090816E+01 -0.21833033147E+03  0.21889051564E+03  0.00000000000E+00 0. -1.
         11    1    5    5    0    0  0.35389500558E+02 -0.50028861034E+02  0.43868123098E+02  0.75363889963E+02  0.00000000000E+00 0. -1.
        -12    1    5    5    0    0 -0.30354556055E+02  0.24487270204E+01  0.38415034661E+02  0.49021528182E+02  0.00000000000E+00 0.  1.
          5    1    4    4  501    0 -0.31916211176E+02  0.13252626807E+03 -0.86520150781E+02  0.16150871541E+03  0.41800000000E+01 0.  1.
         -5    1    4    4    0  501  0.27223979463E+02  0.11882294859E+02 -0.10441486222E+03  0.10863825220E+03  0.41800000000E+01 0.  1.
</event>
<event>
11    1  0.7882745E-009  0.1935001E+03  0.7561462E-02  0.1059218E+00
         22   -1    0    0    0    0  0.00000000000E+00  0.00000000000E+00  0.19625088477E+04  0.19625088477E+04  0.00000000000E+00 0. -1.
         22   -1    0    0    0    0 -0.00000000000E+00 -0.00000000000E+00 -0.55490918286E+03  0.55490918286E+03  0.00000000000E+00 0.  1.
         24    2    1    2    0    0 -0.63513251759E+02  0.18867647146E+02 -0.52575106682E+03  0.53610414140E+03  0.81262198520E+02 0.  0.
         25    2    1    2    0    0  0.47496732492E+01 -0.15536758593E+03  0.50372881120E+03  0.54180407024E+03  0.12508912482E+03 0.  0.
        -24    2    1    2    0    0  0.58763578510E+02  0.13649993878E+03  0.14296219205E+04  0.14395098189E+04  0.79273525302E+02 0.  0.
        -11    1    3    3    0    0 -0.36878963333E+02  0.50369029035E+02 -0.35449877488E+03  0.35995343923E+03  0.00000000000E+00 0.  1.
         12    1    3    3    0    0 -0.26634288426E+02 -0.31501381889E+02 -0.17125229194E+03  0.17615070217E+03  0.00000000000E+00 0. -1.
         11    1    5    5    0    0  0.13234559349E+02  0.13105315385E+02  0.52968731804E+03  0.53001467691E+03  0.00000000000E+00 0. -1.
        -12    1    5    5    0    0  0.45529019161E+02  0.12339462340E+03  0.89993460246E+03  0.90949514203E+03  0.00000000000E+00 0.  1.
          5    1    4    4  501    0 -0.13505180871E+02 -0.45423185117E+02  0.34233393240E+03  0.34562356593E+03  0.41800000000E+01 0.  1.
         -5    1    4    4    0  501  0.18254854120E+02 -0.10994440081E+03  0.16139487880E+03  0.19618050431E+03  0.41800000000E+01 0.  1.
</event>
<event>
11    1  0.7882745E-009  0.2106587E+03  0.7561462E-02  0.1047232E+00
         22   -1    0    0    0    0  0.00000000000E+00  0.00000000000E+00  0.69239321672E+03  0.69239321672E+03  0.00000000000E+00 0. -1.
         22   -1    0    0    0    0 -0.00000000000E+00 -0.00000000000E+00 -0.20267784265E+03  0.20267784265E+03  0.00000000000E+00 0. -1.
        -24    2    1    2    0    0 -0.11997010662E+02 -0.46564151603E+02 -0.11317560244E+03  0.14674353200E+03  0.80079952031E+02 0.  0.
         25    2    1    2    0    0  0.10373520909E+03 -0.10614285125E+03  0.12231360544E+03  0.22942652006E+03  0.12509441057E+03 0.  0.
         24    2    1    2    0    0 -0.91738198424E+02  0.15270700285E+03  0.48057737107E+03  0.51890100732E+03  0.81045172845E+02 0.  0.
        -13    1    5    5    0    0 -0.13401963025E+02  0.10079738948E+03  0.24363997165E+03  0.26400788270E+03  0.00000000000E+00 0.  1.
         14    1    5    5    0    0 -0.78336235399E+02  0.51909613372E+02  0.23693739942E+03  0.25489312462E+03  0.00000000000E+00 0. -1.
         11    1    3    3    0    0 -0.10922032028E+02  0.12842647440E+02 -0.73234913227E+02  0.75150361890E+02  0.00000000000E+00 0. -1.
        -12    1    3    3    0    0 -0.10749786336E+01 -0.59406799043E+02 -0.39940689209E+02  0.71593170108E+02  0.00000000000E+00 0.  1.
          5    1    4    4  501    0  0.66952041551E+02 -0.59640573078E+02  0.14097647351E+03  0.16712693472E+03  0.41800000000E+01 0. -1.
         -5    1    4    4    0  501  0.36783167535E+02 -0.46502278172E+02 -0.18662868070E+02  0.62299585341E+02  0.41800000000E+01 0. -1.
</event>
<event>
11    1  0.7882745E-009  0.2156386E+03  0.7561462E-02  0.1043984E+00
         22   -1    0    0    0    0  0.00000000000E+00  0.00000000000E+00  0.72296514246E+03  0.72296514246E+03  0.00000000000E+00 0. -1.
         22   -1    0    0    0    0 -0.00000000000E+00 -0.00000000000E+00 -0.85080875779E+03  0.85080875779E+03  0.00000000000E+00 0.  1.
         24    2    1    2    0    0  0.15620971091E+03 -0.82132826698E+02 -0.79668051110E+03  0.81996876735E+03  0.80632919174E+02 0.  0.
         25    2    1    2    0    0 -0.17211891639E+03 -0.43267024213E+01  0.30983077166E+03  0.37588079389E+03  0.12509045692E+03 0.  0.
        -24    2    1    2    0    0  0.15909205482E+02  0.86459529120E+02  0.35900612411E+03  0.37792433902E+03  0.78822940043E+02 0.  0.
        -13    1    3    3    0    0  0.15866537132E+03 -0.72971001866E+02 -0.78796866736E+03  0.80708988837E+03  0.00000000000E+00 0.  1.
         14    1    3    3    0    0 -0.24556604103E+01 -0.91618248321E+01 -0.87118437357E+01  0.12878878972E+02  0.00000000000E+00 0. -1.
         13    1    5    5    0    0 -0.22915609118E+02  0.64958605975E+02  0.26746091620E+03  0.27618849963E+03  0.00000000000E+00 0. -1.
        -14    1    5    5    0    0  0.38824814600E+02  0.21500923145E+02  0.91545207910E+02  0.10173583939E+03  0.00000000000E+00 0.  1.
          5    1    4    4  501    0  0.11373362517E+02  0.57760187248E+01  0.82243662735E+02  0.83331916019E+02  0.41800000000E+01 0.  1.
         -5    1    4    4    0  501 -0.18349227891E+03 -0.10102721146E+02  0.22758710892E+03  0.29254887787E+03  0.41800000000E+01 0.  1.
</event>
<event>
11    1  0.7882745E-009  0.2483257E+03  0.7561462E-02  0.1024795E+00
         22   -1    0    0    0    0  0.00000000000E+00  0.00000000000E+00  0.88759606842E+03  0.88759606842E+03  0.00000000000E+00 0.  1.
         22   -1    0    0    0    0 -0.00000000000E+00 -0.00000000000E+00 -0.11730673916E+04  0.11730673916E+04  0.00000000000E+00 0.  1.
         24    2    1    2    0    0 -0.38970584474E+01 -0.84561325173E+02 -0.10452682221E+04  0.10517630954E+04  0.80337711093E+02 0.  0.
         25    2    1    2    0    0 -0.20549526124E+03  0.12137923010E+03  0.64177313950E+02  0.27698989787E+03  0.12507380225E+03 0.  0.
        -24    2    1    2    0    0  0.20939231968E+03 -0.36817904925E+02  0.69561958502E+03  0.73191046674E+03  0.81274981390E+02 0.  0.
        -13    1    3    3    0    0  0.14674499784E+01 -0.98110648190E+02 -0.78850638948E+03  0.79458805614E+03  0.00000000000E+00 0.  1.
         14    1    3    3    0    0 -0.53645084258E+01  0.13549323017E+02 -0.25676183264E+03  0.25717503924E+03  0.00000000000E+00 0. -1.
         13    1    5    5    0    0  0.11796740301E+03 -0.14646413427E+02  0.25481074423E+03  0.28117492949E+03  0.00000000000E+00 0. -1.
        -14    1    5    5    0    0  0.91424916676E+02 -0.22171491499E+02  0.44080884080E+03  0.45073553726E+03  0.00000000000E+00 0.  1.
          5    1    4    4  501    0  0.16677320111E+02  0.10084794917E+02 -0.13292871231E+01  0.19976874101E+02  0.41800000000E+01 0.  1.
         -5    1    4    4    0  501 -0.22217258135E+03  0.11129443518E+03  0.65506601073E+02  0.25701302377E+03  0.41800000000E+01 0.  1.
</event>
<event>
11    1  0.7882745E-009  0.1509138E+03  0.7561462E-02  0.1095949E+00
         22   -1    0    0    0    0  0.00000000000E+00  0.00000000000E+00  0.15797307354E+04  0.15797307354E+04  0.00000000000E+00 0. -1.
         22   -1    0    0    0    0 -0.00000000000E+00 -0.00000000000E+00 -0.21845148934E+03  0.21845148934E+03  0.00000000000E+00 0. -1.
         24    2    1    2    0    0 -0.23396727930E+02  0.72410710752E+02 -0.15926013934E+03  0.19369474463E+03  0.79769318705E+02 0.  0.
         25    2    1    2    0    0 -0.52269954938E+02 -0.10824247071E+03  0.15099410315E+03  0.22999144226E+03  0.12509302007E+03 0.  0.
        -24    2    1    2    0    0  0.75666682868E+02  0.35831759960E+02  0.13695452823E+04  0.13744960379E+04  0.81090788675E+02 0.  0.
        -13    1    3    3    0    0 -0.35654762289E+02  0.65436062395E+02 -0.66525694424E+02  0.99893985576E+02  0.00000000000E+00 0.  1.
         14    1    3    3    0    0  0.12258034359E+02  0.69746483568E+01 -0.92734444912E+02  0.93800759054E+02  0.00000000000E+00 0. -1.
         13    1    5    5    0    0  0.60934361175E+02  0.56735069769E+02  0.12149923244E+04  0.12178416206E+04  0.00000000000E+00 0. -1.
        -14    1    5    5    0    0  0.14732321693E+02 -0.20903309809E+02  0.15455295792E+03  0.15665441732E+03  0.00000000000E+00 0.  1.
          5    1    4    4  501    0 -0.44824946070E+00 -0.63092941134E+02 -0.87741621885E+00  0.63238931108E+02  0.41800000000E+01 0.  1.
         -5    1    4    4    0  501 -0.51821705477E+02 -0.45149529578E+02  0.15187151937E+03  0.16675251115E+03  0.41800000000E+01 0.  1.
</event>
<event>
11    1  0.7882745E-009  0.1753603E+03  0.7561462E-02  0.1073459E+00
         22   -1    0    0    0    0  0.00000000000E+00  0.00000000000E+00  0.33347718141E+03  0.33347718141E+03  0.00000000000E+00 0.  1.
         22   -1    0    0    0    0 -0.00000000000E+00 -0.00000000000E+00 -0.79637160745E+03  0.79637160745E+03  0.00000000000E+00 0.  1.
        -24    2    1    2    0    0  0.22829815080E+02 -0.52719253154E+02 -0.68671145871E+03  0.69374868022E+03  0.80087974628E+02 0.  0.
         25    2    1    2    0    0 -0.80097335532E+02  0.14698618971E+03  0.49387040178E+02  0.21472639017E+03  0.12509124578E+03 0.  0.
         24    2    1    2    0    0  0.57267520452E+02 -0.94266936561E+02  0.17442999249E+03  0.22137371847E+03  0.80091676999E+02 0.  0.
        -11    1    5    5    0    0  0.40649171290E+02 -0.10336989808E+03  0.11895180569E+03  0.16274895708E+03  0.00000000000E+00 0.  1.
         12    1    5    5    0    0  0.16618349162E+02  0.91029615203E+01  0.55478186800E+02  0.58624761390E+02  0.00000000000E+00 0. -1.
         11    1    3    3    0    0 -0.12914762546E+02 -0.19384001153E+02 -0.50624685506E+03  0.50678240780E+03  0.00000000000E+00 0. -1.
        -12    1    3    3    0    0  0.35744577626E+02 -0.33335252000E+02 -0.18046460364E+03  0.18696627242E+03  0.00000000000E+00 0.  1.
          5    1    4    4  501    0  0.23453542445E+02 -0.45870242816E+01 -0.11341341207E+01  0.24287200439E+02  0.41800000000E+01 0. -1.
         -5    1    4    4    0  501 -0.10355087798E+03  0.15157321400E+03  0.50521174299E+02  0.19043918973E+03  0.41800000000E+01 0. -1.
</event>
<event>
11    1  0.7882745E-009  0.2103229E+03  0.7561462E-02  0.1047455E+00
         22   -1    0    0    0    0  0.00000000000E+00  0.00000000000E+00  0.66739687261E+03  0.66739687261E+03  0.00000000000E+00 0.  1.
         22   -1    0    0    0    0 -0.00000000000E+00 -0.00000000000E+00 -0.10643341934E+04  0.10643341934E+04  0.00000000000E+00 0.  1.
         24    2    1    2    0    0 -0.29588673506E+02  0.12885138555E+03 -0.96721430319E+03  0.97998238778E+03  0.85929057423E+02 0.  0.
         25    2    1    2    0    0  0.46900573698E+02  0.65714590210E+02  0.57296469658E+01  0.14899007374E+03  0.12508853681E+03 0.  0.
        -24    2    1    2    0    0 -0.17311900192E+02 -0.19456597576E+03  0.56454733544E+03  0.60275860447E+03  0.80303303133E+02 0.  0.
        -13    1    3    3    0    0  0.16604172443E+02  0.50650688004E+02 -0.57142486832E+03  0.57390554177E+03  0.00000000000E+00 0.  1.
         14    1    3    3    0    0 -0.46192845949E+02  0.78200697550E+02 -0.39578943487E+03  0.40607684601E+03  0.00000000000E+00 0. -1.
         13    1    5    5    0    0  0.22606550683E+02 -0.14048721246E+03  0.34628782328E+03  0.37438345256E+03  0.00000000000E+00 0. -1.
        -14    1    5    5    0    0 -0.39918450874E+02 -0.54078763305E+02  0.21825951216E+03  0.22837515191E+03  0.00000000000E+00 0.  1.
          5    1    4    4  501    0  0.33086725354E+02 -0.33988264890E+02 -0.39682516093E+01  0.47782349939E+02  0.41800000000E+01 0. -1.
         -5    1    4    4    0  501  0.13813848344E+02  0.99702855100E+02  0.96978985751E+01  0.10120772381E+03  0.41800000000E+01 0. -1.
</event>
<event>
11    1  0.7882745E-009  0.2896298E+03  0.7561462E-02  0.1004678E+00
         22   -1    0    0    0    0  0.00000000000E+00  0.00000000000E+00  0.73515436493E+03  0.73515436493E+03  0.00000000000E+00 0. -1.
         22   -1    0    0    0    0 -0.00000000000E+00 -0.00000000000E+00 -0.40408231863E+03  0.40408231863E+03  0.00000000000E+00 0.  1.
         24    2    1    2    0    0  0.22756183996E+02 -0.23315487599E+02 -0.28604111940E+03  0.29892746797E+03  0.80477656817E+02 0.  0.
         25    2    1    2    0    0  0.23530543800E+03  0.93630931091E+02  0.23784299318E+03  0.36925862449E+03  0.12508893614E+03 0.  0.
        -24    2    1    2    0    0 -0.25806162199E+03 -0.70315443491E+02  0.37927017252E+03  0.47105059110E+03  0.80639526722E+02 0.  0.
        -11    1    3    3    0    0  0.27992561422E+02  0.17443261938E+02 -0.20923893278E+03  0.21182252447E+03  0.00000000000E+00 0.  1.
         12    1    3    3    0    0 -0.52363774256E+01 -0.40758749537E+02 -0.76802186621E+02  0.87104943499E+02  0.00000000000E+00 0. -1.
         13    1    5    5    0    0 -0.14684300665E+03 -0.70005075654E+02  0.26945137213E+03  0.31475009319E+03  0.00000000000E+00 0. -1.
        -14    1    5    5    0    0 -0.11121861534E+03 -0.31036783706E+00  0.10981880039E+03  0.15630049790E+03  0.00000000000E+00 0.  1.
          5    1    4    4  501    0  0.24516194873E+03  0.71309895321E+02  0.22891603597E+03  0.34294242403E+03  0.41800000000E+01 0.  1.
         -5    1    4    4    0  501 -0.98565107274E+01  0.22321035769E+02  0.89269572076E+01  0.26316200458E+02  0.41800000000E+01 0.  1.
</event>
<event>
11    1  0.7882745E-009  0.1811028E+03  0.7561462E-02  0.1068754E+00
         22   -1    0    0    0    0  0.00000000000E+00  0.00000000000E+00  0.72896393740E+03  0.72896393740E+03  0.00000000000E+00 0.  1.
         22   -1    0    0    0    0 -0.00000000000E+00 -0.00000000000E+00 -0.21982809897E+03  0.21982809897E+03  0.00000000000E+00 0.  1.
         24    2    1    2    0    0 -0.12543536397E+03  0.89768442918E+02 -0.53399684684E+02  0.18305129102E+03  0.82848324921E+02 0.  0.
         25    2    1    2    0    0  0.82988727595E+02 -0.66557929847E+02 -0.29446970547E+02  0.16682846520E+03  0.12509007072E+03 0.  0.
        -24    2    1    2    0    0  0.42446636375E+02 -0.23210513071E+02  0.59198249367E+03  0.59891228015E+03  0.76890842450E+02 0.  0.
        -11    1    3    3    0    0 -0.40260300820E+02 -0.12164584519E+02 -0.16577957434E+02  0.45207273877E+02  0.00000000000E+00 0.  1.
         12    1    3    3    0    0 -0.85175063150E+02  0.10193302744E+03 -0.36821727249E+02  0.13784401715E+03  0.00000000000E+00 0. -1.
         11    1    5    5    0    0  0.39081841670E+02  0.20430938693E+02  0.22104533386E+03  0.22540153776E+03  0.00000000000E+00 0. -1.
        -12    1    5    5    0    0  0.33647947049E+01 -0.43641451764E+02  0.37093715981E+03  0.37351074239E+03  0.00000000000E+00 0.  1.
          5    1    4    4  501    0  0.10528234363E+02 -0.86237886224E+02 -0.28804004855E+02  0.91624013419E+02  0.41800000000E+01 0.  1.
         -5    1    4    4    0  501  0.72460493232E+02  0.19679956377E+02 -0.64296569137E+00  0.75204451778E+02  0.41800000000E+01 0.  1.
</event>
<event>
11    1  0.7882745E-009  0.1907472E+03  0.7561462E-02  0.1061267E+00
         22   -1    0    0    0    0  0.00000000000E+00  0.00000000000E+00  0.62911797657E+03  0.62911797657E+03  0.00000000000E+00 0. -1.
         22   -1    0    0    0    0 -0.00000000000E+00 -0.00000000000E+00 -0.55118236508E+03  0.55118236508E+03  0.00000000000E+00 0.  1.
        -24    2    1    2    0    0  0.96491423741E+02 -0.11717844794E+03 -0.48763738414E+03  0.51721724585E+03  0.81743975142E+02 0.  0.
         25    2    1    2    0    0 -0.53979407899E+02  0.55315683766E+02  0.84574137321E+02  0.16963078354E+03  0.12509283222E+03 0.  0.
         24    2    1    2    0    0 -0.42512015842E+02  0.61862764174E+02  0.48099885831E+03  0.49345231227E+03  0.80628839175E+02 0.  0.
        -13    1    5    5    0    0 -0.27306547679E+02  0.16448039438E+02  0.46830910797E+02  0.56650858365E+02  0.00000000000E+00 0.  1.
         14    1    5    5    0    0 -0.15205468163E+02  0.45414724736E+02  0.43416794751E+03  0.43680145391E+03  0.00000000000E+00 0. -1.
         11    1    3    3    0    0  0.21955584958E+02 -0.73322919199E+02 -0.14650556029E+03  0.16529421462E+03  0.00000000000E+00 0. -1.
        -12    1    3    3    0    0  0.74535838783E+02 -0.43855528741E+02 -0.34113182386E+03  0.35192303123E+03  0.00000000000E+00 0.  1.
          5    1    4    4  501    0 -0.50834965932E+01 -0.32836252218E+01  0.92495415626E+02  0.92787383000E+02  0.41800000000E+01 0. -1.
         -5    1    4    4    0  501 -0.48895911305E+02  0.58599308988E+02 -0.79212783050E+01  0.76843400538E+02  0.41800000000E+01 0. -1.
</event>
<event>
11    1  0.7882745E-009  0.1311771E+03  0.7561462E-02  0.1117831E+00
         22   -1    0    0    0    0  0.00000000000E+00  0.00000000000E+00  0.60878976886E+03  0.60878976886E+03  0.00000000000E+00 0. -1.
         22   -1    0    0    0    0 -0.00000000000E+00 -0.00000000000E+00 -0.48339043491E+03  0.48339043491E+03  0.00000000000E+00 0.  1.
         24    2    1    2    0    0  0.39148199980E+02  0.21099426263E+01 -0.41326985612E+03  0.42274393950E+03  0.79896376551E+02 0.  0.
         25    2    1    2    0    0 -0.43423961759E+02 -0.82377703251E+01  0.81287986988E+01  0.13291743104E+03  0.12508982689E+03 0.  0.
        -24    2    1    2    0    0  0.42757617784E+01  0.61278276987E+01  0.53054039137E+03  0.53651883323E+03  0.79520557903E+02 0.  0.
        -11    1    3    3    0    0  0.29417008549E+02  0.35227555752E+02 -0.32033193293E+03  0.32360297948E+03  0.00000000000E+00 0.  1.
         12    1    3    3    0    0  0.97311914311E+01 -0.33117613126E+02 -0.92937923189E+02  0.99140960014E+02  0.00000000000E+00 0. -1.
         13    1    5    5    0    0 -0.50368329402E+01 -0.52782864728E+00  0.52251428442E+03  0.52253882699E+03  0.00000000000E+00 0. -1.
        -14    1    5    5    0    0  0.93125947186E+01  0.66556563460E+01  0.80261069472E+01  0.13980006242E+02  0.00000000000E+00 0.  1.
          5    1    4    4  501    0 -0.52990333684E+02  0.25330076673E+02 -0.41545065897E+02  0.72062841663E+02  0.41800000000E+01 0. -1.
         -5    1    4    4    0  501  0.95663719255E+01 -0.33567846998E+02  0.49673864596E+02  0.60854589373E+02  0.41800000000E+01 0. -1.
</event>
<event>
11    1  0.7882745E-009  0.2333580E+03  0.7561462E-02  0.1033158E+00
         22   -1    0    0    0    0  0.00000000000E+00  0.00000000000E+00  0.24745616882E+03  0.24745616882E+03  0.00000000000E+00 0.  1.
         22   -1    0    0    0    0 -0.00000000000E+00 -0.00000000000E+00 -0.49179722604E+03  0.49179722604E+03  0.00000000000E+00 0. -1.
        -24    2    1    2    0    0  0.18009854956E+03  0.21204062404E+02 -0.24796909580E+03  0.31737305175E+03  0.79698693149E+02 0.  0.
         25    2    1    2    0    0 -0.24029041162E+03 -0.25509980314E+02 -0.88130231371E+02  0.28601656751E+03  0.12509315806E+03 0.  0.
         24    2    1    2    0    0  0.60191862061E+02  0.43059179099E+01  0.91758269949E+02  0.13586377560E+03  0.79986150233E+02 0.  0.
        -11    1    5    5    0    0  0.41648674468E+02 -0.10391269161E+01  0.10466191716E+03  0.11264905136E+03  0.00000000000E+00 0.  1.
         12    1    5    5    0    0  0.18543187593E+02  0.53450448260E+01 -0.12903647207E+02  0.23214724240E+02  0.00000000000E+00 0. -1.
         13    1    3    3    0    0  0.15630161267E+03 -0.12459289415E+02 -0.19311181604E+03  0.24875208846E+03  0.00000000000E+00 0. -1.
        -14    1    3    3    0    0  0.23796936889E+02  0.33663351819E+02 -0.54857279760E+02  0.68620963296E+02  0.00000000000E+00 0.  1.
          5    1    4    4  501    0 -0.12805632728E+03 -0.75989934493E+02 -0.47844741871E+02  0.15645921138E+03  0.41800000000E+01 0. -1.
         -5    1    4    4    0  501 -0.11223408434E+03  0.50479954179E+02 -0.40285489500E+02  0.12955735612E+03  0.41800000000E+01 0. -1.
</event>
<event>
11    1  0.7882745E-009  0.1479677E+03  0.7561462E-02  0.1098974E+00
         22   -1    0    0    0    0  0.00000000000E+00  0.00000000000E+00  0.89622403887E+03  0.89622403887E+03  0.00000000000E+00 0.  1.
         22   -1    0    0    0    0 -0.00000000000E+00 -0.00000000000E+00 -0.78195931331E+02  0.78195931331E+02  0.00000000000E+00 0. -1.
         24    2    1    2    0    0 -0.40061865889E+02 -0.41577600208E+02  0.13138440451E+03  0.16690227357E+03  0.85210663878E+02 0.  0.
         25    2    1    2    0    0  0.52201634921E+02  0.79270626358E+02  0.50512222607E+02  0.16494816236E+03  0.12509024240E+03 0.  0.
        -24    2    1    2    0    0 -0.12139769032E+02 -0.37693026150E+02  0.63613148043E+03  0.64256953426E+03  0.81634599063E+02 0.  0.
        -11    1    3    3    0    0 -0.53547037147E+01  0.23546408679E+00 -0.12228907718E+02  0.13351946644E+02  0.00000000000E+00 0.  1.
         12    1    3    3    0    0 -0.34707162174E+02 -0.41813064295E+02  0.14361331222E+03  0.15355032693E+03  0.00000000000E+00 0. -1.
         11    1    5    5    0    0  0.95946560243E+01 -0.41735164491E+02  0.15155524666E+03  0.15748928271E+03  0.00000000000E+00 0. -1.
        -12    1    5    5    0    0 -0.21734425056E+02  0.40421383409E+01  0.48457623377E+03  0.48508025155E+03  0.00000000000E+00 0.  1.
          5    1    4    4  501    0  0.71297470511E+02  0.10353178229E+03  0.38225784074E+02  0.13145661723E+03  0.41800000000E+01 0. -1.
         -5    1    4    4    0  501 -0.19095835590E+02 -0.24261155928E+02  0.12286438533E+02  0.33491545137E+02  0.41800000000E+01 0. -1.
</event>
<event>
11    1  0.7882745E-009  0.1418713E+03  0.7561462E-02  0.1105487E+00
         22   -1    0    0    0    0  0.00000000000E+00  0.00000000000E+00  0.71577097202E+03  0.71577097202E+03  0.00000000000E+00 0. -1.
         22   -1    0    0    0    0 -0.00000000000E+00 -0.00000000000E+00 -0.92663428541E+02  0.92663428541E+02  0.00000000000E+00 0.  1.
        -24    2    1    2    0    0  0.73211570745E+01  0.63110788760E+02 -0.26156134824E+02  0.10257197852E+03  0.76159676923E+02 0.  0.
         25    2    1    2    0    0  0.17030889758E+01 -0.87234360968E+02  0.19491117660E+03  0.24748854298E+03  0.12508987927E+03 0.  0.
         24    2    1    2    0    0 -0.90242460503E+01  0.24123572208E+02  0.45435250170E+03  0.45837387906E+03  0.54836424538E+02 0.  0.
        -13    1    5    5    0    0  0.17185928294E+02  0.14575032857E+02  0.83927482697E+02  0.86900000380E+02  0.00000000000E+00 0.  1.
         14    1    5    5    0    0 -0.26210174345E+02  0.95485393511E+01  0.37042501900E+03  0.37147387868E+03  0.00000000000E+00 0. -1.
         13    1    3    3    0    0 -0.14498847689E+02  0.37121502636E+01  0.19470848595E+02  0.24558309976E+02  0.00000000000E+00 0. -1.
        -14    1    3    3    0    0  0.21820004763E+02  0.59398638496E+02 -0.45626983419E+02  0.78013668539E+02  0.00000000000E+00 0.  1.
          5    1    4    4  501    0  0.20163466027E+02  0.27062307839E+02  0.26671788308E+02  0.43217942562E+02  0.41800000000E+01 0. -1.
         -5    1    4    4    0  501 -0.18460377051E+02 -0.11429666881E+03  0.16823938830E+03  0.20427060042E+03  0.41800000000E+01 0. -1.
</event>
<event>
11    1  0.7882745E-009  0.2444834E+03  0.7561462E-02  0.1026880E+00
         22   -1    0    0    0    0  0.00000000000E+00  0.00000000000E+00  0.30544029697E+03  0.30544029697E+03  0.00000000000E+00 0. -1.
         22   -1    0    0    0    0 -0.00000000000E+00 -0.00000000000E+00 -0.53755970751E+03  0.53755970751E+03  0.00000000000E+00 0.  1.
         24    2    1    2    0    0  0.96677534205E+01 -0.10029006061E+01 -0.27897789145E+03  0.29061893300E+03  0.80846948237E+02 0.  0.
         25    2    1    2    0    0 -0.12981768086E+03  0.17154636951E+03 -0.11705659624E+03  0.27501119062E+03  0.12509245016E+03 0.  0.
        -24    2    1    2    0    0  0.12014992744E+03 -0.17054346890E+03  0.16391507714E+03  0.27736988086E+03  0.80900052176E+02 0.  0.
        -11    1    3    3    0    0  0.98027378247E+00 -0.20474444290E+02 -0.26344029805E+03  0.26423655016E+03  0.00000000000E+00 0.  1.
         12    1    3    3    0    0  0.86874796380E+01  0.19471543684E+02 -0.15537593400E+02  0.26382382845E+02  0.00000000000E+00 0. -1.
         11    1    5    5    0    0  0.63467471495E+02 -0.31562377121E+02  0.73671835944E+02  0.10223425551E+03  0.00000000000E+00 0. -1.
        -12    1    5    5    0    0  0.56682455947E+02 -0.13898109178E+03  0.90243241199E+02  0.17513562535E+03  0.00000000000E+00 0.  1.
          5    1    4    4  501    0 -0.12706557249E+03  0.13729492266E+03 -0.13981603675E+03  0.23358414337E+03  0.41800000000E+01 0.  1.
         -5    1    4    4    0  501 -0.27521083708E+01  0.34251446853E+02  0.22759440506E+02  0.41427047254E+02  0.41800000000E+01 0.  1.
</event>
<event>
11    1  0.7882745E-009  0.1515774E+03  0.7561462E-02  0.1095278E+00
         22   -1    0    0    0    0  0.00000000000E+00  0.00000000000E+00  0.32107168138E+03  0.32107168138E+03  0.00000000000E+00 0. -1.
         22   -1    0    0    0    0 -0.00000000000E+00 -0.00000000000E+00 -0.13073596847E+04  0.13073596847E+04  0.00000000000E+00 0. -1.
        -24    2    1    2    0    0 -0.32378691292E+01 -0.89778713540E+02 -0.11771250787E+04  0.11822885053E+04  0.64124548094E+02 0.  0.
         25    2    1    2    0    0 -0.37945455410E+01  0.28702104641E+02 -0.83667694015E+02  0.15325197577E+03  0.12509066979E+03 0.  0.
         24    2    1    2    0    0  0.70324146702E+01  0.61076608899E+02  0.27450476933E+03  0.29289088507E+03  0.81562216499E+02 0.  0.
        -11    1    5    5    0    0  0.27540272517E+02  0.64167489152E+01  0.28862744569E+02  0.40406673966E+02  0.00000000000E+00 0.  1.
         12    1    5    5    0    0 -0.20507857847E+02  0.54659859983E+02  0.24564202476E+03  0.25248421110E+03  0.00000000000E+00 0. -1.
         11    1    3    3    0    0  0.47479383985E+01 -0.51348362936E+02 -0.30874912430E+03  0.31302590795E+03  0.00000000000E+00 0. -1.
        -12    1    3    3    0    0 -0.79858075277E+01 -0.38430350604E+02 -0.86837595437E+03  0.86926259732E+03  0.00000000000E+00 0.  1.
          5    1    4    4  501    0 -0.30302603343E+02  0.81917436116E+01 -0.10740033701E+03  0.11197168045E+03  0.41800000000E+01 0.  1.
         -5    1    4    4    0  501  0.26508057802E+02  0.20510361030E+02  0.23732642999E+02  0.41280295320E+02  0.41800000000E+01 0.  1.
</event>
<event>
11    1  0.7882745E-009  0.1384649E+03  0.7561462E-02  0.1109285E+00
         22   -1    0    0    0    0  0.00000000000E+00  0.00000000000E+00  0.46440760963E+03  0.46440760963E+03  0.00000000000E+00 0.  1.
         22   -1    0    0    0    0 -0.00000000000E+00 -0.00000000000E+00 -0.22403065098E+04  0.22403065098E+04  0.00000000000E+00 0. -1.
        -24    2    1    2    0    0 -0.27811904369E+02  0.51380174726E+02 -0.20108664309E+04  0.20136592285E+04  0.88466157833E+02 0.  0.
         25    2    1    2    0    0  0.11910477586E+02 -0.79876873177E+02 -0.19915854595E+03  0.24866286098E+03  0.12508763991E+03 0.  0.
         24    2    1    2    0    0  0.15901426783E+02  0.28496698451E+02  0.43412607669E+03  0.44239202998E+03  0.78615141882E+02 0.  0.
        -13    1    5    5    0    0  0.55029802951E+00  0.38101423091E+02  0.41218891365E+03  0.41394652046E+03  0.00000000000E+00 0.  1.
         14    1    5    5    0    0  0.15351128753E+02 -0.96047246401E+01  0.21937163040E+02  0.28445509516E+02  0.00000000000E+00 0. -1.
         13    1    3    3    0    0  0.30827622865E+02  0.22735981292E+02 -0.96385509435E+03  0.96461593916E+03  0.00000000000E+00 0. -1.
        -14    1    3    3    0    0 -0.58639527234E+02  0.28644193434E+02 -0.10470113366E+04  0.10490432894E+04  0.00000000000E+00 0.  1.
          5    1    4    4  501    0  0.65609133351E+02 -0.54229481937E+02 -0.87965872053E+02  0.12247800675E+03  0.41800000000E+01 0.  1.
         -5    1    4    4    0  501 -0.53698655766E+02 -0.25647391241E+02 -0.11119267390E+03  0.12618485423E+03  0.41800000000E+01 0.  1.
</event>
<event>
11    1  0.7882745E-009  0.1568247E+03  0.7561462E-02  0.1090102E+00
         22   -1    0    0    0    0  0.00000000000E+00  0.00000000000E+00  0.18959441519E+03  0.18959441519E+03  0.00000000000E+00 0.  1.
         22   -1    0    0    0    0 -0.00000000000E+00 -0.00000000000E+00 -0.10335553426E+04  0.10335553426E+04  0.00000000000E+00 0.  1.
         24    2    1    2    0    0  0.30099123306E+02 -0.87172443478E+02 -0.71988927106E+03  0.73013946790E+03  0.79737618942E+02 0.  0.
         25    2    1    2    0    0 -0.63446045035E+02  0.88438491689E+02 -0.27353049029E+03  0.31986641562E+03  0.12509527281E+03 0.  0.
        -24    2    1    2    0    0  0.33346921730E+02 -0.12660482110E+01  0.14945883397E+03  0.17314387423E+03  0.80791324197E+02 0.  0.
        -13    1    3    3    0    0  0.15079028640E+01 -0.27667669946E+02 -0.49463109582E+03  0.49540659532E+03  0.00000000000E+00 0.  1.
         14    1    3    3    0    0  0.28591220442E+02 -0.59504773532E+02 -0.22525817524E+03  0.23473287259E+03  0.00000000000E+00 0. -1.
         13    1    5    5    0    0  0.37879274270E+02  0.25812475087E+01  0.18830456484E+02  0.42380282553E+02  0.00000000000E+00 0. -1.
        -14    1    5    5    0    0 -0.45323525404E+01 -0.38472957198E+01  0.13062837749E+03  0.13076359168E+03  0.00000000000E+00 0.  1.
          5    1    4    4  501    0 -0.72759387552E+02 -0.23135713803E+01 -0.14359877315E+03  0.16105080298E+03  0.41800000000E+01 0.  1.
         -5    1    4    4    0  501  0.93133425168E+01  0.90752063069E+02 -0.12993171714E+03  0.15881561264E+03  0.41800000000E+01 0.  1.
</event>
<event>
11    1  0.7882745E-009  0.2061247E+03  0.7561462E-02  0.1050275E+00
         22   -1    0    0    0    0  0.00000000000E+00  0.00000000000E+00  0.33923056101E+03  0.33923056101E+03  0.00000000000E+00 0. -1.
         22   -1    0    0    0    0 -0.00000000000E+00 -0.00000000000E+00 -0.55174884382E+03  0.55174884382E+03  0.00000000000E+00 0.  1.
         24    2    1    2    0    0 -0.29882349330E+02 -0.42511429516E+02 -0.37305413281E+03  0.38480811376E+03  0.78789098040E+02 0.  0.
         25    2    1    2    0    0  0.14722285107E+02  0.19800084931E+03 -0.41761166999E+02  0.23835790406E+03  0.12509761530E+03 0.  0.
        -24    2    1    2    0    0  0.15160064224E+02 -0.15548941979E+03  0.20229701699E+03  0.26781338702E+03  0.79957113296E+02 0.  0.
        -11    1    3    3    0    0  0.11798789161E+02 -0.19793139503E+02 -0.26926004711E+02  0.35439942534E+02  0.00000000000E+00 0.  1.
         12    1    3    3    0    0 -0.41681138492E+02 -0.22718290013E+02 -0.34612812809E+03  0.34936817122E+03  0.00000000000E+00 0. -1.
         11    1    5    5    0    0  0.42722978771E+00 -0.11230628590E+03  0.18974616147E+03  0.22049147414E+03  0.00000000000E+00 0. -1.
        -12    1    5    5    0    0  0.14732834436E+02 -0.43183133897E+02  0.12550855522E+02  0.47321912874E+02  0.00000000000E+00 0.  1.
          5    1    4    4  501    0  0.42915560647E+02  0.13991588380E+02 -0.24043238065E+02  0.51313347072E+02  0.41800000000E+01 0.  1.
         -5    1    4    4    0  501 -0.28193275540E+02  0.18400926093E+03 -0.17717928934E+02  0.18704455699E+03  0.41800000000E+01 0.  1.
</event>
<event>
11    1  0.7882745E-009  0.1831655E+03  0.7561462E-02  0.1067111E+00
         22   -1    0    0    0    0  0.00000000000E+00  0.00000000000E+00  0.47237303453E+03  0.47237303453E+03  0.00000000000E+00 0. -1.
         22   -1    0    0    0    0 -0.00000000000E+00 -0.00000000000E+00 -0.30441157740E+04  0.30441157740E+04  0.00000000000E+00 0. -1.
        -24    2    1    2    0    0  0.26860690131E+02  0.13034605472E+03 -0.28887625093E+04  0.28929183912E+04  0.79475731404E+02 0.  0.
         25    2    1    2    0    0  0.80800365564E+01 -0.16327178331E+03 -0.76101254092E+02  0.21945755492E+03  0.12508898961E+03 0.  0.
         24    2    1    2    0    0 -0.34940726687E+02  0.32925728588E+02  0.39312102396E+03  0.40411286246E+03  0.80362355278E+02 0.  0.
        -13    1    5    5    0    0 -0.18646694947E+02  0.24108230891E+02  0.38947831217E+02  0.49455430295E+02  0.00000000000E+00 0.  1.
         14    1    5    5    0    0 -0.16294031740E+02  0.88174976977E+01  0.35417319274E+03  0.35465743217E+03  0.00000000000E+00 0. -1.
         11    1    3    3    0    0 -0.21029310660E+02  0.81570335463E+02 -0.18431211005E+04  0.18450450788E+04  0.00000000000E+00 0. -1.
        -12    1    3    3    0    0  0.47890000791E+02  0.48775719258E+02 -0.10456414088E+04  0.10478733124E+04  0.00000000000E+00 0.  1.
          5    1    4    4  501    0  0.48778165323E+02 -0.13351318837E+03 -0.19490494273E+02  0.14353547522E+03  0.41800000000E+01 0.  1.
         -5    1    4    4    0  501 -0.40698128767E+02 -0.29758594940E+02 -0.56610759820E+02  0.75922079695E+02  0.41800000000E+01 0.  1.
</event>
<event>
11    1  0.7882745E-009  0.1460600E+03  0.7561462E-02  0.1100974E+00
         22   -1    0    0    0    0  0.00000000000E+00  0.00000000000E+00  0.34604894333E+03  0.34604894333E+03  0.00000000000E+00 0. -1.
         22   -1    0    0    0    0 -0.00000000000E+00 -0.00000000000E+00 -0.24357331415E+04  0.24357331415E+04  0.00000000000E+00 0.  1.
        -24    2    1    2    0    0 -0.16310286676E+02  0.16316588782E+02 -0.23708885844E+04  0.23723506913E+04  0.80017912705E+02 0.  0.
         25    2    1    2    0    0  0.16584435199E+02  0.62190490658E+02  0.44237184976E+02  0.14746909842E+03  0.12508999095E+03 0.  0.
         24    2    1    2    0    0 -0.27414852332E+00 -0.78507079440E+02  0.23696720125E+03  0.26196229512E+03  0.79418844846E+02 0.  0.
        -11    1    5    5    0    0 -0.15454809872E+02  0.10575127814E+02  0.22758481337E+02  0.29472579616E+02  0.00000000000E+00 0.  1.
         12    1    5    5    0    0  0.15180661349E+02 -0.89082207254E+02  0.21420871991E+03  0.23248971550E+03  0.00000000000E+00 0. -1.
         13    1    3    3    0    0 -0.10349767156E+02  0.36558057454E+01 -0.41711314356E+02  0.43131384642E+02  0.00000000000E+00 0. -1.
        -14    1    3    3    0    0 -0.59605195197E+01  0.12660783037E+02 -0.23291772700E+04  0.23292193066E+04  0.00000000000E+00 0.  1.
          5    1    4    4  501    0  0.18732208332E+02  0.18499146956E+02 -0.42538803364E+02  0.50200958743E+02  0.41800000000E+01 0.  1.
         -5    1    4    4    0  501 -0.21477731328E+01  0.43691343702E+02  0.86775988341E+02  0.97268139678E+02  0.41800000000E+01 0.  1.
</event>
<event>
11    1  0.7882745E-009  0.1703930E+03  0.7561462E-02  0.1077690E+00
         22   -1    0    0    0    0  0.00000000000E+00  0.00000000000E+00  0.18660978308E+03  0.18660978308E+03  0.00000000000E+00 0.  1.
         22   -1    0    0    0    0 -0.00000000000E+00 -0.00000000000E+00 -0.26579892513E+04  0.26579892513E+04  0.00000000000E+00 0.  1.
         24    2    1    2    0    0 -0.11293583537E+03  0.29428244195E+02 -0.24979864147E+04  0.25019928104E+04  0.80071037358E+02 0.  0.
         25    2    1    2    0    0  0.92957015984E+02 -0.17973500126E+02 -0.10355736503E+03  0.18797699216E+03  0.12508864137E+03 0.  0.
        -24    2    1    2    0    0  0.19978819390E+02 -0.11454744069E+02  0.13016431151E+03  0.15462923179E+03  0.80231458585E+02 0.  0.
        -13    1    3    3    0    0 -0.89875811548E+02  0.43641301473E+02 -0.22991350323E+04  0.23013048736E+04  0.00000000000E+00 0.  1.
         14    1    3    3    0    0 -0.23060023825E+02 -0.14213057278E+02 -0.19885138238E+03  0.20068793678E+03  0.00000000000E+00 0. -1.
         13    1    5    5    0    0  0.18881973769E+02  0.22777584307E+02  0.12564874162E+02  0.32143791670E+02  0.00000000000E+00 0. -1.
        -14    1    5    5    0    0  0.10968456208E+01 -0.34232328376E+02  0.11759943735E+03  0.12248544012E+03  0.00000000000E+00 0.  1.
          5    1    4    4  501    0  0.10011625929E+03  0.17684190600E+02 -0.30441203244E+02  0.10620798099E+03  0.41800000000E+01 0.  1.
         -5    1    4    4    0  501 -0.71592433023E+01 -0.35657690725E+02 -0.73116161789E+02  0.81769011167E+02  0.41800000000E+01 0.  1.
</event>
<event>
11    1  0.7882745E-009  0.1620011E+03  0.7561462E-02  0.1085210E+00
         22   -1    0    0    0    0  0.00000000000E+00  0.00000000000E+00  0.92529271279E+03  0.92529271279E+03  0.00000000000E+00 0. -1.
         22   -1    0    0    0    0 -0.00000000000E+00 -0.00000000000E+00 -0.11896392960E+03  0.11896392960E+03  0.00000000000E+00 0.  1.
        -24    2    1    2    0    0  0.29092962047E+01 -0.19733211403E+02 -0.70975756423E+02  0.11052207658E+03  0.82338980896E+02 0.  0.
         25    2    1    2    0    0  0.76571977177E+02  0.80998638116E+02  0.31347396910E+03  0.35543800960E+03  0.12508478046E+03 0.  0.
         24    2    1    2    0    0 -0.79481273382E+02 -0.61265426712E+02  0.56383057052E+03  0.57829655621E+03  0.80319794228E+02 0.  0.
        -13    1    5    5    0    0 -0.44216524714E+02 -0.24564127576E+02  0.10389966526E+03  0.11555794158E+03  0.00000000000E+00 0.  1.
         14    1    5    5    0    0 -0.35264748668E+02 -0.36701299136E+02  0.45993090526E+03  0.46273861463E+03  0.00000000000E+00 0. -1.
         13    1    3    3    0    0 -0.14459007143E+02 -0.44409452204E+02 -0.18998242392E+02  0.50420189870E+02  0.00000000000E+00 0. -1.
        -14    1    3    3    0    0  0.17368303347E+02  0.24676240800E+02 -0.51977514031E+02  0.60101886709E+02  0.00000000000E+00 0.  1.
          5    1    4    4  501    0  0.74980210329E+02  0.98874034485E+02  0.31330602040E+03  0.33701074383E+03  0.41800000000E+01 0.  1.
         -5    1    4    4    0  501  0.15917668484E+01 -0.17875396369E+02  0.16794869573E+00  0.18427265772E+02  0.41800000000E+01 0.  1.
</event>
<event>
11    1  0.7882745E-009  0.1546725E+03  0.7561462E-02  0.1092198E+00
         22   -1    0    0    0    0  0.00000000000E+00  0.00000000000E+00  0.13005153626E+04  0.13005153626E+04  0.00000000000E+00 0.  1.
         22   -1    0    0    0    0 -0.00000000000E+00 -0.00000000000E+00 -0.16521791308E+03  0.16521791308E+03  0.00000000000E+00 0.  1.
         24    2    1    2    0    0  0.32496898890E+02 -0.85534268883E+02 -0.11558090878E+03  0.16958840145E+03  0.83839846365E+02 0.  0.
         25    2    1    2    0    0 -0.94495697877E+02  0.52151538183E+02  0.32979344854E+03  0.36886240600E+03  0.12508611438E+03 0.  0.
        -24    2    1    2    0    0  0.61998798987E+02  0.33382730700E+02  0.92108490977E+03  0.92728246824E+03  0.80604634590E+02 0.  0.
        -11    1    3    3    0    0  0.55114987951E+02 -0.81210518959E+02 -0.10651955017E+03  0.14484206866E+03  0.00000000000E+00 0.  1.
         12    1    3    3    0    0 -0.22618089061E+02 -0.43237499236E+01 -0.90613586150E+01  0.24746332781E+02  0.00000000000E+00 0. -1.
         13    1    5    5    0    0 -0.18298150662E+02 -0.27539053713E+01  0.19564746109E+03  0.19652057232E+03  0.00000000000E+00 0. -1.
        -14    1    5    5    0    0  0.80296949649E+02  0.36136636071E+02  0.72543744867E+03  0.73076189592E+03  0.00000000000E+00 0.  1.
          5    1    4    4  501    0  0.25785307837E+02  0.33259522923E+02  0.67453598910E+02  0.79614938116E+02  0.41800000000E+01 0.  1.
         -5    1    4    4    0  501 -0.12028100571E+03  0.18892015260E+02  0.26233984963E+03  0.28924746789E+03  0.41800000000E+01 0.  1.
</event>
<event>
11    1  0.7882745E-009  0.1454767E+03  0.7561462E-02  0.1101592E+00
         22   -1    0    0    0    0  0.00000000000E+00  0.00000000000E+00  0.71921347086E+03  0.71921347086E+03  0.00000000000E+00 0. -1.
         22   -1    0    0    0    0 -0.00000000000E+00 -0.00000000000E+00 -0.89169832050E+03  0.89169832050E+03  0.00000000000E+00 0.  1.
        -24    2    1    2    0    0  0.28490719064E+02  0.67037832810E+02 -0.72481648512E+03  0.73278306115E+03  0.79412124483E+02 0.  0.
         25    2    1    2    0    0 -0.72023753297E+02 -0.64146644840E+02 -0.12104417558E+03  0.19900040989E+03  0.12508899876E+03 0.  0.
         24    2    1    2    0    0  0.43533034233E+02 -0.28911879698E+01  0.67337581107E+03  0.67912832032E+03  0.76660344975E+02 0.  0.
        -13    1    5    5    0    0  0.35134243750E+02 -0.36650920253E+02  0.31468152422E+03  0.31875094780E+03  0.00000000000E+00 0.  1.
         14    1    5    5    0    0  0.83987904824E+01  0.33759732283E+02  0.35869428685E+03  0.36037737252E+03  0.00000000000E+00 0. -1.
         13    1    3    3    0    0 -0.14413273433E+02  0.60947303499E+01 -0.36466634941E+03  0.36500196517E+03  0.00000000000E+00 0. -1.
        -14    1    3    3    0    0  0.42903992497E+02  0.60943102460E+02 -0.36015013571E+03  0.36778109598E+03  0.00000000000E+00 0.  1.
          5    1    4    4  501    0  0.10677867935E+01 -0.80797248533E+02 -0.78348747897E+02  0.11262918909E+03  0.41800000000E+01 0. -1.
         -5    1    4    4    0  501 -0.73091540090E+02  0.16650603693E+02 -0.42695427687E+02  0.86371220794E+02  0.41800000000E+01 0. -1.
</event>
<event>
11    1  0.7882745E-009  0.1315653E+03  0.7561462E-02  0.1117361E+00
         22   -1    0    0    0    0  0.00000000000E+00  0.00000000000E+00  0.34961462408E+02  0.34961462408E+02  0.00000000000E+00 0. -1.
         22   -1    0    0    0    0 -0.00000000000E+00 -0.00000000000E+00 -0.95828205233E+03  0.95828205233E+03  0.00000000000E+00 0. -1.
        -24    2    1    2    0    0  0.72122803387E+01  0.39247960917E+02 -0.53136064570E+03  0.53886324982E+03  0.80231208278E+02 0.  0.
         25    2    1    2    0    0 -0.11630924364E+02 -0.42331320894E+02 -0.32423138053E+03  0.35028616118E+03  0.12508871836E+03 0.  0.
         24    2    1    2    0    0  0.44186440250E+01  0.30833599769E+01 -0.67728563687E+02  0.10409410374E+03  0.78863125543E+02 0.  0.
        -11    1    5    5    0    0 -0.24050996063E+02 -0.69146161846E+01 -0.69499781211E+02  0.73868003336E+02  0.00000000000E+00 0.  1.
         12    1    5    5    0    0  0.28469640088E+02  0.99979761615E+01  0.17712175235E+01  0.30226100403E+02  0.00000000000E+00 0. -1.
         13    1    3    3    0    0 -0.30001852311E+02  0.23976234938E+02 -0.13176174109E+03  0.13724477184E+03  0.00000000000E+00 0. -1.
        -14    1    3    3    0    0  0.37214132649E+02  0.15271725979E+02 -0.39959890461E+03  0.40161847797E+03  0.00000000000E+00 0.  1.
          5    1    4    4  501    0 -0.19527960045E+02  0.18098812851E+02 -0.78642759659E+01  0.28075389340E+02  0.41800000000E+01 0.  1.
         -5    1    4    4    0  501  0.78970356817E+01 -0.60430133745E+02 -0.31636710457E+03  0.32221077184E+03  0.41800000000E+01 0.  1.
</event>
<event>
11    1  0.7882745E-009  0.2118373E+03  0.7561462E-02  0.1046455E+00
         22   -1    0    0    0    0  0.00000000000E+00  0.00000000000E+00  0.76919909009E+03  0.76919909009E+03  0.00000000000E+00 0.  1.
         22   -1    0    0    0    0 -0.00000000000E+00 -0.00000000000E+00 -0.13614444029E+04  0.13614444029E+04  0.00000000000E+00 0.  1.
        -24    2    1    2    0    0 -0.43971301434E+02 -0.51968116747E+02 -0.11295717464E+04  0.11345998666E+04  0.82160613942E+02 0.  0.
         25    2    1    2    0    0 -0.78220362275E+02 -0.72854443651E+02 -0.18557692233E+03  0.24801935365E+03  0.12509440694E+03 0.  0.
         24    2    1    2    0    0  0.12219166371E+03  0.12482256040E+03  0.72290335592E+03  0.74802427275E+03  0.80246971003E+02 0.  0.
        -13    1    5    5    0    0  0.75388328932E+02  0.89815463676E+02  0.60694931600E+03  0.61817286405E+03  0.00000000000E+00 0.  1.
         14    1    5    5    0    0  0.46803334777E+02  0.35007096723E+02  0.11595403992E+03  0.12985140870E+03  0.00000000000E+00 0. -1.
         11    1    3    3    0    0 -0.38061417298E+02  0.11800437163E+02 -0.31417592382E+03  0.31669296316E+03  0.00000000000E+00 0. -1.
        -12    1    3    3    0    0 -0.59098841364E+01 -0.63768553910E+02 -0.81539582260E+03  0.81790690345E+03  0.00000000000E+00 0.  1.
          5    1    4    4  501    0  0.31269366398E+02 -0.38166981191E+02 -0.59847513127E+02  0.77676823799E+02  0.41800000000E+01 0.  1.
         -5    1    4    4    0  501 -0.10948972867E+03 -0.34687462461E+02 -0.12572940920E+03  0.17034252985E+03  0.41800000000E+01 0.  1.
</event>
<event>
11    1  0.7882745E-009  0.1438660E+03  0.7561462E-02  0.1103317E+00
         22   -1    0    0    0    0  0.00000000000E+00  0.00000000000E+00  0.82963258756E+03  0.82963258756E+03  0.00000000000E+00 0.  1.
         22   -1    0    0    0    0 -0.00000000000E+00 -0.00000000000E+00 -0.83558441544E+03  0.83558441544E+03  0.00000000000E+00 0. -1.
        -24    2    1    2    0    0 -0.70457304562E+02  0.94274791200E+01 -0.80582808748E+03  0.81279302793E+03  0.78870086526E+02 0.  0.
         25    2    1    2    0    0  0.71508197017E+02 -0.13688294959E+02  0.19736150897E+03  0.24473073947E+03  0.12506309592E+03 0.  0.
         24    2    1    2    0    0 -0.10508924556E+01  0.42608158393E+01  0.60251475063E+03  0.60769323560E+03  0.79042930963E+02 0.  0.
        -11    1    5    5    0    0  0.34782342944E+02  0.11940364710E+02  0.18809015263E+03  0.19165147849E+03  0.00000000000E+00 0.  1.
         12    1    5    5    0    0 -0.35833235400E+02 -0.76795488705E+01  0.41442459800E+03  0.41604175711E+03  0.00000000000E+00 0. -1.
         13    1    3    3    0    0 -0.76622283645E+02 -0.16555520558E+02 -0.54648922564E+03  0.55208290442E+03  0.00000000000E+00 0. -1.
        -14    1    3    3    0    0  0.61649790837E+01  0.25982999678E+02 -0.25933886184E+03  0.26071012351E+03  0.00000000000E+00 0.  1.
          5    1    4    4  501    0  0.96988909184E+02  0.84250693218E+01  0.18398710570E+03  0.20819836157E+03  0.41800000000E+01 0. -1.
         -5    1    4    4    0  501 -0.25480712166E+02 -0.22113364281E+02  0.13374403271E+02  0.36532377902E+02  0.41800000000E+01 0. -1.
</event>
<event>
11    1  0.7882745E-009  0.1373888E+03  0.7561462E-02  0.1110510E+00
         22   -1    0    0    0    0  0.00000000000E+00  0.00000000000E+00  0.10086467538E+04  0.10086467538E+04  0.00000000000E+00 0.  1.
         22   -1    0    0    0    0 -0.00000000000E+00 -0.00000000000E+00 -0.14847152352E+03  0.14847152352E+03  0.00000000000E+00 0.  1.
         24    2    1    2    0    0 -0.54063844666E+02 -0.21348626655E+02 -0.96523902496E+02  0.13841668039E+03  0.80396831385E+02 0.  0.
         25    2    1    2    0    0  0.58023726817E+02 -0.26916546237E+02  0.14641313430E+03  0.20291131085E+03  0.12507973794E+03 0.  0.
        -24    2    1    2    0    0 -0.39598821508E+01  0.48265172892E+02  0.81028599851E+03  0.81579028609E+03  0.81272282651E+02 0.  0.
        -13    1    3    3    0    0 -0.65638582074E+02 -0.26586549708E+02 -0.10233205554E+03  0.12444724856E+03  0.00000000000E+00 0.  1.
         14    1    3    3    0    0  0.11574737408E+02  0.52379230528E+01  0.58081530437E+01  0.13969431834E+02  0.00000000000E+00 0. -1.
         11    1    5    5    0    0  0.25088481889E+02  0.17541696946E+02  0.10861783135E+03  0.11284935243E+03  0.00000000000E+00 0. -1.
        -12    1    5    5    0    0 -0.29048364040E+02  0.30723475946E+02  0.70166816715E+03  0.70294093367E+03  0.00000000000E+00 0.  1.
          5    1    4    4  501    0 -0.12479991935E+02 -0.60641356838E+02  0.59868598565E+02  0.86225552199E+02  0.41800000000E+01 0.  1.
         -5    1    4    4    0  501  0.70503718752E+02  0.33724810601E+02  0.86544535732E+02  0.11668575866E+03  0.41800000000E+01 0.  1.
</event>
<event>
11    1  0.7882745E-009  0.1773698E+03  0.7561462E-02  0.1071790E+00
         22   -1    0    0    0    0  0.00000000000E+00  0.00000000000E+00  0.12482966394E+04  0.12482966394E+04  0.00000000000E+00 0. -1.
         22   -1    0    0    0    0 -0.00000000000E+00 -0.00000000000E+00 -0.10892340501E+03  0.10892340501E+03  0.00000000000E+00 0. -1.
        -24    2    1    2    0    0  0.63282804586E+02 -0.12624881992E+03  0.17957670872E+02  0.16281189362E+03  0.79004790198E+02 0.  0.
         25    2    1    2    0    0 -0.51800444752E+01  0.99465680380E+02  0.15602730837E+03  0.22340619003E+03  0.12508217440E+03 0.  0.
         24    2    1    2    0    0 -0.58102760111E+02  0.26783139539E+02  0.96538825513E+03  0.97100196073E+03  0.82322884467E+02 0.  0.
        -11    1    5    5    0    0 -0.12609393551E+02 -0.56360525816E+01  0.22099382500E+02  0.26060402939E+02  0.00000000000E+00 0.  1.
         12    1    5    5    0    0 -0.45493366560E+02  0.32419192120E+02  0.94328887263E+03  0.94494155779E+03  0.00000000000E+00 0. -1.
         13    1    3    3    0    0  0.75253652481E+02 -0.12731183920E+03  0.23203194763E+02  0.14969904762E+03  0.00000000000E+00 0. -1.
        -14    1    3    3    0    0 -0.11970847895E+02  0.10630192792E+01 -0.52455238906E+01  0.13112845999E+02  0.00000000000E+00 0.  1.
          5    1    4    4  501    0 -0.40060457598E+02 -0.12794621015E+02  0.40616653054E+02  0.58615079077E+02  0.41800000000E+01 0.  1.
         -5    1    4    4    0  501  0.34880413123E+02  0.11226030139E+03  0.11541065531E+03  0.16479111095E+03  0.41800000000E+01 0.  1.
</event>
<event>
11    1  0.7882745E-009  0.1698468E+03  0.7561462E-02  0.1078165E+00
         22   -1    0    0    0    0  0.00000000000E+00  0.00000000000E+00  0.17222536017E+03  0.17222536017E+03  0.00000000000E+00 0. -1.
         22   -1    0    0    0    0 -0.00000000000E+00 -0.00000000000E+00 -0.40702684677E+04  0.40702684677E+04  0.00000000000E+00 0.  1.
         24    2    1    2    0    0  0.46576587042E+02  0.99540063157E+02 -0.23920511570E+04  0.23956629947E+04  0.72213875780E+02 0.  0.
         25    2    1    2    0    0 -0.70033278475E+01 -0.13597258619E+03 -0.16573541553E+04  0.16676354372E+04  0.12509022680E+03 0.  0.
        -24    2    1    2    0    0 -0.39573259195E+02  0.36432523029E+02  0.15136220468E+03  0.17919539596E+03  0.79417261034E+02 0.  0.
        -11    1    3    3    0    0 -0.16535676960E+02  0.39725013888E+02 -0.97216481276E+03  0.97311660581E+03  0.00000000000E+00 0.  1.
         12    1    3    3    0    0  0.63112264003E+02  0.59815049268E+02 -0.14198863442E+04  0.14225463889E+04  0.00000000000E+00 0. -1.
         11    1    5    5    0    0 -0.50277998963E+01  0.54204469996E+02  0.10821505440E+03  0.12113587964E+03  0.00000000000E+00 0. -1.
        -12    1    5    5    0    0 -0.34545459299E+02 -0.17771946967E+02  0.43147150281E+02  0.58059516314E+02  0.00000000000E+00 0.  1.
          5    1    4    4  501    0 -0.95753046486E+01 -0.14666874420E+03 -0.10583412239E+04  0.10685069142E+04  0.41800000000E+01 0.  1.
         -5    1    4    4    0  501  0.25719768011E+01  0.10696158014E+02 -0.59901293132E+03  0.59912852307E+03  0.41800000000E+01 0.  1.
</event>
<event>
11    1  0.7882745E-009  0.1663279E+03  0.7561462E-02  0.1081272E+00
         22   -1    0    0    0    0  0.00000000000E+00  0.00000000000E+00  0.14192100356E+04  0.14192100356E+04  0.00000000000E+00 0. -1.
         22   -1    0    0    0    0 -0.00000000000E+00 -0.00000000000E+00 -0.12335217271E+04  0.12335217271E+04  0.00000000000E+00 0.  1.
         24    2    1    2    0    0 -0.10612205634E+03  0.20662763105E+02 -0.11149951013E+04  0.11230873428E+04  0.80139023337E+02 0.  0.
         25    2    1    2    0    0  0.13531138346E+03 -0.28321828503E+02 -0.36284862277E+02  0.18993666093E+03  0.12509215592E+03 0.  0.
        -24    2    1    2    0    0 -0.29189327123E+02  0.76590653977E+01  0.13369682721E+04  0.13397077589E+04  0.80137634402E+02 0.  0.
        -11    1    3    3    0    0 -0.85362833018E+01  0.23956573402E+02 -0.47563699452E+03  0.47631642434E+03  0.00000000000E+00 0.  1.
         12    1    3    3    0    0 -0.97585773037E+02 -0.32938102965E+01 -0.63935810681E+03  0.64677091851E+03  0.00000000000E+00 0. -1.
         11    1    5    5    0    0 -0.45221150261E+02  0.13653558975E+02  0.12588696155E+04  0.12597555640E+04  0.00000000000E+00 0. -1.
        -12    1    5    5    0    0  0.16031823138E+02 -0.59944935773E+01  0.78098656610E+02  0.79952194908E+02  0.00000000000E+00 0.  1.
          5    1    4    4  501    0  0.15301137108E+03 -0.43351010580E+02 -0.44090919786E+02  0.16508564869E+03  0.41800000000E+01 0.  1.
         -5    1    4    4    0  501 -0.17699987616E+02  0.15029182077E+02  0.78060575094E+01  0.24851012240E+02  0.41800000000E+01 0.  1.
</event>
<event>
11    1  0.7882745E-009  0.2151066E+03  0.7561462E-02  0.1044327E+00
         22   -1    0    0    0    0  0.00000000000E+00  0.00000000000E+00  0.21822050427E+04  0.21822050427E+04  0.00000000000E+00 0. -1.
         22   -1    0    0    0    0 -0.00000000000E+00 -0.00000000000E+00 -0.26469248902E+04  0.26469248902E+04  0.00000000000E+00 0.  1.
         24    2    1    2    0    0 -0.44254238516E+02  0.49138405600E+02 -0.26174341392E+04  0.26196055735E+04  0.83659231983E+02 0.  0.
         25    2    1    2    0    0  0.13116017096E+03  0.10717543671E+03  0.46556514600E+03  0.51096814668E+03  0.12509187453E+03 0.  0.
        -24    2    1    2    0    0 -0.86905932448E+02 -0.15631384231E+03  0.16871491457E+04  0.16985562126E+04  0.81451268486E+02 0.  0.
        -11    1    3    3    0    0  0.52245743086E+01  0.27477351290E+01 -0.15537510260E+04  0.15537622396E+04  0.00000000000E+00 0.  1.
         12    1    3    3    0    0 -0.49478812825E+02  0.46390670471E+02 -0.10636831132E+04  0.10658433340E+04  0.00000000000E+00 0. -1.
         13    1    5    5    0    0 -0.37297995798E+02 -0.24326851516E+02  0.20865988960E+03  0.21335858484E+03  0.00000000000E+00 0. -1.
        -14    1    5    5    0    0 -0.49607936651E+02 -0.13198699080E+03  0.14784892561E+04  0.14851976278E+04  0.00000000000E+00 0.  1.
          5    1    4    4  501    0  0.15430252462E+02  0.65888382987E+02  0.28198994570E+03  0.29002616017E+03  0.41800000000E+01 0.  1.
         -5    1    4    4    0  501  0.11572991850E+03  0.41287053725E+02  0.18357520030E+03  0.22094198652E+03  0.41800000000E+01 0.  1.
</event>
<event>
11    1  0.7882745E-009  0.1460596E+03  0.7561462E-02  0.1100974E+00
         22   -1    0    0    0    0  0.00000000000E+00  0.00000000000E+00  0.25358367000E+04  0.25358367000E+04  0.00000000000E+00 0. -1.
         22   -1    0    0    0    0 -0.00000000000E+00 -0.00000000000E+00 -0.73706171945E+02  0.73706171945E+02  0.00000000000E+00 0.  1.
         24    2    1    2    0    0  0.63660688860E+02  0.39943607151E+02 -0.18641811767E+02  0.11164246697E+03  0.80426041964E+02 0.  0.
         25    2    1    2    0    0 -0.51662302934E+02 -0.66468144902E+02  0.74477702696E+03  0.75988668905E+03  0.12509177621E+03 0.  0.
        -24    2    1    2    0    0 -0.11998385927E+02  0.26524537751E+02  0.17359953129E+04  0.17380137159E+04  0.78513935770E+02 0.  0.
        -11    1    3    3    0    0  0.67348613688E+02  0.54714083668E+02  0.10165546063E+01  0.86778454126E+02  0.00000000000E+00 0.  1.
         12    1    3    3    0    0 -0.36879248273E+01 -0.14770476517E+02 -0.19658366373E+02  0.24864012840E+02  0.00000000000E+00 0. -1.
         11    1    5    5    0    0  0.99535025706E+01 -0.18708585663E+01  0.14120291817E+04  0.14120655021E+04  0.00000000000E+00 0. -1.
        -12    1    5    5    0    0 -0.21951888497E+02  0.28395396317E+02  0.32396613120E+03  0.32594821384E+03  0.00000000000E+00 0.  1.
          5    1    4    4  501    0 -0.80405047243E+02 -0.79493205929E+02  0.47754941773E+03  0.49076986479E+03  0.41800000000E+01 0.  1.
         -5    1    4    4    0  501  0.28742744309E+02  0.13025061028E+02  0.26722760923E+03  0.26911682426E+03  0.41800000000E+01 0.  1.
</event>
<event>
11    1  0.7882745E-009  0.1374041E+03  0.7561462E-02  0.1110492E+00
         22   -1    0    0    0    0  0.00000000000E+00  0.00000000000E+00  0.73239103410E+03  0.73239103410E+03  0.00000000000E+00 0.  1.
         22   -1    0    0    0    0 -0.00000000000E+00 -0.00000000000E+00 -0.79676577656E+03  0.79676577656E+03  0.00000000000E+00 0. -1.
        -24    2    1    2    0    0  0.42602228522E+02 -0.42077484048E+02 -0.75486202483E+03  0.76133566420E+03  0.78929414822E+02 0.  0.
         25    2    1    2    0    0  0.98992151863E+01  0.68236554313E+02  0.11406273131E+03  0.18278993597E+03  0.12509049609E+03 0.  0.
         24    2    1    2    0    0 -0.52501443708E+02 -0.26159070265E+02  0.57642455106E+03  0.58503121049E+03  0.80966385798E+02 0.  0.
        -11    1    5    5    0    0 -0.53727384736E+02 -0.46729833729E+01  0.54027877967E+03  0.54296374502E+03  0.00000000000E+00 0.  1.
         12    1    5    5    0    0  0.12259410275E+01 -0.21486086892E+02  0.36145771386E+02  0.42067465462E+02  0.00000000000E+00 0. -1.
         11    1    3    3    0    0  0.23356882551E+02 -0.54677083310E+02 -0.68922070331E+03  0.69178053259E+03  0.00000000000E+00 0. -1.
        -12    1    3    3    0    0  0.19245345970E+02  0.12599599262E+02 -0.65641321518E+02  0.69555131613E+02  0.00000000000E+00 0.  1.
          5    1    4    4  501    0  0.29828928218E+02  0.26301800498E+02 -0.17173775945E+02  0.43519658182E+02  0.41800000000E+01 0. -1.
         -5    1    4    4    0  501 -0.19929713032E+02  0.41934753815E+02  0.13123650725E+03  0.13927027779E+03  0.41800000000E+01 0. -1.
</event>
<event>
11    1  0.7882745E-009  0.1534166E+03  0.7561462E-02  0.1093438E+00
         22   -1    0    0    0    0  0.00000000000E+00  0.00000000000E+00  0.10996381393E+04  0.10996381393E+04  0.00000000000E+00 0. -1.
         22   -1    0    0    0    0 -0.00000000000E+00 -0.00000000000E+00 -0.75971536958E+03  0.75971536958E+03  0.00000000000E+00 0.  1.
         24    2    1    2    0    0 -0.78391821543E+02  0.22198763783E+02 -0.63833662760E+03  0.64844805046E+03  0.79832081395E+02 0.  0.
         25    2    1    2    0    0  0.16389354891E+03 -0.33531530271E+02 -0.15772039990E+02  0.20948358489E+03  0.12509658747E+03 0.  0.
        -24    2    1    2    0    0 -0.85501727363E+02  0.11332766488E+02  0.99403143731E+03  0.10014218735E+04  0.85488557472E+02 0.  0.
        -13    1    3    3    0    0 -0.39643275390E+02  0.36415863904E+02 -0.52638376082E+03  0.52912906562E+03  0.00000000000E+00 0.  1.
         14    1    3    3    0    0 -0.38748546154E+02 -0.14217100121E+02 -0.11195286678E+03  0.11931898485E+03  0.00000000000E+00 0. -1.
         11    1    5    5    0    0 -0.25154209671E+02  0.92697073081E+01  0.73329521565E+03  0.73378507414E+03  0.00000000000E+00 0. -1.
        -12    1    5    5    0    0 -0.60347517693E+02  0.20630591799E+01  0.26073622166E+03  0.26763679939E+03  0.00000000000E+00 0.  1.
          5    1    4    4  501    0  0.14324753788E+03 -0.50561242812E+02 -0.55170960662E+02  0.16167128281E+03  0.41800000000E+01 0. -1.
         -5    1    4    4    0  501  0.20646011023E+02  0.17029712541E+02  0.39398920671E+02  0.47812302082E+02  0.41800000000E+01 0. -1.
</event>
<event>
11    1  0.7882745E-009  0.2498928E+03  0.7561462E-02  0.1023956E+00
         22   -1    0    0    0    0  0.00000000000E+00  0.00000000000E+00  0.15615909432E+04  0.15615909432E+04  0.00000000000E+00 0.  1.
         22   -1    0    0    0    0 -0.00000000000E+00 -0.00000000000E+00 -0.23968442256E+03  0.23968442256E+03  0.00000000000E+00 0. -1.
        -24    2    1    2    0    0  0.91555248073E+02 -0.70355473225E+02 -0.11651825066E+03  0.18171073463E+03  0.78166695464E+02 0.  0.
         25    2    1    2    0    0 -0.22241661803E+03  0.22660619429E+03  0.28107131154E+03  0.44211600328E+03  0.12508380757E+03 0.  0.
         24    2    1    2    0    0  0.13086136996E+03 -0.15625072106E+03  0.11573534598E+04  0.11774486279E+04  0.73343400615E+02 0.  0.
        -11    1    5    5    0    0  0.75428530517E+02 -0.10345670106E+03  0.52072691842E+03  0.53623621267E+03  0.00000000000E+00 0.  1.
         12    1    5    5    0    0  0.55432839441E+02 -0.52794020006E+02  0.63662654137E+03  0.64121241521E+03  0.00000000000E+00 0. -1.
         13    1    3    3    0    0  0.26178961871E+02 -0.68375747866E+02 -0.71286895402E+02  0.10218807365E+03  0.00000000000E+00 0. -1.
        -14    1    3    3    0    0  0.65376286202E+02 -0.19797253590E+01 -0.45231355260E+02  0.79522660976E+02  0.00000000000E+00 0.  1.
          5    1    4    4  501    0 -0.71991757047E+02  0.14115545564E+03  0.18702464234E+03  0.24515987637E+03  0.41800000000E+01 0. -1.
         -5    1    4    4    0  501 -0.15042486098E+03  0.85450738647E+02  0.94046669197E+02  0.19695612690E+03  0.41800000000E+01 0. -1.
</event>
<event>
11    1  0.7882745E-009  0.1307732E+03  0.7561462E-02  0.1118323E+00
         22   -1    0    0    0    0  0.00000000000E+00  0.00000000000E+00  0.15732969644E+03  0.15732969644E+03  0.00000000000E+00 0. -1.
         22   -1    0    0    0    0 -0.00000000000E+00 -0.00000000000E+00 -0.10894902884E+04  0.10894902884E+04  0.00000000000E+00 0.  1.
        -24    2    1    2    0    0  0.31629087245E+02 -0.20601382461E+02 -0.99572340183E+03  0.99953466450E+03  0.78610663870E+02 0.  0.
         25    2    1    2    0    0 -0.35466998651E+02  0.39296696042E+02 -0.10972550545E+02  0.13626857276E+03  0.12508632517E+03 0.  0.
         24    2    1    2    0    0  0.38379114061E+01 -0.18695313581E+02  0.74535360425E+02  0.11101674758E+03  0.80030956352E+02 0.  0.
        -13    1    5    5    0    0  0.77073886197E+01 -0.49162264624E+02  0.34472498441E+02  0.60536643870E+02  0.00000000000E+00 0.  1.
         14    1    5    5    0    0 -0.38694772135E+01  0.30466951043E+02  0.40062861984E+02  0.50480103705E+02  0.00000000000E+00 0. -1.
         13    1    3    3    0    0 -0.18541794549E+02  0.60730590459E+01 -0.52981877634E+03  0.53017790972E+03  0.00000000000E+00 0. -1.
        -14    1    3    3    0    0  0.50170881793E+02 -0.26674441507E+02 -0.46590462549E+03  0.46935675478E+03  0.00000000000E+00 0.  1.
          5    1    4    4  501    0  0.24449949901E+02 -0.26138663272E+02 -0.28242321778E+02  0.45783522224E+02  0.41800000000E+01 0. -1.
         -5    1    4    4    0  501 -0.59916948552E+02  0.65435359313E+02  0.17269771233E+02  0.90485050537E+02  0.41800000000E+01 0. -1.
</event>
<event>
11    1  0.7882745E-009  0.1426539E+03  0.7561462E-02  0.1104631E+00
         22   -1    0    0    0    0  0.00000000000E+00  0.00000000000E+00  0.58541863633E+03  0.58541863633E+03  0.00000000000E+00 0. -1.
         22   -1    0    0    0    0 -0.00000000000E+00 -0.00000000000E+00 -0.11479914738E+04  0.11479914738E+04  0.00000000000E+00 0. -1.
        -24    2    1    2    0    0 -0.47334709119E+02  0.49372031937E+02 -0.10803908754E+04  0.10855653766E+04  0.80805760794E+02 0.  0.
         25    2    1    2    0    0  0.16882204062E+02 -0.86435207001E+02  0.36394160261E+02  0.15726022966E+03  0.12510072385E+03 0.  0.
         24    2    1    2    0    0  0.30452505057E+02  0.37063175065E+02  0.48142387764E+03  0.49058450392E+03  0.81259901029E+02 0.  0.
        -13    1    5    5    0    0 -0.18096349873E+02  0.25552914540E+02  0.77433917778E+02  0.83525091695E+02  0.00000000000E+00 0.  1.
         14    1    5    5    0    0  0.48548854929E+02  0.11510260524E+02  0.40398995986E+03  0.40705941222E+03  0.00000000000E+00 0. -1.
         13    1    3    3    0    0 -0.28108004890E+02  0.30844407824E+02 -0.99971838157E+03  0.10005889665E+04  0.00000000000E+00 0. -1.
        -14    1    3    3    0    0 -0.19226704229E+02  0.18527624112E+02 -0.80672493809E+02  0.84976410068E+02  0.00000000000E+00 0.  1.
          5    1    4    4  501    0  0.36972378646E+02  0.13419033331E+02 -0.15970790813E+02  0.42656368780E+02  0.41800000000E+01 0.  1.
         -5    1    4    4    0  501 -0.20090174584E+02 -0.99854240332E+02  0.52364951074E+02  0.11460386088E+03  0.41800000000E+01 0.  1.
</event>
<event>
11    1  0.7882745E-009  0.1409991E+03  0.7561462E-02  0.1106448E+00
         22   -1    0    0    0    0  0.00000000000E+00  0.00000000000E+00  0.22606248604E+03  0.22606248604E+03  0.00000000000E+00 0. -1.
         22   -1    0    0    0    0 -0.00000000000E+00 -0.00000000000E+00 -0.13973023640E+04  0.13973023640E+04  0.00000000000E+00 0. -1.
         24    2    1    2    0    0  0.26151623007E+02  0.55342499134E+02 -0.13239456687E+04  0.13277528283E+04  0.79678979869E+02 0.  0.
         25    2    1    2    0    0  0.46562854342E+02 -0.51153101808E+02  0.69167550061E+02  0.15879150620E+03  0.12508338511E+03 0.  0.
        -24    2    1    2    0    0 -0.72714477348E+02 -0.41893973253E+01  0.83538240678E+02  0.13682051552E+03  0.80226364402E+02 0.  0.
        -13    1    3    3    0    0  0.13010370721E+01  0.29643874578E+02 -0.13295891265E+03  0.13622967537E+03  0.00000000000E+00 0.  1.
         14    1    3    3    0    0  0.24850585935E+02  0.25698624556E+02 -0.11909867561E+04  0.11915231530E+04  0.00000000000E+00 0. -1.
         11    1    5    5    0    0 -0.46359864690E+02 -0.40356411705E+02  0.61457123368E+02  0.86918669068E+02  0.00000000000E+00 0. -1.
        -12    1    5    5    0    0 -0.26354612658E+02  0.36167014380E+02  0.22081117310E+02  0.49901846451E+02  0.00000000000E+00 0.  1.
          5    1    4    4  501    0  0.56239834475E+02 -0.62168113092E+02 -0.40204939386E+01  0.84032315443E+02  0.41800000000E+01 0. -1.
         -5    1    4    4    0  501 -0.96769801336E+01  0.11015011284E+02  0.73188043999E+02  0.74759190756E+02  0.41800000000E+01 0. -1.
</event>
<event>
11    1  0.7882745E-009  0.1350306E+03  0.7561462E-02  0.1113238E+00
         22   -1    0    0    0    0  0.00000000000E+00  0.00000000000E+00  0.32198401213E+03  0.32198401213E+03  0.00000000000E+00 0.  1.
         22   -1    0    0    0    0 -0.00000000000E+00 -0.00000000000E+00 -0.72275057453E+03  0.72275057453E+03  0.00000000000E+00 0. -1.
        -24    2    1    2    0    0  0.38500714905E+02  0.11942277109E+02 -0.56527083687E+03  0.57276040554E+03  0.83056848619E+02 0.  0.
         25    2    1    2    0    0  0.40906337169E+01 -0.41920846855E+02 -0.11600262756E+03  0.17572208945E+03  0.12509017721E+03 0.  0.
         24    2    1    2    0    0 -0.42591348622E+02  0.29978569746E+02  0.28050690204E+03  0.29625209167E+03  0.79802519448E+02 0.  0.
        -13    1    5    5    0    0 -0.18428704813E+01  0.40673100540E+02  0.21164434260E+03  0.21552499862E+03  0.00000000000E+00 0.  1.
         14    1    5    5    0    0 -0.40748478141E+02 -0.10694530795E+02  0.68862559441E+02  0.80727093051E+02  0.00000000000E+00 0. -1.
         13    1    3    3    0    0  0.23060746988E+02  0.36979933077E+01 -0.54685546642E+03  0.54735397537E+03  0.00000000000E+00 0. -1.
        -14    1    3    3    0    0  0.15439967917E+02  0.82442838016E+01 -0.18415370453E+02  0.25406430163E+02  0.00000000000E+00 0.  1.
          5    1    4    4  501    0 -0.35841355739E+01  0.40798059216E+02 -0.68542401222E+02  0.79955367730E+02  0.41800000000E+01 0.  1.
         -5    1    4    4    0  501  0.76747692908E+01 -0.82718906071E+02 -0.47460226341E+02  0.95766721723E+02  0.41800000000E+01 0.  1.
</event>
<event>
11    1  0.7882745E-009  0.1544769E+03  0.7561462E-02  0.1092390E+00
         22   -1    0    0    0    0  0.00000000000E+00  0.00000000000E+00  0.44805106040E+03  0.44805106040E+03  0.00000000000E+00 0. -1.
         22   -1    0    0    0    0 -0.00000000000E+00 -0.00000000000E+00 -0.56750910980E+03  0.56750910980E+03  0.00000000000E+00 0.  1.
         24    2    1    2    0    0 -0.14681082879E+01 -0.37406582058E+02 -0.50832937380E+03  0.51605945504E+03  0.80729183965E+02 0.  0.
         25    2    1    2    0    0 -0.67015428865E+02 -0.30682794196E+02  0.79386531611E+02  0.16546253562E+03  0.12507248988E+03 0.  0.
        -24    2    1    2    0    0  0.68483537153E+02  0.68089376255E+02  0.30948479280E+03  0.33403817954E+03  0.80464342416E+02 0.  0.
        -11    1    3    3    0    0 -0.28293587264E+02 -0.50881193915E+02 -0.30235928226E+03  0.30791323217E+03  0.00000000000E+00 0.  1.
         12    1    3    3    0    0  0.26825478976E+02  0.13474611856E+02 -0.20597009154E+03  0.20814622287E+03  0.00000000000E+00 0. -1.
         11    1    5    5    0    0  0.46538092439E+02  0.55535230450E+02  0.29724509388E+03  0.30594869129E+03  0.00000000000E+00 0. -1.
        -12    1    5    5    0    0  0.21945444714E+02  0.12554145805E+02  0.12239698919E+02  0.28089488251E+02  0.00000000000E+00 0.  1.
          5    1    4    4  501    0 -0.67436623175E+02 -0.67150183482E+02  0.22697231027E+02  0.97925900471E+02  0.41800000000E+01 0. -1.
         -5    1    4    4    0  501  0.42119430920E+00  0.36467389286E+02  0.56689300584E+02  0.67536635144E+02  0.41800000000E+01 0. -1.
</event>
<event>
11    1  0.7882745E-009  0.1515731E+03  0.7561462E-02  0.1095282E+00
         22   -1    0    0    0    0  0.00000000000E+00  0.00000000000E+00  0.70624345795E+03  0.70624345795E+03  0.00000000000E+00 0. -1.
         22   -1    0    0    0    0 -0.00000000000E+00 -0.00000000000E+00 -0.60511770887E+03  0.60511770887E+03  0.00000000000E+00 0.  1.
         24    2    1    2    0    0  0.84778772757E+02 -0.10352039642E+02 -0.57373475070E+03  0.58563568932E+03  0.80641127332E+02 0.  0.
         25    2    1    2    0    0 -0.98015135866E+02 -0.18965867735E+02  0.28973626871E+03  0.33100212405E+03  0.12509448317E+03 0.  0.
        -24    2    1    2    0    0  0.13236363109E+02  0.29317907377E+02  0.38512423105E+03  0.39472335345E+03  0.80318811066E+02 0.  0.
        -11    1    3    3    0    0  0.86879381892E+02 -0.29155353461E+02 -0.53169328262E+03  0.53953295396E+03  0.00000000000E+00 0.  1.
         12    1    3    3    0    0 -0.21006091350E+01  0.18803313819E+02 -0.42041468079E+02  0.46102735358E+02  0.00000000000E+00 0. -1.
         11    1    5    5    0    0  0.17786395250E+02  0.62248637100E+01  0.35925527124E+03  0.35974915524E+03  0.00000000000E+00 0. -1.
        -12    1    5    5    0    0 -0.45500321408E+01  0.23093043667E+02  0.25868959816E+02  0.34974198207E+02  0.00000000000E+00 0.  1.
          5    1    4    4  501    0 -0.74727466380E+02  0.31358269342E+02  0.24949652917E+03  0.26236144106E+03  0.41800000000E+01 0.  1.
         -5    1    4    4    0  501 -0.23287669485E+02 -0.50324137077E+02  0.40239739545E+02  0.68640682989E+02  0.41800000000E+01 0.  1.
</event>
<event>
11    1  0.7882745E-009  0.1491312E+03  0.7561462E-02  0.1097770E+00
         22   -1    0    0    0    0  0.00000000000E+00  0.00000000000E+00  0.12070515403E+03  0.12070515403E+03  0.00000000000E+00 0.  1.
         22   -1    0    0    0    0 -0.00000000000E+00 -0.00000000000E+00 -0.11445490662E+04  0.11445490662E+04  0.00000000000E+00 0.  1.
         24    2    1    2    0    0 -0.46235327143E+02 -0.20413881475E+02 -0.83440086557E+03  0.83896126795E+03  0.71251474497E+02 0.  0.
         25    2    1    2    0    0  0.70076592707E+02 -0.57669606868E+02 -0.25149817300E+03  0.29519595633E+03  0.12511118739E+03 0.  0.
        -24    2    1    2    0    0 -0.23841265564E+02  0.78083488342E+02  0.62055126449E+02  0.13109699590E+03  0.81670964972E+02 0.  0.
        -11    1    3    3    0    0 -0.24497329248E+00 -0.25907814885E+02 -0.56604376651E+03  0.56663640943E+03  0.00000000000E+00 0.  1.
         12    1    3    3    0    0 -0.45990353850E+02  0.54939334108E+01 -0.26835709906E+03  0.27232485852E+03  0.00000000000E+00 0. -1.
         13    1    5    5    0    0 -0.47253296603E+02  0.54049002318E+02  0.15062793825E+02  0.73355684505E+02  0.00000000000E+00 0. -1.
        -14    1    5    5    0    0  0.23412031039E+02  0.24034486025E+02  0.46992332624E+02  0.57741311392E+02  0.00000000000E+00 0.  1.
          5    1    4    4  501    0 -0.14126325356E+02 -0.21374734416E+01  0.78952379819E+01  0.16850194170E+02  0.41800000000E+01 0. -1.
         -5    1    4    4    0  501  0.84202918063E+02 -0.55532133426E+02 -0.25939341098E+03  0.27834576216E+03  0.41800000000E+01 0. -1.
</event>
<event>
11    1  0.7882745E-009  0.1457501E+03  0.7561462E-02  0.1101302E+00
         22   -1    0    0    0    0  0.00000000000E+00  0.00000000000E+00  0.82604004702E+02  0.82604004702E+02  0.00000000000E+00 0.  1.
         22   -1    0    0    0    0 -0.00000000000E+00 -0.00000000000E+00 -0.11240180064E+04  0.11240180064E+04  0.00000000000E+00 0.  1.
        -24    2    1    2    0    0  0.54661026889E+02  0.92603747203E+01 -0.87970599047E+03  0.88512676774E+03  0.80580288463E+02 0.  0.
         25    2    1    2    0    0 -0.61229028561E+01 -0.73535536987E+02 -0.14592299476E+03  0.20587934576E+03  0.12509124458E+03 0.  0.
         24    2    1    2    0    0 -0.48538124032E+02  0.64275162266E+02 -0.15785016431E+02  0.11561589758E+03  0.81428637836E+02 0.  0.
        -11    1    5    5    0    0 -0.34962096387E+02  0.58453503129E+02  0.24753498682E+02  0.72469965564E+02  0.00000000000E+00 0.  1.
         12    1    5    5    0    0 -0.13576027645E+02  0.58216591378E+01 -0.40538515113E+02  0.43145932013E+02  0.00000000000E+00 0. -1.
         11    1    3    3    0    0 -0.11597673547E+02  0.16452559202E+02 -0.74637873641E+02  0.77304624167E+02  0.00000000000E+00 0. -1.
        -12    1    3    3    0    0  0.66258700435E+02 -0.71921844820E+01 -0.80506811683E+03  0.80782214357E+03  0.00000000000E+00 0.  1.
          5    1    4    4  501    0 -0.29764945788E+02 -0.10100368808E+03 -0.87361312447E+02  0.13688377667E+03  0.41800000000E+01 0.  1.
         -5    1    4    4    0  501  0.23642042932E+02  0.27468151089E+02 -0.58561682314E+02  0.68995569087E+02  0.41800000000E+01 0.  1.
</event>
<event>
11    1  0.7882745E-009  0.1488196E+03  0.7561462E-02  0.1098091E+00
         22   -1    0    0    0    0  0.00000000000E+00  0.00000000000E+00  0.69977316069E+03  0.69977316069E+03  0.00000000000E+00 0. -1.
         22   -1    0    0    0    0 -0.00000000000E+00 -0.00000000000E+00 -0.65650560127E+03  0.65650560127E+03  0.00000000000E+00 0. -1.
        -24    2    1    2    0    0  0.66300922688E+02 -0.52014522222E+01 -0.44564617565E+03  0.45752836521E+03  0.79428103639E+02 0.  0.
         25    2    1    2    0    0 -0.67360836240E+02 -0.75503239245E+02 -0.16766862325E+03  0.23237486529E+03  0.12508832641E+03 0.  0.
         24    2    1    2    0    0  0.10599135527E+01  0.80704691467E+02  0.65658235832E+03  0.66637553145E+03  0.80259485519E+02 0.  0.
        -11    1    5    5    0    0 -0.91248272730E+01  0.56849665657E+02  0.17778359231E+03  0.18687469774E+03  0.00000000000E+00 0.  1.
         12    1    5    5    0    0  0.10184740826E+02  0.23855025809E+02  0.47879876601E+03  0.47950083372E+03  0.00000000000E+00 0. -1.
         13    1    3    3    0    0  0.18770096597E+02  0.34136923432E+02 -0.22807619803E+03  0.23137933826E+03  0.00000000000E+00 0. -1.
        -14    1    3    3    0    0  0.47530826091E+02 -0.39338375654E+02 -0.21756997762E+03  0.22614902695E+03  0.00000000000E+00 0.  1.
          5    1    4    4  501    0 -0.77124957488E+02  0.70911470257E+01 -0.83800889579E+02  0.11418671082E+03  0.41800000000E+01 0.  1.
         -5    1    4    4    0  501  0.97641212475E+01 -0.82594386270E+02 -0.83867733670E+02  0.11818815447E+03  0.41800000000E+01 0.  1.
</event>
<event>
11    1  0.7882745E-009  0.1477278E+03  0.7561462E-02  0.1099223E+00
         22   -1    0    0    0    0  0.00000000000E+00  0.00000000000E+00  0.16887621798E+04  0.16887621798E+04  0.00000000000E+00 0. -1.
         22   -1    0    0    0    0 -0.00000000000E+00 -0.00000000000E+00 -0.17388666017E+03  0.17388666017E+03  0.00000000000E+00 0. -1.
         24    2    1    2    0    0 -0.49551905072E+02  0.54646588573E+02 -0.14059206088E+03  0.17830066330E+03  0.81137895036E+02 0.  0.
         25    2    1    2    0    0 -0.19725016113E+02  0.75257075616E+01  0.33569609654E+03  0.35886599502E+03  0.12508885086E+03 0.  0.
        -24    2    1    2    0    0  0.69276921185E+02 -0.62172296135E+02  0.13197714840E+04  0.13254821817E+04  0.80259315944E+02 0.  0.
        -13    1    3    3    0    0  0.27788738008E+01 -0.18343005521E+02 -0.14771044046E+02  0.23714378199E+02  0.00000000000E+00 0.  1.
         14    1    3    3    0    0 -0.52330778873E+02  0.72989594094E+02 -0.12582101683E+03  0.15458628510E+03  0.00000000000E+00 0. -1.
         13    1    5    5    0    0  0.56532632880E+02 -0.13841039991E+02  0.10125382082E+04  0.10142096115E+04  0.00000000000E+00 0. -1.
        -14    1    5    5    0    0  0.12744288305E+02 -0.48331256144E+02  0.30723327579E+03  0.31127257019E+03  0.00000000000E+00 0.  1.
          5    1    4    4  501    0  0.43371935076E+02  0.21624136845E+02  0.22843512447E+03  0.23355685933E+03  0.41800000000E+01 0.  1.
         -5    1    4    4    0  501 -0.63096951189E+02 -0.14098429283E+02  0.10726097207E+03  0.12530913569E+03  0.41800000000E+01 0.  1.
</event>
<event>
11    1  0.7882745E-009  0.1376824E+03  0.7561462E-02  0.1110174E+00
         22   -1    0    0    0    0  0.00000000000E+00  0.00000000000E+00  0.99595487301E+03  0.99595487301E+03  0.00000000000E+00 0.  1.
         22   -1    0    0    0    0 -0.00000000000E+00 -0.00000000000E+00 -0.75276820599E+03  0.75276820599E+03  0.00000000000E+00 0.  1.
        -24    2    1    2    0    0  0.28107222970E+02 -0.31441684349E+02 -0.73486671938E+03  0.74150630328E+03  0.89576263917E+02 0.  0.
         25    2    1    2    0    0 -0.26863060870E+02 -0.38841208083E+02  0.53928237929E+03  0.55560995934E+03  0.12508668522E+03 0.  0.
         24    2    1    2    0    0 -0.12441621005E+01  0.70282892432E+02  0.43877100711E+03  0.45160681639E+03  0.80544937923E+02 0.  0.
        -13    1    5    5    0    0  0.21439222046E+02  0.62078843200E+02  0.40390679067E+03  0.40921158166E+03  0.00000000000E+00 0.  1.
         14    1    5    5    0    0 -0.22683384147E+02  0.82040492315E+01  0.34864216436E+02  0.42395234731E+02  0.00000000000E+00 0. -1.
         11    1    3    3    0    0  0.58611254821E+02 -0.90139579297E+01 -0.37594948831E+03  0.38059762005E+03  0.00000000000E+00 0. -1.
        -12    1    3    3    0    0 -0.30504031851E+02 -0.22427726419E+02 -0.35891723107E+03  0.36090868323E+03  0.00000000000E+00 0.  1.
          5    1    4    4  501    0 -0.73042930393E+02 -0.20132689926E+02  0.22692681075E+03  0.23927775643E+03  0.41800000000E+01 0. -1.
         -5    1    4    4    0  501  0.46179869523E+02 -0.18708518157E+02  0.31235556854E+03  0.31633220291E+03  0.41800000000E+01 0. -1.
</event>
<event>
11    1  0.7882745E-009  0.1328429E+03  0.7561462E-02  0.1115825E+00
         22   -1    0    0    0    0  0.00000000000E+00  0.00000000000E+00  0.17502615312E+03  0.17502615312E+03  0.00000000000E+00 0. -1.
         22   -1    0    0    0    0 -0.00000000000E+00 -0.00000000000E+00 -0.10102336677E+04  0.10102336677E+04  0.00000000000E+00 0.  1.
         24    2    1    2    0    0  0.20448871394E+02  0.17868531064E+02 -0.89232757233E+03  0.89641104800E+03  0.81035979018E+02 0.  0.
         25    2    1    2    0    0 -0.62250332274E+02 -0.13007715382E+02 -0.50272742655E+02  0.14905956524E+03  0.12508837199E+03 0.  0.
        -24    2    1    2    0    0  0.41801460880E+02 -0.48608156812E+01  0.10739280044E+03  0.13978920754E+03  0.78973535425E+02 0.  0.
        -13    1    3    3    0    0  0.76704105117E+01  0.50140624243E+02 -0.54162749022E+03  0.54399747753E+03  0.00000000000E+00 0.  1.
         14    1    3    3    0    0  0.12778460882E+02 -0.32272093179E+02 -0.35070008211E+03  0.35241357047E+03  0.00000000000E+00 0. -1.
         11    1    5    5    0    0  0.53516167262E+02 -0.28227041960E+02  0.89802483581E+02  0.10828311093E+03  0.00000000000E+00 0. -1.
        -12    1    5    5    0    0 -0.11714706383E+02  0.23366226279E+02  0.17590316860E+02  0.31506096607E+02  0.00000000000E+00 0.  1.
          5    1    4    4  501    0 -0.41603544105E+02  0.48078884623E+02 -0.55134855503E+02  0.84260065986E+02  0.41800000000E+01 0.  1.
         -5    1    4    4    0  501 -0.20646788169E+02 -0.61086600005E+02  0.48621128480E+01  0.64799499251E+02  0.41800000000E+01 0.  1.
</event>
<event>
11    1  0.7882745E-009  0.1340004E+03  0.7561462E-02  0.1114449E+00
         22   -1    0    0    0    0  0.00000000000E+00  0.00000000000E+00  0.11863676293E+04  0.11863676293E+04  0.00000000000E+00 0.  1.
         22   -1    0    0    0    0 -0.00000000000E+00 -0.00000000000E+00 -0.12907500146E+03  0.12907500146E+03  0.00000000000E+00 0.  1.
        -24    2    1    2    0    0  0.21189171235E+02 -0.26301024702E+02 -0.95378539648E+02  0.12827804640E+03  0.78850913030E+02 0.  0.
         25    2    1    2    0    0 -0.10878994515E+02 -0.25273669683E+02  0.26668910816E+03  0.29585372927E+03  0.12509691367E+03 0.  0.
         24    2    1    2    0    0 -0.10310176720E+02  0.51574694385E+02  0.88598205935E+03  0.89131085511E+03  0.81881512546E+02 0.  0.
        -11    1    5    5    0    0  0.17171913420E+02 -0.16245507965E+01  0.53351773187E+03  0.53379648181E+03  0.00000000000E+00 0.  1.
         12    1    5    5    0    0 -0.27482090139E+02  0.53199245181E+02  0.35246432748E+03  0.35751437330E+03  0.00000000000E+00 0. -1.
         13    1    3    3    0    0  0.36066831038E+02 -0.92603731227E+01 -0.80893060050E+01  0.38105218581E+02  0.00000000000E+00 0. -1.
        -14    1    3    3    0    0 -0.14877659803E+02 -0.17040651579E+02 -0.87289233643E+02  0.90172827822E+02  0.00000000000E+00 0.  1.
          5    1    4    4  501    0 -0.66776183092E+02 -0.23959087193E+02  0.13097190401E+03  0.14901076648E+03  0.41800000000E+01 0. -1.
         -5    1    4    4    0  501  0.55897188577E+02 -0.13145824900E+01  0.13571720415E+03  0.14684296279E+03  0.41800000000E+01 0. -1.
</event>
<event>
11    1  0.7882745E-009  0.1499279E+03  0.7561462E-02  0.1096952E+00
         22   -1    0    0    0    0  0.00000000000E+00  0.00000000000E+00  0.24876407982E+04  0.24876407982E+04  0.00000000000E+00 0.  1.
         22   -1    0    0    0    0 -0.00000000000E+00 -0.00000000000E+00 -0.98816484126E+03  0.98816484126E+03  0.00000000000E+00 0.  1.
         24    2    1    2    0    0  0.46922036465E+02 -0.28291953070E+02 -0.97419205481E+03  0.97906670476E+03  0.80742433768E+02 0.  0.
         25    2    1    2    0    0 -0.74235613363E+02 -0.51327692106E+02  0.62120423876E+03  0.64006836255E+03  0.12508934498E+03 0.  0.
        -24    2    1    2    0    0  0.27313576898E+02  0.79619645176E+02  0.18524637730E+04  0.18566705722E+04  0.92294440752E+02 0.  0.
        -13    1    3    3    0    0  0.55299917268E+02 -0.47498650555E+02 -0.84990362808E+03  0.85302425503E+03  0.00000000000E+00 0.  1.
         14    1    3    3    0    0 -0.83778808030E+01  0.19206697485E+02 -0.12428842673E+03  0.12604244973E+03  0.00000000000E+00 0. -1.
         11    1    5    5    0    0  0.29904400815E+02 -0.12292522931E+02  0.56846411405E+03  0.56938284859E+03  0.00000000000E+00 0. -1.
        -12    1    5    5    0    0 -0.25908239173E+01  0.91912168106E+02  0.12839996590E+04  0.12872877236E+04  0.00000000000E+00 0.  1.
          5    1    4    4  501    0  0.28210292064E+02  0.14892627586E+02  0.13382443786E+03  0.13763743497E+03  0.41800000000E+01 0. -1.
         -5    1    4    4    0  501 -0.10244590543E+03 -0.66220319692E+02  0.48737980089E+03  0.50243092759E+03  0.41800000000E+01 0. -1.
</event>
<event>
11    1  0.7882745E-009  0.1735639E+03  0.7561462E-02  0.1074971E+00
         22   -1    0    0    0    0  0.00000000000E+00  0.00000000000E+00  0.13789377275E+03  0.13789377275E+03  0.00000000000E+00 0. -1.
         22   -1    0    0    0    0 -0.00000000000E+00 -0.00000000000E+00 -0.31630513540E+04  0.31630513540E+04  0.00000000000E+00 0.  1.
         24    2    1    2    0    0 -0.22428019492E+02  0.11844674344E+03 -0.30473097812E+04  0.30507758709E+04  0.81264165805E+02 0.  0.
         25    2    1    2    0    0  0.22536465158E+02 -0.10681099436E+03  0.22140226772E+01  0.16603813129E+03  0.12508908174E+03 0.  0.
        -24    2    1    2    0    0 -0.10844566539E+00 -0.11635749085E+02  0.19938177272E+02  0.84131124578E+02  0.80901871379E+02 0.  0.
        -13    1    3    3    0    0 -0.48549502482E+02  0.10567236187E+03 -0.24549880460E+04  0.24577408343E+04  0.00000000000E+00 0.  1.
         14    1    3    3    0    0  0.26121482989E+02  0.12774381577E+02 -0.59232173516E+03  0.59303503661E+03  0.00000000000E+00 0. -1.
         11    1    5    5    0    0 -0.32488985549E+02 -0.14539368712E+02  0.33524433207E+02  0.48895961453E+02  0.00000000000E+00 0. -1.
        -12    1    5    5    0    0  0.32380539884E+02  0.29036196271E+01 -0.13586255936E+02  0.35235163125E+02  0.00000000000E+00 0.  1.
          5    1    4    4  501    0  0.52859002905E+02 -0.37861496118E+02  0.45119868690E+02  0.79251763558E+02  0.41800000000E+01 0. -1.
         -5    1    4    4    0  501 -0.30322537747E+02 -0.68949498239E+02 -0.42905846013E+02  0.86786367737E+02  0.41800000000E+01 0. -1.
</event>
<event>
11    1  0.7882745E-009  0.1374944E+03  0.7561462E-02  0.1110389E+00
         22   -1    0    0    0    0  0.00000000000E+00  0.00000000000E+00  0.44202507624E+03  0.44202507624E+03  0.00000000000E+00 0.  1.
         22   -1    0    0    0    0 -0.00000000000E+00 -0.00000000000E+00 -0.19125243851E+04  0.19125243851E+04  0.00000000000E+00 0. -1.
         24    2    1    2    0    0 -0.22413967671E+01  0.17432062338E+02 -0.15270842265E+04  0.15292577646E+04  0.79587530091E+02 0.  0.
         25    2    1    2    0    0  0.15337091844E+02  0.38354243828E+02 -0.36722214856E+03  0.39013747918E+03  0.12509545101E+03 0.  0.
        -24    2    1    2    0    0 -0.13095695077E+02 -0.55786306166E+02  0.42380706625E+03  0.43515421756E+03  0.80393746447E+02 0.  0.
        -13    1    3    3    0    0  0.17245241667E+02  0.96023457470E+00 -0.75545498444E+02  0.77494791733E+02  0.00000000000E+00 0.  1.
         14    1    3    3    0    0 -0.19486638435E+02  0.16471827764E+02 -0.14515387281E+04  0.14517629729E+04  0.00000000000E+00 0. -1.
         11    1    5    5    0    0  0.16824120554E+02  0.50243947135E+01  0.24531745560E+02  0.30167898748E+02  0.00000000000E+00 0. -1.
        -12    1    5    5    0    0 -0.29919815631E+02 -0.60810700880E+02  0.39927532069E+03  0.40498631881E+03  0.00000000000E+00 0.  1.
          5    1    4    4  501    0  0.49668385030E+02  0.21202736263E+02 -0.33641446097E+03  0.34074721781E+03  0.41800000000E+01 0.  1.
         -5    1    4    4    0  501 -0.34331293186E+02  0.17151507565E+02 -0.30807687592E+02  0.49390261372E+02  0.41800000000E+01 0.  1.
</event>
<event>
11    1  0.7882745E-009  0.2536930E+03  0.7561462E-02  0.1021950E+00
         22   -1    0    0    0    0  0.00000000000E+00  0.00000000000E+00  0.43732963232E+03  0.43732963232E+03  0.00000000000E+00 0.  1.
         22   -1    0    0    0    0 -0.00000000000E+00 -0.00000000000E+00 -0.78437153145E+03  0.78437153145E+03  0.00000000000E+00 0.  1.
         24    2    1    2    0    0  0.24903340736E+02  0.66823243783E+01 -0.42661202816E+03  0.43527911336E+03  0.82493964176E+02 0.  0.
         25    2    1    2    0    0 -0.15094039654E+03  0.17339241072E+03 -0.26353122645E+03  0.37140791292E+03  0.12508876475E+03 0.  0.
        -24    2    1    2    0    0  0.12603705580E+03 -0.18007473510E+03  0.34310135547E+03  0.41501413749E+03  0.78777817502E+02 0.  0.
        -11    1    3    3    0    0  0.17982178249E+02  0.14247786762E+01 -0.42619597486E+03  0.42657754010E+03  0.00000000000E+00 0.  1.
         12    1    3    3    0    0  0.69211624876E+01  0.52575457021E+01 -0.41605329653E+00  0.87015732678E+01  0.00000000000E+00 0. -1.
         13    1    5    5    0    0  0.26364717331E+01  0.31990716692E+01  0.38474029772E+02  0.38696718332E+02  0.00000000000E+00 0. -1.
        -14    1    5    5    0    0  0.12340058407E+03 -0.18327380677E+03  0.30462732570E+03  0.37631741915E+03  0.00000000000E+00 0.  1.
          5    1    4    4  501    0 -0.11899053457E+03  0.14133302433E+03 -0.11876455994E+03  0.21967308479E+03  0.41800000000E+01 0.  1.
         -5    1    4    4    0  501 -0.31949861965E+02  0.32059386389E+02 -0.14476666651E+03  0.15173482813E+03  0.41800000000E+01 0.  1.
</event>
<event>
11    1  0.7882745E-009  0.1480058E+03  0.7561462E-02  0.1098934E+00
         22   -1    0    0    0    0  0.00000000000E+00  0.00000000000E+00  0.20903748391E+04  0.20903748391E+04  0.00000000000E+00 0.  1.
         22   -1    0    0    0    0 -0.00000000000E+00 -0.00000000000E+00 -0.35433781214E+03  0.35433781214E+03  0.00000000000E+00 0. -1.
        -24    2    1    2    0    0 -0.58194560794E+02  0.49289723983E+02 -0.27772724557E+03  0.29912503632E+03  0.80791587602E+02 0.  0.
         25    2    1    2    0    0  0.11707420958E+03 -0.29252388332E+02  0.52302363281E+02  0.18152442008E+03  0.12511396848E+03 0.  0.
         24    2    1    2    0    0 -0.58879648788E+02 -0.20037335651E+02  0.19614619092E+04  0.19640631948E+04  0.79643606555E+02 0.  0.
        -13    1    5    5    0    0 -0.75979102655E+02 -0.99874228758E+01  0.12650900342E+04  0.12674089187E+04  0.00000000000E+00 0.  1.
         14    1    5    5    0    0  0.17099453867E+02 -0.10049912775E+02  0.69637187508E+03  0.69665427615E+03  0.00000000000E+00 0. -1.
         13    1    3    3    0    0  0.18812896473E+02 -0.46026088940E+00 -0.60028794108E+02  0.62909403397E+02  0.00000000000E+00 0. -1.
        -14    1    3    3    0    0 -0.77007457267E+02  0.49749984873E+02 -0.21769845146E+03  0.23621563292E+03  0.00000000000E+00 0.  1.
          5    1    4    4  501    0  0.68034356776E+02 -0.19208194958E+02 -0.36371237750E+02  0.79611354660E+02  0.41800000000E+01 0. -1.
         -5    1    4    4    0  501  0.49039852807E+02 -0.10044193375E+02  0.88673601030E+02  0.10191306542E+03  0.41800000000E+01 0. -1.
</event>
<event>
11    1  0.7882745E-009  0.1608618E+03  0.7561462E-02  0.1086270E+00
         22   -1    0    0    0    0  0.00000000000E+00  0.00000000000E+00  0.29218343015E+04  0.29218343015E+04  0.00000000000E+00 0. -1.
         22   -1    0    0    0    0 -0.00000000000E+00 -0.00000000000E+00 -0.43022365399E+03  0.43022365399E+03  0.00000000000E+00 0.  1.
        -24    2    1    2    0    0 -0.95838454322E+02 -0.24606715583E+01 -0.33739617986E+03  0.35963606581E+03  0.79440879994E+02 0.  0.
         25    2    1    2    0    0  0.16454063059E+03 -0.16533681936E+02  0.52524485106E+02  0.21390125160E+03  0.12509173493E+03 0.  0.
         24    2    1    2    0    0 -0.68702176263E+02  0.18994353494E+02  0.27764823423E+04  0.27785206381E+04  0.79006106435E+02 0.  0.
        -13    1    5    5    0    0 -0.37997603774E+02 -0.35614629677E+01  0.42000962176E+03  0.42173994864E+03  0.00000000000E+00 0.  1.
         14    1    5    5    0    0 -0.30704572489E+02  0.22555816462E+02  0.23564727206E+04  0.23567806895E+04  0.00000000000E+00 0. -1.
         13    1    3    3    0    0  0.13571786353E+02 -0.39293609055E+00 -0.58146008695E+02  0.59710184314E+02  0.00000000000E+00 0. -1.
        -14    1    3    3    0    0 -0.10941024068E+03 -0.20677354678E+01 -0.27925017116E+03  0.29992588149E+03  0.00000000000E+00 0.  1.
          5    1    4    4  501    0  0.33396187794E+02 -0.54533895361E+02  0.42573235241E+02  0.76936362413E+02  0.41800000000E+01 0.  1.
         -5    1    4    4    0  501  0.13114444279E+03  0.38000213425E+02  0.99512498650E+01  0.13696488918E+03  0.41800000000E+01 0.  1.
</event>
<event>
11    1  0.7882745E-009  0.1668243E+03  0.7561462E-02  0.1080829E+00
         22   -1    0    0    0    0  0.00000000000E+00  0.00000000000E+00  0.38604918092E+03  0.38604918092E+03  0.00000000000E+00 0. -1.
         22   -1    0    0    0    0 -0.00000000000E+00 -0.00000000000E+00 -0.35300130211E+03  0.35300130211E+03  0.00000000000E+00 0.  1.
        -24    2    1    2    0    0 -0.85425023637E+02  0.11078406871E+01 -0.62870781917E+02  0.13247125046E+03  0.79355119586E+02 0.  0.
         25    2    1    2    0    0  0.13458103820E+03  0.11368600682E+02 -0.21421198224E+03  0.28244863439E+03  0.12509658992E+03 0.  0.
         24    2    1    2    0    0 -0.49156014562E+02 -0.12476441369E+02  0.31013064296E+03  0.32413059819E+03  0.79420737975E+02 0.  0.
        -13    1    5    5    0    0 -0.16948555371E+02 -0.74215051187E+01  0.27711220696E+03  0.27772919816E+03  0.00000000000E+00 0.  1.
         14    1    5    5    0    0 -0.32207459191E+02 -0.50549362507E+01  0.33018436004E+02  0.46401400024E+02  0.00000000000E+00 0. -1.
         11    1    3    3    0    0 -0.51277496746E+02 -0.25532455541E+02 -0.14305707161E+01  0.57300388228E+02  0.00000000000E+00 0. -1.
        -12    1    3    3    0    0 -0.34147526892E+02  0.26640296228E+02 -0.61440211201E+02  0.75170862230E+02  0.00000000000E+00 0.  1.
          5    1    4    4  501    0  0.14299613610E+03  0.43320776628E+02 -0.18728535256E+03  0.23962024187E+03  0.41800000000E+01 0.  1.
         -5    1    4    4    0  501 -0.84150979054E+01 -0.31952175945E+02 -0.26926629677E+02  0.42828392524E+02  0.41800000000E+01 0.  1.
</event>
<event>
11    1  0.7882745E-009  0.1588464E+03  0.7561462E-02  0.1088167E+00
         22   -1    0    0    0    0  0.00000000000E+00  0.00000000000E+00  0.36327432047E+03  0.36327432047E+03  0.00000000000E+00 0. -1.
         22   -1    0    0    0    0 -0.00000000000E+00 -0.00000000000E+00 -0.16736578675E+04  0.16736578675E+04  0.00000000000E+00 0. -1.
         24    2    1    2    0    0 -0.41535397124E+02 -0.33141281156E+02 -0.12388434615E+04  0.12425600936E+04  0.79993314437E+02 0.  0.
         25    2    1    2    0    0  0.13559314604E+03  0.55262717764E+02 -0.39951748786E+03  0.44351148907E+03  0.12509495833E+03 0.  0.
        -24    2    1    2    0    0 -0.94057748916E+02 -0.22121436609E+02  0.32797740240E+03  0.35086060524E+03  0.78725915262E+02 0.  0.
        -11    1    3    3    0    0 -0.27533009646E+02 -0.44031557078E+02 -0.37984490375E+03  0.38337839734E+03  0.00000000000E+00 0.  1.
         12    1    3    3    0    0 -0.14002387479E+02  0.10890275922E+02 -0.85899855778E+03  0.85918169628E+03  0.00000000000E+00 0. -1.
         13    1    5    5    0    0 -0.40344284270E+02  0.14628372452E+02  0.52540911405E+02  0.67839501215E+02  0.00000000000E+00 0. -1.
        -14    1    5    5    0    0 -0.53713464646E+02 -0.36749809061E+02  0.27543649099E+03  0.28302110402E+03  0.00000000000E+00 0.  1.
          5    1    4    4  501    0  0.48946459815E+02  0.42460081035E+02 -0.46752919631E+02  0.80012013497E+02  0.41800000000E+01 0.  1.
         -5    1    4    4    0  501  0.86646686225E+02  0.12802636729E+02 -0.35276456823E+03  0.36349947557E+03  0.41800000000E+01 0.  1.
</event>
<event>
11    1  0.7882745E-009  0.1986331E+03  0.7561462E-02  0.1055494E+00
         22   -1    0    0    0    0  0.00000000000E+00  0.00000000000E+00  0.10493607044E+04  0.10493607044E+04  0.00000000000E+00 0.  1.
         22   -1    0    0    0    0 -0.00000000000E+00 -0.00000000000E+00 -0.23761920251E+03  0.23761920251E+03  0.00000000000E+00 0.  1.
         24    2    1    2    0    0  0.13681590254E+03  0.62353050688E+02 -0.15889269461E+03  0.23318786571E+03  0.80766318460E+02 0.  0.
         25    2    1    2    0    0 -0.19607601931E+03 -0.34779668578E+02  0.33260575002E+03  0.40734415588E+03  0.12508895113E+03 0.  0.
        -24    2    1    2    0    0  0.59260116771E+02 -0.27573382110E+02  0.63802844650E+03  0.64644788533E+03  0.80885827365E+02 0.  0.
        -11    1    3    3    0    0  0.64587567401E+02  0.15977416159E+02 -0.12362060516E+03  0.14038833894E+03  0.00000000000E+00 0.  1.
         12    1    3    3    0    0  0.72228335138E+02  0.46375634529E+02 -0.35272089443E+02  0.92799526768E+02  0.00000000000E+00 0. -1.
         13    1    5    5    0    0  0.17100440600E+02  0.25597462249E+02  0.30677196622E+03  0.30831265690E+03  0.00000000000E+00 0. -1.
        -14    1    5    5    0    0  0.42159676171E+02 -0.53170844359E+02  0.33125648027E+03  0.33813522843E+03  0.00000000000E+00 0.  1.
          5    1    4    4  501    0 -0.12493411115E+03  0.39836170368E+02  0.16952074035E+03  0.21435999255E+03  0.41800000000E+01 0.  1.
         -5    1    4    4    0  501 -0.71141908156E+02 -0.74615838946E+02  0.16308500967E+03  0.19298416333E+03  0.41800000000E+01 0.  1.
</event>
<event>
11    1  0.7882745E-009  0.1290688E+03  0.7561462E-02  0.1120418E+00
         22   -1    0    0    0    0  0.00000000000E+00  0.00000000000E+00  0.13065877143E+03  0.13065877143E+03  0.00000000000E+00 0.  1.
         22   -1    0    0    0    0 -0.00000000000E+00 -0.00000000000E+00 -0.69943122746E+03  0.69943122746E+03  0.00000000000E+00 0.  1.
         24    2    1    2    0    0 -0.23481698301E+02 -0.20553949218E+02 -0.54319251412E+03  0.55053244138E+03  0.83988133900E+02 0.  0.
         25    2    1    2    0    0  0.46837191850E+02  0.68045953926E+00 -0.10014439232E+03  0.16694630333E+03  0.12509189948E+03 0.  0.
        -24    2    1    2    0    0 -0.23355493550E+02  0.19873489678E+02  0.74564450403E+02  0.11261125419E+03  0.78619352800E+02 0.  0.
        -13    1    3    3    0    0  0.29239835779E+01 -0.38798915921E+01 -0.48019007688E+03  0.48021465323E+03  0.00000000000E+00 0.  1.
         14    1    3    3    0    0 -0.26405681879E+02 -0.16674057626E+02 -0.63002437238E+02  0.70317788155E+02  0.00000000000E+00 0. -1.
         13    1    5    5    0    0  0.83079801301E+01 -0.13237806830E+02 -0.84699313711E+01  0.17776439490E+02  0.00000000000E+00 0. -1.
        -14    1    5    5    0    0 -0.31663473680E+02  0.33111296509E+02  0.83034381774E+02  0.94834814697E+02  0.00000000000E+00 0.  1.
          5    1    4    4  501    0 -0.28412964352E+02 -0.38946233399E+02 -0.38155136721E+02  0.61622986762E+02  0.41800000000E+01 0.  1.
         -5    1    4    4    0  501  0.75250156203E+02  0.39626692939E+02 -0.61989255601E+02  0.10532331656E+03  0.41800000000E+01 0.  1.
</event>
<event>
11    1  0.7882745E-009  0.1387725E+03  0.7561462E-02  0.1108937E+00
         22   -1    0    0    0    0  0.00000000000E+00  0.00000000000E+00  0.32549491766E+03  0.32549491766E+03  0.00000000000E+00 0.  1.
         22   -1    0    0    0    0 -0.00000000000E+00 -0.00000000000E+00 -0.43399449664E+03  0.43399449664E+03  0.00000000000E+00 0.  1.
         24    2    1    2    0    0  0.86839956074E+00  0.60937335989E+02 -0.38907914750E+03  0.40158655005E+03  0.78581557130E+02 0.  0.
         25    2    1    2    0    0 -0.12528216895E+02 -0.39121489324E+02  0.12392899969E+03  0.18081095885E+03  0.12508700465E+03 0.  0.
        -24    2    1    2    0    0  0.11659817334E+02 -0.21815846665E+02  0.15665056884E+03  0.17709190541E+03  0.78805201212E+02 0.  0.
        -13    1    3    3    0    0  0.29416120568E+02  0.64206629600E+02 -0.26885996064E+03  0.27798107466E+03  0.00000000000E+00 0.  1.
         14    1    3    3    0    0 -0.28547721007E+02 -0.32692936108E+01 -0.12021918687E+03  0.12360547539E+03  0.00000000000E+00 0. -1.
         11    1    5    5    0    0 -0.11970352443E+02  0.21973851028E+02  0.92958158417E+02  0.96267121506E+02  0.00000000000E+00 0. -1.
        -12    1    5    5    0    0  0.23630169777E+02 -0.43789697693E+02  0.63692410418E+02  0.80824783901E+02  0.00000000000E+00 0.  1.
          5    1    4    4  501    0  0.72938577514E+01  0.35335510564E+02  0.18238340806E+01  0.36367532752E+02  0.41800000000E+01 0.  1.
         -5    1    4    4    0  501 -0.19822074646E+02 -0.74456999888E+02  0.12210516561E+03  0.14444342610E+03  0.41800000000E+01 0.  1.
</event>
<event>
11    1  0.7882745E-009  0.1508181E+03  0.7561462E-02  0.1096046E+00
         22   -1    0    0    0    0  0.00000000000E+00  0.00000000000E+00  0.59983884812E+02  0.59983884812E+02  0.00000000000E+00 0. -1.
         22   -1    0    0    0    0 -0.00000000000E+00 -0.00000000000E+00 -0.13312122129E+04  0.13312122129E+04  0.00000000000E+00 0. -1.
        -24    2    1    2    0    0  0.49416713303E+02  0.33768063430E+02 -0.73043722106E+03  0.73779166892E+03  0.84945389224E+02 0.  0.
         25    2    1    2    0    0  0.37519444009E+02 -0.53820782088E+02 -0.51169867936E+03  0.53083655198E+03  0.12509005235E+03 0.  0.
         24    2    1    2    0    0 -0.86936157312E+02  0.20052718658E+02 -0.29092427708E+02  0.12256787685E+03  0.78844835678E+02 0.  0.
        -13    1    5    5    0    0 -0.48670447602E+02 -0.28907610441E+01 -0.52945551799E+02  0.71974998607E+02  0.00000000000E+00 0.  1.
         14    1    5    5    0    0 -0.38265709710E+02  0.22943479702E+02  0.23853124092E+02  0.50592878248E+02  0.00000000000E+00 0. -1.
         11    1    3    3    0    0  0.62020518131E+02  0.50475613758E+02 -0.63934110947E+03  0.64432242434E+03  0.00000000000E+00 0. -1.
        -12    1    3    3    0    0 -0.12603804828E+02 -0.16707550329E+02 -0.91096111592E+02  0.93469244575E+02  0.00000000000E+00 0.  1.
          5    1    4    4  501    0  0.51886467092E+02 -0.71949762403E+02 -0.20716400898E+03  0.22539603545E+03  0.41800000000E+01 0. -1.
         -5    1    4    4    0  501 -0.14367023083E+02  0.18128980315E+02 -0.30453467037E+03  0.30544051653E+03  0.41800000000E+01 0. -1.
</event>
<event>
11    1  0.7882745E-009  0.1433409E+03  0.7561462E-02  0.1103884E+00
         22   -1    0    0    0    0  0.00000000000E+00  0.00000000000E+00  0.36624477666E+04  0.36624477666E+04  0.00000000000E+00 0. -1.
         22   -1    0    0    0    0 -0.00000000000E+00 -0.00000000000E+00 -0.76661569183E+02  0.76661569183E+02  0.00000000000E+00 0. -1.
        -24    2    1    2    0    0  0.30405062511E+02 -0.13569284466E+01 -0.43445104801E+02  0.99338970605E+02  0.83990742756E+02 0.  0.
         25    2    1    2    0    0  0.21522802510E+02 -0.52518180898E+02  0.11525773812E+04  0.11607338929E+04  0.12508860951E+03 0.  0.
         24    2    1    2    0    0 -0.51927865021E+02  0.53875109345E+02  0.24766539211E+04  0.24790364723E+04  0.78791849708E+02 0.  0.
        -13    1    5    5    0    0 -0.22667783588E+02  0.14414576521E+02  0.19367374253E+03  0.19552781637E+03  0.00000000000E+00 0.  1.
         14    1    5    5    0    0 -0.29260081434E+02  0.39460532824E+02  0.22829801785E+04  0.22835086559E+04  0.00000000000E+00 0. -1.
         13    1    3    3    0    0  0.23970294185E+02  0.31040415514E+02 -0.52083401393E+02  0.65197876494E+02  0.00000000000E+00 0. -1.
        -14    1    3    3    0    0  0.64347683258E+01 -0.32397343961E+02  0.86382965917E+01  0.34141094112E+02  0.00000000000E+00 0.  1.
          5    1    4    4  501    0 -0.25101620317E+02 -0.76488132887E+02  0.55148967392E+03  0.55734985302E+03  0.41800000000E+01 0.  1.
         -5    1    4    4    0  501  0.46624422827E+02  0.23969951989E+02  0.60108770723E+03  0.60338403988E+03  0.41800000000E+01 0.  1.
</event>
<event>
11    1  0.7882745E-009  0.1262880E+03  0.7561462E-02  0.1123916E+00
         22   -1    0    0    0    0  0.00000000000E+00  0.00000000000E+00  0.72709436268E+03  0.72709436268E+03  0.00000000000E+00 0. -1.
         22   -1    0    0    0    0 -0.00000000000E+00 -0.00000000000E+00 -0.80480842560E+03  0.80480842560E+03  0.00000000000E+00 0.  1.
        -24    2    1    2    0    0  0.24508516565E+02  0.41823415990E+01 -0.78574888709E+03  0.79001161505E+03  0.78095319814E+02 0.  0.
         25    2    1    2    0    0 -0.72635817152E+00 -0.14904906560E+01  0.30173117024E+03  0.32663621526E+03  0.12508704516E+03 0.  0.
         24    2    1    2    0    0 -0.23782158394E+02 -0.26918509430E+01  0.40630365394E+03  0.41525495797E+03  0.82347943497E+02 0.  0.
        -13    1    5    5    0    0  0.14118597940E+02  0.13458473812E+02  0.24888434934E+02  0.31621187811E+02  0.00000000000E+00 0.  1.
         14    1    5    5    0    0 -0.37900756334E+02 -0.16150324755E+02  0.38141521900E+03  0.38363377016E+03  0.00000000000E+00 0. -1.
         11    1    3    3    0    0  0.52684458415E+02  0.84591692067E+01 -0.49335082694E+03  0.49622802032E+03  0.00000000000E+00 0. -1.
        -12    1    3    3    0    0 -0.28175941850E+02 -0.42768276077E+01 -0.29239806015E+03  0.29378359473E+03  0.00000000000E+00 0.  1.
          5    1    4    4  501    0  0.59815412506E+02 -0.15978598693E+02  0.16712427733E+03  0.17827281246E+03  0.41800000000E+01 0.  1.
         -5    1    4    4    0  501 -0.60541770677E+02  0.14488108037E+02  0.13460689290E+03  0.14836340279E+03  0.41800000000E+01 0.  1.
</event>
<event>
11    1  0.7882745E-009  0.2133632E+03  0.7561462E-02  0.1045456E+00
         22   -1    0    0    0    0  0.00000000000E+00  0.00000000000E+00  0.11471604461E+04  0.11471604461E+04  0.00000000000E+00 0. -1.
         22   -1    0    0    0    0 -0.00000000000E+00 -0.00000000000E+00 -0.44661660592E+03  0.44661660592E+03  0.00000000000E+00 0.  1.
         24    2    1    2    0    0  0.76525436258E+00  0.59636973359E+02 -0.11408252339E+03  0.14989832103E+03  0.76795379401E+02 0.  0.
         25    2    1    2    0    0  0.16567442509E+03 -0.10475545355E+03 -0.26217152872E+03  0.35043332706E+03  0.12509151077E+03 0.  0.
        -24    2    1    2    0    0 -0.16643967945E+03  0.45118480190E+02  0.10767978923E+04  0.10934454039E+04  0.79945646431E+02 0.  0.
        -11    1    3    3    0    0 -0.29745270063E+02  0.59466239681E+02 -0.82919861125E+02  0.10628602035E+03  0.00000000000E+00 0.  1.
         12    1    3    3    0    0  0.30510524425E+02  0.17073367824E+00 -0.31162662270E+02  0.43612300678E+02  0.00000000000E+00 0. -1.
         11    1    5    5    0    0 -0.88684893806E+02 -0.99689215964E+00  0.71699090557E+03  0.72245550926E+03  0.00000000000E+00 0. -1.
        -12    1    5    5    0    0 -0.77754785644E+02  0.46115372349E+02  0.35980698672E+03  0.37098989468E+03  0.00000000000E+00 0.  1.
          5    1    4    4  501    0  0.17011446902E+03 -0.78742532131E+02 -0.16535616573E+03  0.24999890576E+03  0.41800000000E+01 0. -1.
         -5    1    4    4    0  501 -0.44400439319E+01 -0.26012921418E+02 -0.96815362988E+02  0.10043442130E+03  0.41800000000E+01 0. -1.
</event>
<event>
11    1  0.7882745E-009  0.1327791E+03  0.7561462E-02  0.1115901E+00
         22   -1    0    0    0    0  0.00000000000E+00  0.00000000000E+00  0.36092664074E+03  0.36092664074E+03  0.00000000000E+00 0. -1.
         22   -1    0    0    0    0 -0.00000000000E+00 -0.00000000000E+00 -0.26292244240E+03  0.26292244240E+03  0.00000000000E+00 0.  1.
        -24    2    1    2    0    0  0.32685948444E+01 -0.25875758682E+02 -0.17025753415E+03  0.18998590070E+03  0.80167174890E+02 0.  0.
         25    2    1    2    0    0 -0.30867135271E+02 -0.11051511681E+02 -0.20501826484E+02  0.13093239299E+03  0.12509216880E+03 0.  0.
         24    2    1    2    0    0  0.27598540427E+02  0.36927270363E+02  0.28876355898E+03  0.30293078944E+03  0.79103523710E+02 0.  0.
        -13    1    5    5    0    0  0.41195748046E+02 -0.79647639864E+01  0.10040210272E+03  0.10881686152E+03  0.00000000000E+00 0.  1.
         14    1    5    5    0    0 -0.13597207619E+02  0.44892034349E+02  0.18836145627E+03  0.19411392791E+03  0.00000000000E+00 0. -1.
         13    1    3    3    0    0 -0.95247151117E+01  0.10416258367E+02  0.12919488097E+01  0.14173488210E+02  0.00000000000E+00 0. -1.
        -14    1    3    3    0    0  0.12793309956E+02 -0.36292017049E+02 -0.17154948296E+03  0.17581241249E+03  0.00000000000E+00 0.  1.
          5    1    4    4  501    0  0.24718499845E+02  0.30606202887E+02 -0.42388640261E+02  0.57982869133E+02  0.41800000000E+01 0.  1.
         -5    1    4    4    0  501 -0.55585635116E+02 -0.41657714568E+02  0.21886813777E+02  0.72949523862E+02  0.41800000000E+01 0.  1.
</event>
<event>
11    1  0.7882745E-009  0.2063956E+03  0.7561462E-02  0.1050091E+00
         22   -1    0    0    0    0  0.00000000000E+00  0.00000000000E+00  0.14102565743E+04  0.14102565743E+04  0.00000000000E+00 0. -1.
         22   -1    0    0    0    0 -0.00000000000E+00 -0.00000000000E+00 -0.27859407224E+03  0.27859407224E+03  0.00000000000E+00 0.  1.
        -24    2    1    2    0    0 -0.20032144366E+02 -0.12400363962E+02 -0.21564685184E+03  0.23289669025E+03  0.84748143256E+02 0.  0.
         25    2    1    2    0    0  0.42156988130E+02 -0.15150224839E+03  0.16647503572E+03  0.26094974460E+03  0.12510271290E+03 0.  0.
         24    2    1    2    0    0 -0.22124843764E+02  0.16390261235E+03  0.11808343182E+04  0.11950042117E+04  0.79446862223E+02 0.  0.
        -11    1    5    5    0    0 -0.11425436568E+02 -0.22813857864E+01  0.18290699688E+03  0.18327769866E+03  0.00000000000E+00 0.  1.
         12    1    5    5    0    0 -0.10699407197E+02  0.16618399814E+03  0.99792732134E+03  0.10117265131E+04  0.00000000000E+00 0. -1.
         13    1    3    3    0    0  0.14028111840E+02  0.15218138937E+02 -0.10677658807E+02  0.23289312401E+02  0.00000000000E+00 0. -1.
        -14    1    3    3    0    0 -0.34060256206E+02 -0.27618502898E+02 -0.20496919303E+03  0.20960737784E+03  0.00000000000E+00 0.  1.
          5    1    4    4  501    0  0.68487842450E+02 -0.11958091230E+03  0.67321837932E+02  0.15342712085E+03  0.41800000000E+01 0.  1.
         -5    1    4    4    0  501 -0.26330854319E+02 -0.31921336091E+02  0.99153197787E+02  0.10752262375E+03  0.41800000000E+01 0.  1.
</event>
<event>
11    1  0.7882745E-009  0.1788292E+03  0.7561462E-02  0.1070594E+00
         22   -1    0    0    0    0  0.00000000000E+00  0.00000000000E+00  0.27186828903E+04  0.27186828903E+04  0.00000000000E+00 0. -1.
         22   -1    0    0    0    0 -0.00000000000E+00 -0.00000000000E+00 -0.42545998794E+03  0.42545998794E+03  0.00000000000E+00 0.  1.
        -24    2    1    2    0    0 -0.16940152936E+02  0.12216592405E+03 -0.31175589852E+03  0.34522266778E+03  0.82313232880E+02 0.  0.
         25    2    1    2    0    0  0.34151607698E+02 -0.15217315360E+03  0.76456131356E+01  0.20007133242E+03  0.12508829550E+03 0.  0.
         24    2    1    2    0    0 -0.17211454763E+02  0.30007229557E+02  0.25973331878E+04  0.25988488781E+04  0.81725973124E+02 0.  0.
        -11    1    5    5    0    0  0.20589281607E+02  0.17251969306E+02  0.30828144241E+03  0.30944950589E+03  0.00000000000E+00 0.  1.
         12    1    5    5    0    0 -0.37800736369E+02  0.12755260251E+02  0.22890517454E+04  0.22893993722E+04  0.00000000000E+00 0. -1.
         11    1    3    3    0    0 -0.11174536874E+02  0.12418171465E+02 -0.23395375188E+01  0.16868748996E+02  0.00000000000E+00 0. -1.
        -12    1    3    3    0    0 -0.57656160612E+01  0.10974775258E+03 -0.30941636100E+03  0.32835391878E+03  0.00000000000E+00 0.  1.
          5    1    4    4  501    0  0.50824705345E+02 -0.69253088915E+02 -0.48241070896E+02  0.98609402791E+02  0.41800000000E+01 0.  1.
         -5    1    4    4    0  501 -0.16673097646E+02 -0.82920064687E+02  0.55886684031E+02  0.10146192963E+03  0.41800000000E+01 0.  1.
</event>
<event>
11    1  0.7882745E-009  0.1402177E+03  0.7561462E-02  0.1107315E+00
         22   -1    0    0    0    0  0.00000000000E+00  0.00000000000E+00  0.16097122806E+04  0.16097122806E+04  0.00000000000E+00 0. -1.
         22   -1    0    0    0    0 -0.00000000000E+00 -0.00000000000E+00 -0.74134959152E+03  0.74134959152E+03  0.00000000000E+00 0. -1.
         24    2    1    2    0    0  0.13999728882E+02 -0.51794263557E+02 -0.72660459166E+03  0.73286714200E+03  0.79128863652E+02 0.  0.
         25    2    1    2    0    0 -0.73677255415E+01  0.93032007620E+02  0.90792468525E+03  0.92124121114E+03  0.12509555231E+03 0.  0.
        -24    2    1    2    0    0 -0.66320033407E+01 -0.41237744063E+02  0.68704259554E+03  0.69695351902E+03  0.10941729560E+03 0.  0.
        -13    1    3    3    0    0  0.15225296403E+01 -0.12164353880E+02 -0.12337278114E+02  0.17392470586E+02  0.00000000000E+00 0.  1.
         14    1    3    3    0    0  0.12477199242E+02 -0.39629909677E+02 -0.71426731355E+03  0.71547467142E+03  0.00000000000E+00 0. -1.
         11    1    5    5    0    0  0.55405165059E+01 -0.95588029350E+01  0.63327549259E+03  0.63337186356E+03  0.00000000000E+00 0. -1.
        -12    1    5    5    0    0 -0.12172519847E+02 -0.31678941128E+02  0.53767102950E+02  0.63581655452E+02  0.00000000000E+00 0.  1.
          5    1    4    4  501    0  0.15476042731E+02  0.11952203873E+03  0.72369499742E+03  0.73367359727E+03  0.41800000000E+01 0.  1.
         -5    1    4    4    0  501 -0.22843768272E+02 -0.26490031112E+02  0.18422968782E+03  0.18756761387E+03  0.41800000000E+01 0.  1.
</event>
<event>
11    1  0.7882745E-009  0.1561686E+03  0.7561462E-02  0.1090737E+00
         22   -1    0    0    0    0  0.00000000000E+00  0.00000000000E+00  0.72480174226E+03  0.72480174226E+03  0.00000000000E+00 0. -1.
         22   -1    0    0    0    0 -0.00000000000E+00 -0.00000000000E+00 -0.21709235055E+03  0.21709235055E+03  0.00000000000E+00 0. -1.
        -24    2    1    2    0    0  0.67136496653E+02  0.67309026736E+02 -0.17194253676E+03  0.21224293359E+03  0.80280836134E+02 0.  0.
         25    2    1    2    0    0 -0.68969720114E+02 -0.33825078253E+02  0.24339636369E+03  0.28423631824E+03  0.12509011369E+03 0.  0.
         24    2    1    2    0    0  0.18332234611E+01 -0.33483948483E+02  0.43625556478E+03  0.44541484098E+03  0.83372221104E+02 0.  0.
        -11    1    5    5    0    0  0.10005915492E+02 -0.68315299038E+01  0.47559564630E+01  0.13015654710E+02  0.00000000000E+00 0.  1.
         12    1    5    5    0    0 -0.81726920309E+01 -0.26652418579E+02  0.43149960832E+03  0.43239918627E+03  0.00000000000E+00 0. -1.
         13    1    3    3    0    0  0.70840613063E+02  0.71915785810E+02 -0.17745634714E+03  0.20415931977E+03  0.00000000000E+00 0. -1.
        -14    1    3    3    0    0 -0.37041164099E+01 -0.46067590739E+01  0.55138103823E+01  0.80836138252E+01  0.00000000000E+00 0.  1.
          5    1    4    4  501    0 -0.64074911946E+02 -0.69959151976E+02  0.10733433750E+03  0.14331088477E+03  0.41800000000E+01 0.  1.
         -5    1    4    4    0  501 -0.48948081677E+01  0.36134073724E+02  0.13606202619E+03  0.14092543348E+03  0.41800000000E+01 0.  1.
</event>
<event>
11    1  0.7882745E-009  0.8075345E+03  0.7561462E-02  0.8887299E-01
         22   -1    0    0    0    0  0.00000000000E+00  0.00000000000E+00  0.35659526730E+04  0.35659526730E+04  0.00000000000E+00 0. -1.
         22   -1    0    0    0    0 -0.00000000000E+00 -0.00000000000E+00 -0.35977169378E+03  0.35977169378E+03  0.00000000000E+00 0.  1.
         24    2    1    2    0    0  0.77519778718E+02 -0.71828075524E+02 -0.45067335116E+02  0.13678721465E+03  0.74236708387E+02 0.  0.
         25    2    1    2    0    0  0.71492007174E+03  0.24354667047E+03  0.48796215806E+03  0.90784055906E+03  0.12506687530E+03 0.  0.
        -24    2    1    2    0    0 -0.79243985046E+03 -0.17171859494E+03  0.27632861563E+04  0.28810965931E+04  0.86712194857E+02 0.  0.
        -11    1    3    3    0    0  0.53252140552E+02 -0.85579242151E+02 -0.39979432303E+02  0.10843409135E+03  0.00000000000E+00 0.  1.
         12    1    3    3    0    0  0.24267638166E+02  0.13751166627E+02 -0.50879028130E+01  0.28353123299E+02  0.00000000000E+00 0. -1.
         13    1    5    5    0    0 -0.56176568216E+03 -0.14890883748E+03  0.18701440654E+04  0.19583649682E+04  0.00000000000E+00 0. -1.
        -14    1    5    5    0    0 -0.23067416830E+03 -0.22809757458E+02  0.89314209093E+03  0.92273162487E+03  0.00000000000E+00 0.  1.
          5    1    4    4  501    0  0.92672394532E+02 -0.10242057023E+02  0.52898883467E+02  0.10727924642E+03  0.41800000000E+01 0. -1.
         -5    1    4    4    0  501  0.62224767721E+03  0.25378872749E+03  0.43506327459E+03  0.80056131264E+03  0.41800000000E+01 0. -1.
</event>
<event>
11    1  0.7882745E-009  0.1500174E+03  0.7561462E-02  0.1096861E+00
         22   -1    0    0    0    0  0.00000000000E+00  0.00000000000E+00  0.42318251362E+03  0.42318251362E+03  0.00000000000E+00 0. -1.
         22   -1    0    0    0    0 -0.00000000000E+00 -0.00000000000E+00 -0.55414065761E+03  0.55414065761E+03  0.00000000000E+00 0.  1.
        -24    2    1    2    0    0  0.28179468065E+01  0.82236956226E+02 -0.45130712623E+03  0.46543343934E+03  0.78608564902E+02 0.  0.
         25    2    1    2    0    0 -0.63910300770E+02 -0.84544022477E+02 -0.12197184449E+02  0.16439868529E+03  0.12508372450E+03 0.  0.
         24    2    1    2    0    0  0.61092353963E+02  0.23070662507E+01  0.33254616669E+03  0.34749104659E+03  0.80159068205E+02 0.  0.
        -11    1    5    5    0    0  0.10674717761E+02  0.30655039500E+02  0.20353338546E+03  0.20610560410E+03  0.00000000000E+00 0.  1.
         12    1    5    5    0    0  0.50417636203E+02 -0.28347973250E+02  0.12901278123E+03  0.14138544249E+03  0.00000000000E+00 0. -1.
         13    1    3    3    0    0 -0.14196996967E+02 -0.56338234408E+01 -0.21300179323E+02  0.26210538504E+02  0.00000000000E+00 0. -1.
        -14    1    3    3    0    0  0.17014943773E+02  0.87870779667E+02 -0.43000694691E+03  0.43922290084E+03  0.00000000000E+00 0.  1.
          5    1    4    4  501    0 -0.83892311542E+02 -0.79728238540E+01 -0.11466320635E+02  0.85149484819E+02  0.41800000000E+01 0.  1.
         -5    1    4    4    0  501  0.19982010772E+02 -0.76571198623E+02 -0.73086381435E+00  0.79249200469E+02  0.41800000000E+01 0.  1.
</event>
<event>
11    1  0.7882745E-009  0.1497116E+03  0.7561462E-02  0.1097174E+00
         22   -1    0    0    0    0  0.00000000000E+00  0.00000000000E+00  0.90909878248E+03  0.90909878248E+03  0.00000000000E+00 0. -1.
         22   -1    0    0    0    0 -0.00000000000E+00 -0.00000000000E+00 -0.89090224470E+03  0.89090224470E+03  0.00000000000E+00 0. -1.
         24    2    1    2    0    0 -0.57219883715E+02 -0.57694853395E+02 -0.78602388521E+03  0.79428429947E+03  0.80319294421E+02 0.  0.
         25    2    1    2    0    0  0.73513871940E+02  0.64753436657E+02 -0.34839441745E+02  0.16265926150E+03  0.12508777608E+03 0.  0.
        -24    2    1    2    0    0 -0.16293988225E+02 -0.70585832618E+01  0.83905986473E+03  0.84305746621E+03  0.80056961449E+02 0.  0.
        -11    1    3    3    0    0  0.25842324959E+01  0.19884842067E+01  0.44418191494E+00  0.32908394987E+01  0.00000000000E+00 0.  1.
         12    1    3    3    0    0 -0.59804116211E+02 -0.59683337602E+02 -0.78646806712E+03  0.79099345997E+03  0.00000000000E+00 0. -1.
         13    1    5    5    0    0 -0.33595034199E+02 -0.35294708250E+02  0.52511655350E+03  0.52737248460E+03  0.00000000000E+00 0. -1.
        -14    1    5    5    0    0  0.17301045974E+02  0.28236124988E+02  0.31394331123E+03  0.31568498160E+03  0.00000000000E+00 0.  1.
          5    1    4    4  501    0  0.10199363326E+03  0.56338753790E+02  0.12624250983E+00  0.11659435981E+03  0.41800000000E+01 0.  1.
         -5    1    4    4    0  501 -0.28479761315E+02  0.84146828668E+01 -0.34965684255E+02  0.46064901690E+02  0.41800000000E+01 0.  1.
</event>
<event>
11    1  0.7882745E-009  0.1494977E+03  0.7561462E-02  0.1097393E+00
         22   -1    0    0    0    0  0.00000000000E+00  0.00000000000E+00  0.89194138459E+03  0.89194138459E+03  0.00000000000E+00 0. -1.
         22   -1    0    0    0    0 -0.00000000000E+00 -0.00000000000E+00 -0.65910870036E+03  0.65910870036E+03  0.00000000000E+00 0. -1.
         24    2    1    2    0    0 -0.18796604684E+01  0.50669725305E+02 -0.62470004612E+03  0.63193577971E+03  0.80757215565E+02 0.  0.
         25    2    1    2    0    0  0.44615276295E+02 -0.11221402787E+03  0.26626635678E+03  0.31800578072E+03  0.12508953948E+03 0.  0.
        -24    2    1    2    0    0 -0.42735615827E+02  0.61544302566E+02  0.59126637356E+03  0.60110852452E+03  0.78240013461E+02 0.  0.
        -13    1    3    3    0    0 -0.85929499105E+01 -0.78082427788E+01 -0.13079953388E+02  0.17489786279E+02  0.00000000000E+00 0.  1.
         14    1    3    3    0    0  0.67132894421E+01  0.58477968084E+02 -0.61162009273E+03  0.61444599343E+03  0.00000000000E+00 0. -1.
         11    1    5    5    0    0 -0.57756079521E+02  0.61022809967E+02  0.56161875626E+03  0.56786897735E+03  0.00000000000E+00 0. -1.
        -12    1    5    5    0    0  0.15020463694E+02  0.52149259927E+00  0.29647617308E+02  0.33239547171E+02  0.00000000000E+00 0.  1.
          5    1    4    4  501    0  0.80241056926E+01 -0.54598116317E+02  0.14630033298E+02  0.57243784395E+02  0.41800000000E+01 0.  1.
         -5    1    4    4    0  501  0.36591170603E+02 -0.57615911554E+02  0.25163632348E+03  0.26076199632E+03  0.41800000000E+01 0.  1.
</event>
<event>
11    1  0.1705163E-008  0.1656761E+03  0.7561462E-02  0.1081857E+00
         22   -1    0    0    0    0  0.00000000000E+00  0.00000000000E+00  0.64147593158E+03  0.64147593158E+03  0.00000000000E+00 0.  1.
         22   -1    0    0    0    0 -0.00000000000E+00 -0.00000000000E+00 -0.79659984017E+03  0.79659984017E+03  0.00000000000E+00 0. -1.
         24    2    1    2    0    0 -0.34385781824E+01 -0.29209784231E+02 -0.50055995370E+03  0.50782073681E+03  0.80352959979E+02 0.  0.
         25    2    1    2    0    0 -0.70072934582E+02  0.10852728389E+03 -0.25662346940E+03  0.31335609294E+03  0.12509215972E+03 0.  0.
        -24    2    1    2    0    0  0.73511512764E+02 -0.79317499656E+02  0.60205951451E+03  0.61689894200E+03  0.79958973035E+02 0.  0.
        -13    1    3    3    0    0  0.13924702170E+01  0.77041971747E+01 -0.22832214437E+01  0.81551656987E+01  0.00000000000E+00 0.  1.
         14    1    3    3    0    0 -0.48310483993E+01 -0.36913981406E+02 -0.49827673225E+03  0.49966557111E+03  0.00000000000E+00 0. -1.
         13    1    5    5    0    0  0.65396469377E+02 -0.21647211665E+02  0.22317123370E+03  0.23356091182E+03  0.00000000000E+00 0. -1.
        -14    1    5    5    0    0  0.81150433872E+01 -0.57670287990E+02  0.37888828081E+03  0.38333803018E+03  0.00000000000E+00 0.  1.
          5    1    4    4  501    0 -0.39002710212E+02  0.11297179725E+03 -0.10716089559E+03  0.16057636289E+03  0.41800000000E+01 0.  1.
         -5    1    4    4    0  501 -0.31070224370E+02 -0.44445133600E+01 -0.14946257381E+03  0.15277973004E+03  0.41800000000E+01 0.  1.
</event>
<event>
11    1  0.7882745E-009  0.1611217E+03  0.7561462E-02  0.1086027E+00
         22   -1    0    0    0    0  0.00000000000E+00  0.00000000000E+00  0.81074284150E+03  0.81074284150E+03  0.00000000000E+00 0.  1.
         22   -1    0    0    0    0 -0.00000000000E+00 -0.00000000000E+00 -0.33644461530E+03  0.33644461530E+03  0.00000000000E+00 0. -1.
         24    2    1    2    0    0  0.92150503863E+02  0.14751730462E+01 -0.25242745008E+03  0.28213066897E+03  0.85931398920E+02 0.  0.
         25    2    1    2    0    0 -0.17891292075E+03  0.31180046286E+02  0.13367106014E+03  0.25788737622E+03  0.12512361088E+03 0.  0.
        -24    2    1    2    0    0  0.86762416885E+02 -0.32655219332E+02  0.59305461613E+03  0.60716941161E+03  0.91361021983E+02 0.  0.
        -11    1    3    3    0    0  0.23091199329E+02  0.29852035786E+02 -0.32264073865E+02  0.49651968635E+02  0.00000000000E+00 0.  1.
         12    1    3    3    0    0  0.69059304534E+02 -0.28376862739E+02 -0.22016337622E+03  0.23247870033E+03  0.00000000000E+00 0. -1.
         13    1    5    5    0    0 -0.31355102555E+01 -0.10625557932E+02  0.54991389221E+01  0.12368283423E+02  0.00000000000E+00 0. -1.
        -14    1    5    5    0    0  0.89897927141E+02 -0.22029661400E+02  0.58755547721E+03  0.59480112818E+03  0.00000000000E+00 0.  1.
          5    1    4    4  501    0 -0.13864513092E+03 -0.32018498093E+02  0.10755981760E+03  0.17842153264E+03  0.41800000000E+01 0.  1.
         -5    1    4    4    0  501 -0.40267789828E+02  0.63198544379E+02  0.26111242539E+02  0.79465843582E+02  0.41800000000E+01 0.  1.
</event>
<event>
11    1  0.7882745E-009  0.1275138E+03  0.7561462E-02  0.1122362E+00
         22   -1    0    0    0    0  0.00000000000E+00  0.00000000000E+00  0.50074587420E+03  0.50074587420E+03  0.00000000000E+00 0.  1.
         22   -1    0    0    0    0 -0.00000000000E+00 -0.00000000000E+00 -0.92240072748E+02  0.92240072748E+02  0.00000000000E+00 0.  1.
         24    2    1    2    0    0  0.23625962335E+02 -0.11407583435E+02 -0.39887145618E+02  0.93147861062E+02  0.79982626731E+02 0.  0.
         25    2    1    2    0    0 -0.15545115258E+02 -0.20345772677E+01  0.18446011491E+03  0.22342562317E+03  0.12509070703E+03 0.  0.
        -24    2    1    2    0    0 -0.80808470768E+01  0.13442160703E+02  0.26393283217E+03  0.27641246271E+03  0.80605941930E+02 0.  0.
        -11    1    3    3    0    0  0.46349935544E+02  0.13213164990E+02 -0.34359775965E+02  0.59190357816E+02  0.00000000000E+00 0.  1.
         12    1    3    3    0    0 -0.22723973209E+02 -0.24620748426E+02 -0.55273696528E+01  0.33957503246E+02  0.00000000000E+00 0. -1.
         13    1    5    5    0    0 -0.33098704289E+02 -0.28596233110E+01  0.47708763851E+02  0.58136286597E+02  0.00000000000E+00 0. -1.
        -14    1    5    5    0    0  0.25017857212E+02  0.16301784014E+02  0.21622406831E+03  0.21827617612E+03  0.00000000000E+00 0.  1.
          5    1    4    4  501    0  0.58517739836E+01  0.14678806016E+02  0.19374119222E+03  0.19442950540E+03  0.41800000000E+01 0. -1.
         -5    1    4    4    0  501 -0.21396889242E+02 -0.16713383283E+02 -0.92810773167E+01  0.28996117777E+02  0.41800000000E+01 0. -1.
</event>
<event>
11    1  0.7882745E-009  0.1826044E+03  0.7561462E-02  0.1067555E+00
         22   -1    0    0    0    0  0.00000000000E+00  0.00000000000E+00  0.36215250869E+02  0.36215250869E+02  0.00000000000E+00 0.  1.
         22   -1    0    0    0    0 -0.00000000000E+00 -0.00000000000E+00 -0.26420315011E+04  0.26420315011E+04  0.00000000000E+00 0.  1.
         24    2    1    2    0    0 -0.73385057479E+02 -0.56491878102E+02 -0.17356823024E+04  0.17400120416E+04  0.80449681091E+02 0.  0.
         25    2    1    2    0    0  0.29892455438E+02  0.16431018469E+03 -0.48707700503E+03  0.52988981463E+03  0.12509121129E+03 0.  0.
        -24    2    1    2    0    0  0.43492602041E+02 -0.10781830659E+03 -0.38305694280E+03  0.40834489571E+03  0.80601108891E+02 0.  0.
        -13    1    3    3    0    0 -0.75995947112E+02 -0.21486717552E+02 -0.14552460189E+04  0.14573874017E+04  0.00000000000E+00 0.  1.
         14    1    3    3    0    0  0.26108896332E+01 -0.35005160549E+02 -0.28043628349E+03  0.28262463995E+03  0.00000000000E+00 0. -1.
         11    1    5    5    0    0  0.35135987450E+02 -0.41154708195E+02 -0.28097025886E+03  0.28613376939E+03  0.00000000000E+00 0. -1.
        -12    1    5    5    0    0  0.83566145903E+01 -0.66663598390E+02 -0.10208668394E+03  0.12221112632E+03  0.00000000000E+00 0.  1.
          5    1    4    4  501    0  0.73148937092E+02  0.97642420889E+02 -0.35811380462E+03  0.37834875289E+03  0.41800000000E+01 0.  1.
         -5    1    4    4    0  501 -0.43256481654E+02  0.66667763798E+02 -0.12896320041E+03  0.15154106174E+03  0.41800000000E+01 0.  1.
</event>
<event>
11    1  0.7882745E-009  0.2151785E+03  0.7561462E-02  0.1044280E+00
         22   -1    0    0    0    0  0.00000000000E+00  0.00000000000E+00  0.21075159159E+04  0.21075159159E+04  0.00000000000E+00 0. -1.
         22   -1    0    0    0    0 -0.00000000000E+00 -0.00000000000E+00 -0.12924187607E+03  0.12924187607E+03  0.00000000000E+00 0.  1.
         24    2    1    2    0    0  0.11667282926E+03 -0.12153343111E+03 -0.96979456659E+01  0.19042572070E+03  0.88232539278E+02 0.  0.
         25    2    1    2    0    0 -0.14286296420E+03  0.16326954793E+03  0.54201048001E+03  0.59706739102E+03  0.12508931668E+03 0.  0.
        -24    2    1    2    0    0  0.26190134944E+02 -0.41736116813E+02  0.14459615054E+04  0.14492646802E+04  0.84472548859E+02 0.  0.
        -13    1    3    3    0    0  0.98921209020E+02 -0.13069149459E+03  0.74834049977E+01  0.16407825481E+03  0.00000000000E+00 0.  1.
         14    1    3    3    0    0  0.17751620241E+02  0.91580634792E+01 -0.17181350664E+02  0.26347465884E+02  0.00000000000E+00 0. -1.
         11    1    5    5    0    0  0.39708767614E+02 -0.37621925947E+01  0.11351199654E+04  0.11358205299E+04  0.00000000000E+00 0. -1.
        -12    1    5    5    0    0 -0.13518632670E+02 -0.37973924218E+02  0.31084154006E+03  0.31344415033E+03  0.00000000000E+00 0.  1.
          5    1    4    4  501    0 -0.15648110118E+03  0.12725472590E+03  0.37710398657E+03  0.42767392880E+03  0.41800000000E+01 0. -1.
         -5    1    4    4    0  501  0.13618136978E+02  0.36014822029E+02  0.16490649345E+03  0.16939346221E+03  0.41800000000E+01 0. -1.
</event>
<event>
11    1  0.7882745E-009  0.1652711E+03  0.7561462E-02  0.1082222E+00
         22   -1    0    0    0    0  0.00000000000E+00  0.00000000000E+00  0.38034057187E+03  0.38034057187E+03  0.00000000000E+00 0. -1.
         22   -1    0    0    0    0 -0.00000000000E+00 -0.00000000000E+00 -0.14679790450E+04  0.14679790450E+04  0.00000000000E+00 0.  1.
         24    2    1    2    0    0  0.15005370584E+02 -0.16573786591E+02 -0.13213923014E+04  0.13238103360E+04  0.76787628502E+02 0.  0.
         25    2    1    2    0    0 -0.12155664433E+03  0.13494845907E+02 -0.73092741184E+02  0.18960257784E+03  0.12509380507E+03 0.  0.
        -24    2    1    2    0    0  0.10655127374E+03  0.30789406840E+01  0.30684656953E+03  0.33490670297E+03  0.81517045174E+02 0.  0.
        -13    1    3    3    0    0  0.16147011261E+02  0.18215229389E+02 -0.10384205028E+04  0.10387057626E+04  0.00000000000E+00 0.  1.
         14    1    3    3    0    0 -0.11416406777E+01 -0.34789015980E+02 -0.28297179864E+03  0.28510457345E+03  0.00000000000E+00 0. -1.
         11    1    5    5    0    0  0.49869488555E+02  0.27262260563E+02  0.22721206839E+03  0.23421255467E+03  0.00000000000E+00 0. -1.
        -12    1    5    5    0    0  0.56681785187E+02 -0.24183319879E+02  0.79634501132E+02  0.10069414831E+03  0.00000000000E+00 0.  1.
          5    1    4    4  501    0 -0.25266091247E+02  0.56686481244E+02 -0.53793679522E+02  0.82237247518E+02  0.41800000000E+01 0. -1.
         -5    1    4    4    0  501 -0.96290553078E+02 -0.43191635337E+02 -0.19299061662E+02  0.10736533033E+03  0.41800000000E+01 0. -1.
</event>
<event>
11    1  0.7882745E-009  0.1930287E+03  0.7561462E-02  0.1059566E+00
         22   -1    0    0    0    0  0.00000000000E+00  0.00000000000E+00  0.46814161762E+03  0.46814161762E+03  0.00000000000E+00 0.  1.
         22   -1    0    0    0    0 -0.00000000000E+00 -0.00000000000E+00 -0.20233280513E+04  0.20233280513E+04  0.00000000000E+00 0.  1.
        -24    2    1    2    0    0 -0.12808813381E+03  0.64146673818E+02 -0.16374819251E+04  0.16464376901E+04  0.94279619561E+02 0.  0.
         25    2    1    2    0    0  0.18943493799E+03 -0.99938159740E+01 -0.33911411975E+03  0.40820118120E+03  0.12507736018E+03 0.  0.
         24    2    1    2    0    0 -0.61346804175E+02 -0.54152857844E+02  0.42140961122E+03  0.43683079754E+03  0.80864843144E+02 0.  0.
        -13    1    5    5    0    0 -0.47136939747E+02 -0.66003275695E+02  0.40166322649E+03  0.40977026613E+03  0.00000000000E+00 0.  1.
         14    1    5    5    0    0 -0.14209864428E+02  0.11850417851E+02  0.19746384735E+02  0.27060531414E+02  0.00000000000E+00 0. -1.
         11    1    3    3    0    0  0.29940359524E+01  0.29850883127E+02 -0.50286656363E+03  0.50376067760E+03  0.00000000000E+00 0. -1.
        -12    1    3    3    0    0 -0.13108216977E+03  0.34295790691E+02 -0.11346153615E+04  0.11426770125E+04  0.00000000000E+00 0.  1.
          5    1    4    4  501    0  0.38620882681E+02 -0.27035905439E+01 -0.19698743673E+03  0.20079941387E+03  0.41800000000E+01 0.  1.
         -5    1    4    4    0  501  0.15081405531E+03 -0.72902254300E+01 -0.14212668302E+03  0.20740176733E+03  0.41800000000E+01 0.  1.
</event>
<event>
11    1  0.7882745E-009  0.1320320E+03  0.7561462E-02  0.1116797E+00
         22   -1    0    0    0    0  0.00000000000E+00  0.00000000000E+00  0.34707530982E+03  0.34707530982E+03  0.00000000000E+00 0. -1.
         22   -1    0    0    0    0 -0.00000000000E+00 -0.00000000000E+00 -0.27528075024E+03  0.27528075024E+03  0.00000000000E+00 0. -1.
         24    2    1    2    0    0  0.23075040907E+02  0.31508031142E+02 -0.19051317303E+03  0.21000113180E+03  0.79246405084E+02 0.  0.
         25    2    1    2    0    0 -0.30795781723E+02 -0.59713398698E+02  0.62221024979E+01  0.14212933438E+03  0.12509181819E+03 0.  0.
        -24    2    1    2    0    0  0.77207408162E+01  0.28205367557E+02  0.25608563011E+03  0.27022559388E+03  0.81159528345E+02 0.  0.
        -11    1    3    3    0    0  0.26725275302E+02  0.17851904047E+02 -0.17856215871E+02  0.36766496479E+02  0.00000000000E+00 0.  1.
         12    1    3    3    0    0 -0.36502343953E+01  0.13656127094E+02 -0.17265695716E+03  0.17323463532E+03  0.00000000000E+00 0. -1.
         11    1    5    5    0    0 -0.39475573628E+01  0.25101781857E+02  0.25687224242E+03  0.25812599945E+03  0.00000000000E+00 0. -1.
        -12    1    5    5    0    0  0.11668298179E+02  0.31035856997E+01 -0.78661231264E+00  0.12099594436E+02  0.00000000000E+00 0.  1.
          5    1    4    4  501    0 -0.14991725077E+02  0.33341594207E+02  0.26692191984E+02  0.45457224266E+02  0.41800000000E+01 0. -1.
         -5    1    4    4    0  501 -0.15804056646E+02 -0.93054992905E+02 -0.20470089486E+02  0.96672110118E+02  0.41800000000E+01 0. -1.
</event>
<event>
11    1  0.7882745E-009  0.1802957E+03  0.7561462E-02  0.1069404E+00
         22   -1    0    0    0    0  0.00000000000E+00  0.00000000000E+00  0.20679117927E+04  0.20679117927E+04  0.00000000000E+00 0. -1.
         22   -1    0    0    0    0 -0.00000000000E+00 -0.00000000000E+00 -0.45123332876E+03  0.45123332876E+03  0.00000000000E+00 0. -1.
         24    2    1    2    0    0 -0.37403615921E+02 -0.37809646844E+02 -0.42154458741E+03  0.43243350975E+03  0.80438183125E+02 0.  0.
         25    2    1    2    0    0 -0.82831032796E+02  0.93033122072E+02  0.35598336705E+03  0.39735057880E+03  0.12508870078E+03 0.  0.
        -24    2    1    2    0    0  0.12023464872E+03 -0.55223475227E+02  0.16822396843E+04  0.16893610329E+04  0.80649495564E+02 0.  0.
        -11    1    3    3    0    0 -0.28224423236E+01 -0.33178348773E+02 -0.55447381417E+02  0.64677516295E+02  0.00000000000E+00 0.  1.
         12    1    3    3    0    0 -0.34581173598E+02 -0.46312980709E+01 -0.36609720599E+03  0.36775599346E+03  0.00000000000E+00 0. -1.
         11    1    5    5    0    0  0.98609251028E+02 -0.69377884014E+01  0.92247707365E+03  0.92775851853E+03  0.00000000000E+00 0. -1.
        -12    1    5    5    0    0  0.21625397690E+02 -0.48285686826E+02  0.75976261063E+03  0.76160251436E+03  0.00000000000E+00 0.  1.
          5    1    4    4  501    0 -0.45820367888E+02  0.11358954857E+03  0.19073809988E+03  0.22671697511E+03  0.41800000000E+01 0.  1.
         -5    1    4    4    0  501 -0.37010664908E+02 -0.20556426496E+02  0.16524526716E+03  0.17063360369E+03  0.41800000000E+01 0.  1.
</event>
<event>
11    1  0.7882745E-009  0.2526680E+03  0.7561462E-02  0.1022487E+00
         22   -1    0    0    0    0  0.00000000000E+00  0.00000000000E+00  0.60748363362E+03  0.60748363362E+03  0.00000000000E+00 0.  1.
         22   -1    0    0    0    0 -0.00000000000E+00 -0.00000000000E+00 -0.22782956166E+04  0.22782956166E+04  0.00000000000E+00 0. -1.
        -24    2    1    2    0    0 -0.34318111059E+02  0.14075150632E+02 -0.21770266483E+04  0.21788314735E+04  0.80533968046E+02 0.  0.
         25    2    1    2    0    0 -0.86933781676E+02  0.18289251298E+03  0.17412801898E+03  0.29491544363E+03  0.12508956071E+03 0.  0.
         24    2    1    2    0    0  0.12125189274E+03 -0.19696766361E+03  0.33208664631E+03  0.41203233309E+03  0.77400393147E+02 0.  0.
        -13    1    5    5    0    0  0.99115263415E+02 -0.13000646445E+03  0.28046789389E+03  0.32463480366E+03  0.00000000000E+00 0.  1.
         14    1    5    5    0    0  0.22136629320E+02 -0.66961199164E+02  0.51618752414E+02  0.87397529438E+02  0.00000000000E+00 0. -1.
         13    1    3    3    0    0 -0.11461777880E+01  0.41537059468E+02 -0.13961840932E+04  0.13968022993E+04  0.00000000000E+00 0. -1.
        -14    1    3    3    0    0 -0.33171933271E+02 -0.27461908836E+02 -0.78084255507E+03  0.78202917427E+03  0.00000000000E+00 0.  1.
          5    1    4    4  501    0 -0.11864219987E+03  0.15373132612E+03  0.14959994718E+03  0.24516710386E+03  0.41800000000E+01 0.  1.
         -5    1    4    4    0  501  0.31708418194E+02  0.29161186857E+02  0.24528071800E+02  0.49748339766E+02  0.41800000000E+01 0.  1.
</event>
<event>
11    1  0.7882745E-009  0.1961835E+03  0.7561462E-02  0.1057256E+00
         22   -1    0    0    0    0  0.00000000000E+00  0.00000000000E+00  0.17594277360E+04  0.17594277360E+04  0.00000000000E+00 0. -1.
         22   -1    0    0    0    0 -0.00000000000E+00 -0.00000000000E+00 -0.70552549124E+03  0.70552549124E+03  0.00000000000E+00 0.  1.
         24    2    1    2    0    0 -0.15121314853E+03 -0.35113359224E+02 -0.58398301060E+03  0.61035266543E+03  0.85999158358E+02 0.  0.
         25    2    1    2    0    0  0.12279405848E+03  0.36661484856E+02 -0.33228413966E+02  0.18213867127E+03  0.12509165762E+03 0.  0.
        -24    2    1    2    0    0  0.28419090050E+02 -0.15481256320E+01  0.16711136694E+04  0.16724618906E+04  0.60809852215E+02 0.  0.
        -13    1    3    3    0    0 -0.13432017409E+03 -0.53824140404E+02 -0.54536142438E+03  0.56423224869E+03  0.00000000000E+00 0.  1.
         14    1    3    3    0    0 -0.16892974446E+02  0.18710781180E+02 -0.38621586219E+02  0.46120416738E+02  0.00000000000E+00 0. -1.
         11    1    5    5    0    0  0.43278916985E+01 -0.20411387393E+02  0.12741236685E+04  0.12742945021E+04  0.00000000000E+00 0. -1.
        -12    1    5    5    0    0  0.24091198352E+02  0.18863261761E+02  0.39699000083E+03  0.39816738847E+03  0.00000000000E+00 0.  1.
          5    1    4    4  501    0  0.24876182248E+02 -0.41048151471E+02 -0.30520170898E+02  0.57032696009E+02  0.41800000000E+01 0. -1.
         -5    1    4    4    0  501  0.97917876235E+02  0.77709636326E+02 -0.27082430679E+01  0.12510597526E+03  0.41800000000E+01 0. -1.
</event>
<event>
11    1  0.7882745E-009  0.1410673E+03  0.7561462E-02  0.1106372E+00
         22   -1    0    0    0    0  0.00000000000E+00  0.00000000000E+00  0.19770679097E+04  0.19770679097E+04  0.00000000000E+00 0.  1.
         22   -1    0    0    0    0 -0.00000000000E+00 -0.00000000000E+00 -0.81064843620E+02  0.81064843620E+02  0.00000000000E+00 0. -1.
        -24    2    1    2    0    0  0.29231357783E+02 -0.58747726436E+02 -0.27958077177E+02  0.10763014989E+03  0.80602899747E+02 0.  0.
         25    2    1    2    0    0 -0.57499515106E+02  0.38494860490E+02  0.41510989104E+03  0.43903495919E+03  0.12508966874E+03 0.  0.
         24    2    1    2    0    0  0.28268157323E+02  0.20252865946E+02  0.15088512522E+04  0.15114676442E+04  0.81811190966E+02 0.  0.
        -13    1    5    5    0    0  0.18216097824E+02  0.44483181418E+02  0.13114949450E+04  0.13123755447E+04  0.00000000000E+00 0.  1.
         14    1    5    5    0    0  0.10052059499E+02 -0.24230315472E+02  0.19735630724E+03  0.19909209953E+03  0.00000000000E+00 0. -1.
         11    1    3    3    0    0  0.50693732696E+02 -0.58995767339E+02 -0.77821897253E+01  0.78172358130E+02  0.00000000000E+00 0. -1.
        -12    1    3    3    0    0 -0.21462374913E+02  0.24804090333E+00 -0.20175887452E+02  0.29457791765E+02  0.00000000000E+00 0.  1.
          5    1    4    4  501    0 -0.84803635842E+02  0.32657263170E+02  0.39238685887E+03  0.40279408250E+03  0.41800000000E+01 0.  1.
         -5    1    4    4    0  501  0.27304120736E+02  0.58375973194E+01  0.22723032180E+02  0.36240876687E+02  0.41800000000E+01 0.  1.
</event>
<event>
11    1  0.7882745E-009  0.1309941E+03  0.7561462E-02  0.1118054E+00
         22   -1    0    0    0    0  0.00000000000E+00  0.00000000000E+00  0.23351223412E+04  0.23351223412E+04  0.00000000000E+00 0.  1.
         22   -1    0    0    0    0 -0.00000000000E+00 -0.00000000000E+00 -0.12576676097E+03  0.12576676097E+03  0.00000000000E+00 0.  1.
        -24    2    1    2    0    0 -0.36122024736E+02 -0.18645201902E+02 -0.89965945082E+02  0.12731342367E+03  0.80389006386E+02 0.  0.
         25    2    1    2    0    0  0.13858418162E+02  0.76536427803E+01  0.22745864658E+03  0.26006839734E+03  0.12508997318E+03 0.  0.
         24    2    1    2    0    0  0.22263606574E+02  0.10991559122E+02  0.20718628787E+04  0.20735072811E+04  0.78741184907E+02 0.  0.
        -13    1    5    5    0    0  0.34959124431E+02  0.36421313798E+02  0.15944939410E+04  0.15952929450E+04  0.00000000000E+00 0.  1.
         14    1    5    5    0    0 -0.12695517857E+02 -0.25429754677E+02  0.47736893768E+03  0.47821433611E+03  0.00000000000E+00 0. -1.
         11    1    3    3    0    0 -0.60925363923E+01  0.11113248070E+02  0.11674390323E+02  0.17231212139E+02  0.00000000000E+00 0. -1.
        -12    1    3    3    0    0 -0.30029488344E+02 -0.29758449972E+02 -0.10164033540E+03  0.11008221153E+03  0.00000000000E+00 0.  1.
          5    1    4    4  501    0 -0.24788880123E+01  0.37803868550E+01 -0.15404655889E+02  0.16589515773E+02  0.41800000000E+01 0. -1.
         -5    1    4    4    0  501  0.16337306175E+02  0.38732559253E+01  0.24286330246E+03  0.24347888157E+03  0.41800000000E+01 0. -1.
</event>
<event>
11    1  0.7882745E-009  0.1318036E+03  0.7561462E-02  0.1117073E+00
         22   -1    0    0    0    0  0.00000000000E+00  0.00000000000E+00  0.13991969211E+04  0.13991969211E+04  0.00000000000E+00 0. -1.
         22   -1    0    0    0    0 -0.00000000000E+00 -0.00000000000E+00 -0.45536753668E+02  0.45536753668E+02  0.00000000000E+00 0.  1.
         24    2    1    2    0    0 -0.21571826445E+02  0.26193467029E+01  0.32576047599E+02  0.90521214859E+02  0.81613030755E+02 0.  0.
         25    2    1    2    0    0  0.28682256094E+02  0.37995984870E+02  0.30380244964E+03  0.33197850169E+03  0.12508968982E+03 0.  0.
        -24    2    1    2    0    0 -0.71104296490E+01 -0.40615331572E+02  0.10172816702E+04  0.10222339582E+04  0.91652089144E+02 0.  0.
        -11    1    3    3    0    0 -0.31291646721E+02 -0.38439846486E+01 -0.19555182460E+02  0.37099171602E+02  0.00000000000E+00 0.  1.
         12    1    3    3    0    0  0.97198202761E+01  0.64633313515E+01  0.52131230059E+02  0.53422043257E+02  0.00000000000E+00 0. -1.
         11    1    5    5    0    0  0.23849478203E+02 -0.30889701312E+02  0.89083752633E+03  0.89169191404E+03  0.00000000000E+00 0. -1.
        -12    1    5    5    0    0 -0.30959907852E+02 -0.97256302604E+01  0.12644414389E+03  0.13054204420E+03  0.00000000000E+00 0.  1.
          5    1    4    4  501    0  0.20198395186E+02  0.83586990630E+02  0.17530151180E+03  0.19530195240E+03  0.41800000000E+01 0. -1.
         -5    1    4    4    0  501  0.84838609080E+01 -0.45591005761E+02  0.12850093784E+03  0.13667654930E+03  0.41800000000E+01 0. -1.
</event>
<event>
11    1  0.7882745E-009  0.1470710E+03  0.7561462E-02  0.1099910E+00
         22   -1    0    0    0    0  0.00000000000E+00  0.00000000000E+00  0.35344081412E+03  0.35344081412E+03  0.00000000000E+00 0. -1.
         22   -1    0    0    0    0 -0.00000000000E+00 -0.00000000000E+00 -0.12390160308E+04  0.12390160308E+04  0.00000000000E+00 0.  1.
        -24    2    1    2    0    0 -0.69335189348E+02  0.34673406499E+02 -0.11759391737E+04  0.11812199414E+04  0.80237123966E+02 0.  0.
         25    2    1    2    0    0  0.50895745952E+02 -0.56200367629E+02  0.47309685542E+02  0.15373362827E+03  0.12508782449E+03 0.  0.
         24    2    1    2    0    0  0.18439443396E+02  0.21526961130E+02  0.24305427142E+03  0.25750327534E+03  0.80181885902E+02 0.  0.
        -13    1    5    5    0    0 -0.50071939718E+01 -0.24552406840E+02  0.34522695475E+02  0.42658049369E+02  0.00000000000E+00 0.  1.
         14    1    5    5    0    0  0.23446637367E+02  0.46079367969E+02  0.20853157595E+03  0.21484522597E+03  0.00000000000E+00 0. -1.
         11    1    3    3    0    0 -0.31144045114E+02 -0.25435584446E+02 -0.45343465858E+03  0.45521413654E+03  0.00000000000E+00 0. -1.
        -12    1    3    3    0    0 -0.38191144233E+02  0.60108990945E+02 -0.72250451509E+03  0.72600580481E+03  0.00000000000E+00 0.  1.
          5    1    4    4  501    0  0.30626614814E+02 -0.40085603910E+02  0.90214938132E+02  0.10344589232E+03  0.41800000000E+01 0.  1.
         -5    1    4    4    0  501  0.20269131138E+02 -0.16114763719E+02 -0.42905252590E+02  0.50287735947E+02  0.41800000000E+01 0.  1.
</event>
<event>
11    1  0.7882745E-009  0.1442614E+03  0.7561462E-02  0.1102891E+00
         22   -1    0    0    0    0  0.00000000000E+00  0.00000000000E+00  0.26871883777E+03  0.26871883777E+03  0.00000000000E+00 0.  1.
         22   -1    0    0    0    0 -0.00000000000E+00 -0.00000000000E+00 -0.85974169222E+03  0.85974169222E+03  0.00000000000E+00 0.  1.
         24    2    1    2    0    0  0.20616556819E+02 -0.66850239029E+02 -0.69704088473E+03  0.70500522054E+03  0.79198289861E+02 0.  0.
         25    2    1    2    0    0 -0.31976551857E+02  0.85203427247E+02 -0.11105262979E+03  0.19042530702E+03  0.12508791742E+03 0.  0.
        -24    2    1    2    0    0  0.11359995038E+02 -0.18353188217E+02  0.21707066008E+03  0.23303000244E+03  0.81959877797E+02 0.  0.
        -13    1    3    3    0    0  0.29291862899E+02 -0.23383396897E+02 -0.55371572747E+03  0.55498279553E+03  0.00000000000E+00 0.  1.
         14    1    3    3    0    0 -0.86753060805E+01 -0.43466842133E+02 -0.14332515726E+03  0.15002242500E+03  0.00000000000E+00 0. -1.
         13    1    5    5    0    0 -0.17094190227E+02  0.26403395325E+02  0.89882392045E+02  0.95227070857E+02  0.00000000000E+00 0. -1.
        -14    1    5    5    0    0  0.28454185265E+02 -0.44756583543E+02  0.12718826803E+03  0.13780293159E+03  0.00000000000E+00 0.  1.
          5    1    4    4  501    0 -0.63338045973E+02  0.79202067107E+02 -0.11983793682E+03  0.15704546795E+03  0.41800000000E+01 0.  1.
         -5    1    4    4    0  501  0.31361494116E+02  0.60013601397E+01  0.87853070279E+01  0.33379839069E+02  0.41800000000E+01 0.  1.
</event>
<event>
11    1  0.7882745E-009  0.1608240E+03  0.7561462E-02  0.1086305E+00
         22   -1    0    0    0    0  0.00000000000E+00  0.00000000000E+00  0.31667146853E+03  0.31667146853E+03  0.00000000000E+00 0. -1.
         22   -1    0    0    0    0 -0.00000000000E+00 -0.00000000000E+00 -0.11113353795E+04  0.11113353795E+04  0.00000000000E+00 0.  1.
        -24    2    1    2    0    0 -0.60972788113E+02 -0.14901592145E+02 -0.97894521805E+03  0.98430317726E+03  0.81112677606E+02 0.  0.
         25    2    1    2    0    0  0.10287873126E+03  0.10081950822E+03 -0.31813660651E+02  0.19340985368E+03  0.12508659365E+03 0.  0.
         24    2    1    2    0    0 -0.41905943148E+02 -0.85917916070E+02  0.21609496774E+03  0.25029381709E+03  0.82534619511E+02 0.  0.
        -13    1    5    5    0    0 -0.64600137084E+02 -0.58197892717E+02  0.12374191315E+03  0.15123568857E+03  0.00000000000E+00 0.  1.
         14    1    5    5    0    0  0.22694193936E+02 -0.27720023353E+02  0.92353054595E+02  0.99058128522E+02  0.00000000000E+00 0. -1.
         13    1    3    3    0    0 -0.30556773158E+02  0.20729200657E+01 -0.98105066016E+02  0.10277459492E+03  0.00000000000E+00 0. -1.
        -14    1    3    3    0    0 -0.30416014955E+02 -0.16974512211E+02 -0.88084015204E+03  0.88152858234E+03  0.00000000000E+00 0.  1.
          5    1    4    4  501    0  0.81494574371E+02  0.94151414733E+02 -0.74396071091E+02  0.14511410111E+03  0.41800000000E+01 0. -1.
         -5    1    4    4    0  501  0.21384156890E+02  0.66680934819E+01  0.42582410440E+02  0.48295752562E+02  0.41800000000E+01 0. -1.
</event>
<event>
11    1  0.7882745E-009  0.1604620E+03  0.7561462E-02  0.1086644E+00
         22   -1    0    0    0    0  0.00000000000E+00  0.00000000000E+00  0.72525650617E+03  0.72525650617E+03  0.00000000000E+00 0. -1.
         22   -1    0    0    0    0 -0.00000000000E+00 -0.00000000000E+00 -0.13529966557E+03  0.13529966557E+03  0.00000000000E+00 0.  1.
        -24    2    1    2    0    0  0.87355221186E+02 -0.32535184682E+02 -0.55175960258E+02  0.13483886712E+03  0.80297326142E+02 0.  0.
         25    2    1    2    0    0 -0.14495344312E+03  0.47714469560E+02  0.25045312098E+03  0.31884718369E+03  0.12509432224E+03 0.  0.
         24    2    1    2    0    0  0.57598221937E+02 -0.15179284878E+02  0.39467967988E+03  0.40687012094E+03  0.78887766754E+02 0.  0.
        -13    1    5    5    0    0 -0.12642498861E+02  0.86302462167E+01  0.21503987566E+02  0.26395746030E+02  0.00000000000E+00 0.  1.
         14    1    5    5    0    0  0.70240720798E+02 -0.23809531095E+02  0.37317569231E+03  0.38047437491E+03  0.00000000000E+00 0. -1.
         13    1    3    3    0    0  0.38937179795E+02  0.20827374478E+02 -0.11949602723E+00  0.44157646873E+02  0.00000000000E+00 0. -1.
        -14    1    3    3    0    0  0.48418041391E+02 -0.53362559160E+02 -0.55056464230E+02  0.90681220249E+02  0.00000000000E+00 0.  1.
          5    1    4    4  501    0 -0.14450120533E+03  0.35548424236E+02  0.12979887539E+03  0.19750825112E+03  0.41800000000E+01 0. -1.
         -5    1    4    4    0  501 -0.45223779274E+00  0.12166045325E+02  0.12065424559E+03  0.12133893256E+03  0.41800000000E+01 0. -1.
</event>
<event>
11    1  0.7882745E-009  0.1514039E+03  0.7561462E-02  0.1095453E+00
         22   -1    0    0    0    0  0.00000000000E+00  0.00000000000E+00  0.92862685081E+02  0.92862685081E+02  0.00000000000E+00 0.  1.
         22   -1    0    0    0    0 -0.00000000000E+00 -0.00000000000E+00 -0.11326080877E+04  0.11326080877E+04  0.00000000000E+00 0.  1.
         24    2    1    2    0    0 -0.15727117817E+02 -0.66088501289E+02 -0.81172495573E+03  0.81867384305E+03  0.81941596821E+02 0.  0.
         25    2    1    2    0    0  0.23676397392E+02  0.13780857885E+03 -0.22121526786E+03  0.29006184203E+03  0.12509157154E+03 0.  0.
        -24    2    1    2    0    0 -0.79492795750E+01 -0.71720077565E+02 -0.68051790089E+01  0.11673508769E+03  0.91508522357E+02 0.  0.
        -11    1    3    3    0    0 -0.42207629568E+02 -0.65965915725E+02 -0.53782043374E+03  0.54349223084E+03  0.00000000000E+00 0.  1.
         12    1    3    3    0    0  0.26480511751E+02 -0.12258556494E+00 -0.27390452199E+03  0.27518161221E+03  0.00000000000E+00 0. -1.
         13    1    5    5    0    0 -0.11782315357E+02  0.20754667807E+02  0.70922636741E+00  0.23876394053E+02  0.00000000000E+00 0. -1.
        -14    1    5    5    0    0  0.38330357820E+01 -0.92474745372E+02 -0.75144053763E+01  0.92858693632E+02  0.00000000000E+00 0.  1.
          5    1    4    4  501    0  0.73029837224E+02  0.69678612335E+02 -0.14322219988E+03  0.17526704505E+03  0.41800000000E+01 0.  1.
         -5    1    4    4    0  501 -0.49353439832E+02  0.68129966519E+02 -0.77993067974E+02  0.11479479698E+03  0.41800000000E+01 0.  1.
</event>
<event>
11    1  0.7882745E-009  0.1476048E+03  0.7561462E-02  0.1099352E+00
         22   -1    0    0    0    0  0.00000000000E+00  0.00000000000E+00  0.18753962180E+04  0.18753962180E+04  0.00000000000E+00 0.  1.
         22   -1    0    0    0    0 -0.00000000000E+00 -0.00000000000E+00 -0.22657367144E+02  0.22657367144E+02  0.00000000000E+00 0.  1.
         24    2    1    2    0    0 -0.45854198497E+02 -0.64508256161E+02  0.23921760865E+03  0.26444617057E+03  0.80266993268E+02 0.  0.
         25    2    1    2    0    0  0.43878999338E-01  0.88187212804E+02  0.81860442828E+03  0.83278814176E+03  0.12508354262E+03 0.  0.
        -24    2    1    2    0    0  0.45810319498E+02 -0.23678956644E+02  0.79491681397E+03  0.80081927286E+03  0.82216107197E+02 0.  0.
        -11    1    3    3    0    0 -0.15923482199E+02 -0.14821713860E+02  0.39201490092E+01  0.22104480436E+02  0.00000000000E+00 0.  1.
         12    1    3    3    0    0 -0.29930716298E+02 -0.49686542301E+02  0.23529745964E+03  0.24234169013E+03  0.00000000000E+00 0. -1.
         11    1    5    5    0    0  0.18571791284E+02  0.18568571639E+02  0.81348978614E+02  0.85483095438E+02  0.00000000000E+00 0. -1.
        -12    1    5    5    0    0  0.27238528214E+02 -0.42247528283E+02  0.71356783536E+03  0.71533617742E+03  0.00000000000E+00 0.  1.
          5    1    4    4  501    0 -0.19391974421E+02  0.45959122304E+02  0.92423446355E+02  0.10510877904E+03  0.41800000000E+01 0.  1.
         -5    1    4    4    0  501  0.19435853420E+02  0.42228090500E+02  0.72618098192E+03  0.72767936272E+03  0.41800000000E+01 0.  1.
</event>
<event>
11    1  0.7882745E-009  0.1294507E+03  0.7561462E-02  0.1119946E+00
         22   -1    0    0    0    0  0.00000000000E+00  0.00000000000E+00  0.62325590887E+03  0.62325590887E+03  0.00000000000E+00 0.  1.
         22   -1    0    0    0    0 -0.00000000000E+00 -0.00000000000E+00 -0.10571572096E+04  0.10571572096E+04  0.00000000000E+00 0.  1.
        -24    2    1    2    0    0  0.32608456605E+02  0.70276017763E+01 -0.10352292294E+04  0.10390907815E+04  0.83050563225E+02 0.  0.
         25    2    1    2    0    0 -0.30223576457E+02 -0.12676574869E+01  0.46734968809E+03  0.48474378481E+03  0.12508291021E+03 0.  0.
         24    2    1    2    0    0 -0.23848801479E+01 -0.57599442895E+01  0.13397824065E+03  0.15657855214E+03  0.80794860048E+02 0.  0.
        -11    1    5    5    0    0  0.20452979558E+02 -0.28595261222E+02  0.11231794610E+03  0.11769169195E+03  0.00000000000E+00 0.  1.
         12    1    5    5    0    0 -0.22837859706E+02  0.22835316932E+02  0.21660294546E+02  0.38886860187E+02  0.00000000000E+00 0. -1.
         11    1    3    3    0    0  0.20511779061E+02 -0.37829427953E+02 -0.50434859270E+03  0.50618109572E+03  0.00000000000E+00 0. -1.
        -12    1    3    3    0    0  0.12096677544E+02  0.44857029729E+02 -0.53088063674E+03  0.53290968578E+03  0.00000000000E+00 0.  1.
          5    1    4    4  501    0  0.20256149365E+02 -0.11883733665E+02  0.12445827934E+02  0.26905496574E+02  0.41800000000E+01 0. -1.
         -5    1    4    4    0  501 -0.50479725822E+02  0.10616076178E+02  0.45490386016E+03  0.45783828824E+03  0.41800000000E+01 0. -1.
</event>
<event>
11    1  0.7882745E-009  0.1482587E+03  0.7561462E-02  0.1098671E+00
         22   -1    0    0    0    0  0.00000000000E+00  0.00000000000E+00  0.74640029006E+03  0.74640029006E+03  0.00000000000E+00 0. -1.
         22   -1    0    0    0    0 -0.00000000000E+00 -0.00000000000E+00 -0.95036262546E+03  0.95036262546E+03  0.00000000000E+00 0.  1.
        -24    2    1    2    0    0 -0.40369361449E+02 -0.83712074656E+02 -0.91992415995E+03  0.92835761274E+03  0.83366661740E+02 0.  0.
         25    2    1    2    0    0  0.15469909319E+02 -0.37267879989E+02  0.31382811713E+03  0.34024141868E+03  0.12509165803E+03 0.  0.
         24    2    1    2    0    0  0.24899452129E+02  0.12097995464E+03  0.40213370742E+03  0.42816388410E+03  0.79728670261E+02 0.  0.
        -13    1    5    5    0    0 -0.54024894207E+01  0.84931861357E+02  0.15733559532E+03  0.17887732534E+03  0.00000000000E+00 0.  1.
         14    1    5    5    0    0  0.30301941550E+02  0.36048093288E+02  0.24479811210E+03  0.24928655876E+03  0.00000000000E+00 0. -1.
         11    1    3    3    0    0 -0.25144575857E+00  0.16656601442E+02 -0.11064356880E+03  0.11189059350E+03  0.00000000000E+00 0. -1.
        -12    1    3    3    0    0 -0.40117915690E+02 -0.10036867610E+03 -0.80928059115E+03  0.81646701924E+03  0.00000000000E+00 0.  1.
          5    1    4    4  501    0  0.52829332595E+02 -0.29033267454E+02  0.66162379875E+02  0.89603582028E+02  0.41800000000E+01 0.  1.
         -5    1    4    4    0  501 -0.37359423275E+02 -0.82346125351E+01  0.24766573725E+03  0.25063783665E+03  0.41800000000E+01 0.  1.
</event>
<event>
11    1  0.7882745E-009  0.1302751E+03  0.7561462E-02  0.1118931E+00
         22   -1    0    0    0    0  0.00000000000E+00  0.00000000000E+00  0.23018470143E+03  0.23018470143E+03  0.00000000000E+00 0. -1.
         22   -1    0    0    0    0 -0.00000000000E+00 -0.00000000000E+00 -0.82541480075E+03  0.82541480075E+03  0.00000000000E+00 0. -1.
        -24    2    1    2    0    0 -0.68632443538E+01  0.81211067991E+01 -0.70957758612E+03  0.71410996749E+03  0.79621846504E+02 0.  0.
         25    2    1    2    0    0  0.44006415380E+01  0.28990971917E+02 -0.63013209605E+02  0.14309688395E+03  0.12508481727E+03 0.  0.
         24    2    1    2    0    0  0.24626028158E+01 -0.37112078716E+02  0.17736069642E+03  0.19839265074E+03  0.80743151016E+02 0.  0.
        -13    1    5    5    0    0 -0.27814960001E+01  0.17242837199E+02  0.11140086375E+03  0.11276171602E+03  0.00000000000E+00 0.  1.
         14    1    5    5    0    0  0.52440988159E+01 -0.54354915916E+02  0.65959832664E+02  0.85630934724E+02  0.00000000000E+00 0. -1.
         11    1    3    3    0    0 -0.45687418069E+01  0.43167686508E+02 -0.31584493804E+03  0.31881396996E+03  0.00000000000E+00 0. -1.
        -12    1    3    3    0    0 -0.22945025469E+01 -0.35046579709E+02 -0.39373264809E+03  0.39529599753E+03  0.00000000000E+00 0.  1.
          5    1    4    4  501    0  0.26178601213E+02  0.43904858463E+02 -0.90963854486E+02  0.10442629449E+03  0.41800000000E+01 0. -1.
         -5    1    4    4    0  501 -0.21777959675E+02 -0.14913886546E+02  0.27950644881E+02  0.38670589455E+02  0.41800000000E+01 0. -1.
</event>
<event>
11    1  0.7882745E-009  0.1425419E+03  0.7561462E-02  0.1104753E+00
         22   -1    0    0    0    0  0.00000000000E+00  0.00000000000E+00  0.88868989387E+03  0.88868989387E+03  0.00000000000E+00 0.  1.
         22   -1    0    0    0    0 -0.00000000000E+00 -0.00000000000E+00 -0.10885012136E+04  0.10885012136E+04  0.00000000000E+00 0.  1.
         24    2    1    2    0    0 -0.56745680958E+02  0.24206464900E+02 -0.10673494653E+04  0.10721415711E+04  0.80290984320E+02 0.  0.
         25    2    1    2    0    0 -0.29353601668E+02  0.32783870650E+01  0.33165056873E+03  0.35568478949E+03  0.12508872046E+03 0.  0.
        -24    2    1    2    0    0  0.86099282626E+02 -0.27484851965E+02  0.53588757688E+03  0.54936474683E+03  0.80359358210E+02 0.  0.
        -13    1    3    3    0    0 -0.70782672448E+02  0.32743759143E+02 -0.98996747106E+03  0.99303470948E+03  0.00000000000E+00 0.  1.
         14    1    3    3    0    0  0.14036991489E+02 -0.85372942430E+01 -0.77381994282E+02  0.79106861663E+02  0.00000000000E+00 0. -1.
         11    1    5    5    0    0  0.29623494958E+01 -0.90976548253E+01  0.34636139834E+01  0.10175434127E+02  0.00000000000E+00 0. -1.
        -12    1    5    5    0    0  0.83136933131E+02 -0.18387197140E+02  0.53242396290E+03  0.53918931270E+03  0.00000000000E+00 0.  1.
          5    1    4    4  501    0 -0.18305668731E+02  0.50372541934E+02  0.63617068648E+02  0.83289220863E+02  0.41800000000E+01 0.  1.
         -5    1    4    4    0  501 -0.11047932937E+02 -0.47094154869E+02  0.26803350008E+03  0.27239556863E+03  0.41800000000E+01 0.  1.
</event>
<event>
11    1  0.7882745E-009  0.1565130E+03  0.7561462E-02  0.1090404E+00
         22   -1    0    0    0    0  0.00000000000E+00  0.00000000000E+00  0.23684701207E+04  0.23684701207E+04  0.00000000000E+00 0. -1.
         22   -1    0    0    0    0 -0.00000000000E+00 -0.00000000000E+00 -0.69910190244E+02  0.69910190244E+02  0.00000000000E+00 0.  1.
        -24    2    1    2    0    0  0.93614502969E+02  0.13985677368E+01  0.59645352046E+01  0.12344065206E+03  0.80227101048E+02 0.  0.
         25    2    1    2    0    0 -0.98154439352E+02 -0.10278883981E+02  0.61197713943E+03  0.63237912512E+03  0.12508952506E+03 0.  0.
         24    2    1    2    0    0  0.45399363832E+01  0.88803162437E+01  0.16806182558E+04  0.16825605337E+04  0.80204469652E+02 0.  0.
        -11    1    5    5    0    0 -0.97556096258E+01 -0.21738287304E+02  0.18099472808E+03  0.18255633828E+03  0.00000000000E+00 0.  1.
         12    1    5    5    0    0  0.14295546009E+02  0.30618603547E+02  0.14996235277E+04  0.15000041954E+04  0.00000000000E+00 0. -1.
         11    1    3    3    0    0  0.52136589046E+02 -0.21855289692E+01  0.43078806995E+02  0.67666713134E+02  0.00000000000E+00 0. -1.
        -12    1    3    3    0    0  0.41477913923E+02  0.35840967060E+01 -0.37114271791E+02  0.55773938924E+02  0.00000000000E+00 0.  1.
          5    1    4    4  501    0  0.14211329354E+02 -0.40228668929E+02  0.15495341866E+03  0.16077419582E+03  0.41800000000E+01 0. -1.
         -5    1    4    4    0  501 -0.11236576871E+03  0.29949784949E+02  0.45702372076E+03  0.47160492930E+03  0.41800000000E+01 0. -1.
</event>
<event>
11    1  0.7882745E-009  0.1479165E+03  0.7561462E-02  0.1099027E+00
         22   -1    0    0    0    0  0.00000000000E+00  0.00000000000E+00  0.16312101212E+04  0.16312101212E+04  0.00000000000E+00 0. -1.
         22   -1    0    0    0    0 -0.00000000000E+00 -0.00000000000E+00 -0.32494540161E+03  0.32494540161E+03  0.00000000000E+00 0.  1.
         24    2    1    2    0    0 -0.23786530976E+02 -0.25231705014E+02 -0.20008256977E+03  0.21955165709E+03  0.83471296934E+02 0.  0.
         25    2    1    2    0    0  0.10073167255E+03  0.40528971676E+02 -0.52515964263E+02  0.17376790793E+03  0.12509153418E+03 0.  0.
        -24    2    1    2    0    0 -0.76945141572E+02 -0.15297266662E+02  0.15588632537E+04  0.15628359578E+04  0.79038131870E+02 0.  0.
        -11    1    3    3    0    0  0.31321333112E+02 -0.83405624248E+01 -0.81309318610E+02  0.87531686733E+02  0.00000000000E+00 0.  1.
         12    1    3    3    0    0 -0.55107864087E+02 -0.16891142589E+02 -0.11877325116E+03  0.13201997036E+03  0.00000000000E+00 0. -1.
         11    1    5    5    0    0 -0.74311235080E+02 -0.22285483896E+02  0.15461230345E+04  0.15480682286E+04  0.00000000000E+00 0. -1.
        -12    1    5    5    0    0 -0.26339064921E+01  0.69882172341E+01  0.12740219136E+02  0.14767729248E+02  0.00000000000E+00 0.  1.
          5    1    4    4  501    0  0.92186677326E+02  0.81117651226E+02 -0.47709064931E+02  0.13180320214E+03  0.41800000000E+01 0.  1.
         -5    1    4    4    0  501  0.85449952209E+01 -0.40588679550E+02 -0.48068993327E+01  0.41964705791E+02  0.41800000000E+01 0.  1.
</event>
<event>
11    1  0.7882745E-009  0.1479107E+03  0.7561462E-02  0.1099033E+00
         22   -1    0    0    0    0  0.00000000000E+00  0.00000000000E+00  0.76699059445E+03  0.76699059445E+03  0.00000000000E+00 0. -1.
         22   -1    0    0    0    0 -0.00000000000E+00 -0.00000000000E+00 -0.26128822088E+03  0.26128822088E+03  0.00000000000E+00 0. -1.
        -24    2    1    2    0    0  0.65077415131E+02  0.43047134760E+02 -0.21552100761E+03  0.24299065831E+03  0.80666161010E+02 0.  0.
         25    2    1    2    0    0 -0.46163190893E+02 -0.10310253405E+03  0.23906657915E+03  0.29250777512E+03  0.12508715570E+03 0.  0.
         24    2    1    2    0    0 -0.18914224238E+02  0.60055399287E+02  0.48215680203E+03  0.49278038189E+03  0.79955763846E+02 0.  0.
        -11    1    5    5    0    0 -0.28778842342E+02  0.37513673040E+02  0.10899562838E+03  0.11880885673E+03  0.00000000000E+00 0.  1.
         12    1    5    5    0    0  0.98646181038E+01  0.22541726247E+02  0.37316117365E+03  0.37397152516E+03  0.00000000000E+00 0. -1.
         11    1    3    3    0    0  0.66134635018E+02  0.20748401443E+02 -0.20829782168E+03  0.21952737558E+03  0.00000000000E+00 0. -1.
        -12    1    3    3    0    0 -0.10572198869E+01  0.22298733317E+02 -0.72231859288E+01  0.23463282728E+02  0.00000000000E+00 0.  1.
          5    1    4    4  501    0  0.39386312886E+02 -0.61189105626E+02  0.11227842753E+03  0.13386301199E+03  0.41800000000E+01 0.  1.
         -5    1    4    4    0  501 -0.85549503779E+02 -0.41913428421E+02  0.12678815162E+03  0.15864476313E+03  0.41800000000E+01 0.  1.
</event>
<event>
11    1  0.7882745E-009  0.1785609E+03  0.7561462E-02  0.1070813E+00
         22   -1    0    0    0    0  0.00000000000E+00  0.00000000000E+00  0.54410523431E+02  0.54410523431E+02  0.00000000000E+00 0.  1.
         22   -1    0    0    0    0 -0.00000000000E+00 -0.00000000000E+00 -0.22687531785E+04  0.22687531785E+04  0.00000000000E+00 0. -1.
        -24    2    1    2    0    0  0.54449872026E+02  0.10460380814E+03 -0.13288727980E+04  0.13365709738E+04  0.81316109160E+02 0.  0.
         25    2    1    2    0    0 -0.54327906823E+02 -0.14621833737E+03 -0.87737337106E+03  0.89986870882E+03  0.12509331412E+03 0.  0.
         24    2    1    2    0    0 -0.12196520332E+00  0.41614529235E+02 -0.80964860749E+01  0.86724019328E+02  0.75655261038E+02 0.  0.
        -11    1    5    5    0    0 -0.15515643629E+02 -0.16132817701E+02 -0.14420948985E+02  0.26626429986E+02  0.00000000000E+00 0.  1.
         12    1    5    5    0    0  0.15393678426E+02  0.57747346936E+02  0.63244629098E+01  0.60097589342E+02  0.00000000000E+00 0. -1.
         13    1    3    3    0    0  0.48326492049E+02  0.11839523408E+03 -0.11610012882E+04  0.11680226335E+04  0.00000000000E+00 0. -1.
        -14    1    3    3    0    0  0.61233799773E+01 -0.13791425940E+02 -0.16787150982E+03  0.16854834031E+03  0.00000000000E+00 0.  1.
          5    1    4    4  501    0 -0.25798525236E+02 -0.80959137015E+01 -0.42777608266E+03  0.42865015691E+03  0.41800000000E+01 0. -1.
         -5    1    4    4    0  501 -0.28529381587E+02 -0.13812242367E+03 -0.44959728840E+03  0.47121855192E+03  0.41800000000E+01 0. -1.
</event>
<event>
11    1  0.7882745E-009  0.1315698E+03  0.7561462E-02  0.1117355E+00
         22   -1    0    0    0    0  0.00000000000E+00  0.00000000000E+00  0.51809664062E+02  0.51809664062E+02  0.00000000000E+00 0. -1.
         22   -1    0    0    0    0 -0.00000000000E+00 -0.00000000000E+00 -0.11382985530E+04  0.11382985530E+04  0.00000000000E+00 0.  1.
         24    2    1    2    0    0  0.25229922174E+02 -0.30944824879E+02 -0.81783976239E+03  0.82273191109E+03  0.80198437815E+02 0.  0.
         25    2    1    2    0    0 -0.44183233306E+02  0.23702750802E+02 -0.24616249292E+03  0.28063665300E+03  0.12508788746E+03 0.  0.
        -24    2    1    2    0    0  0.18953311132E+02  0.72420740763E+01 -0.22486633604E+02  0.86739652935E+02  0.81280028670E+02 0.  0.
        -13    1    3    3    0    0  0.71695282377E+01 -0.36774191022E+02 -0.77466232236E+03  0.77556782872E+03  0.00000000000E+00 0.  1.
         14    1    3    3    0    0  0.18060393937E+02  0.58293661434E+01 -0.43177440032E+02  0.47164082378E+02  0.00000000000E+00 0. -1.
         13    1    5    5    0    0  0.42171730893E+02  0.26101218977E+02 -0.46960789170E+00  0.49597873444E+02  0.00000000000E+00 0. -1.
        -14    1    5    5    0    0 -0.23218419761E+02 -0.18859144900E+02 -0.22017025712E+02  0.37141779491E+02  0.00000000000E+00 0.  1.
          5    1    4    4  501    0 -0.72425204156E+02 -0.25862347687E+02 -0.12863527118E+03  0.14992923869E+03  0.41800000000E+01 0.  1.
         -5    1    4    4    0  501  0.28241970850E+02  0.49565098490E+02 -0.11752722174E+03  0.13070741431E+03  0.41800000000E+01 0.  1.
</event>
<event>
11    1  0.7882745E-009  0.1852890E+03  0.7561462E-02  0.1065443E+00
         22   -1    0    0    0    0  0.00000000000E+00  0.00000000000E+00  0.47307798667E+03  0.47307798667E+03  0.00000000000E+00 0. -1.
         22   -1    0    0    0    0 -0.00000000000E+00 -0.00000000000E+00 -0.39872047350E+03  0.39872047350E+03  0.00000000000E+00 0.  1.
         24    2    1    2    0    0  0.10608634805E+03  0.93055150317E+02 -0.30565795044E+03  0.34595872579E+03  0.79668582527E+02 0.  0.
         25    2    1    2    0    0 -0.78822621982E+02 -0.81993639096E+02  0.39183071332E+02  0.17354244826E+03  0.12508279530E+03 0.  0.
        -24    2    1    2    0    0 -0.27263726066E+02 -0.11061511221E+02  0.34083239228E+03  0.35229728613E+03  0.84148620871E+02 0.  0.
        -11    1    3    3    0    0  0.89830420127E+02  0.10082155872E+03 -0.21773472475E+03  0.25620870681E+03  0.00000000000E+00 0.  1.
         12    1    3    3    0    0  0.16255927921E+02 -0.77664083981E+01 -0.87923225692E+02  0.89750018987E+02  0.00000000000E+00 0. -1.
         11    1    5    5    0    0 -0.54859149883E+02 -0.85028386497E+01  0.27998912002E+03  0.28543954162E+03  0.00000000000E+00 0. -1.
        -12    1    5    5    0    0  0.27595423817E+02 -0.25586725712E+01  0.60843272259E+02  0.66857744503E+02  0.00000000000E+00 0.  1.
          5    1    4    4  501    0 -0.59777530313E+02 -0.57207409695E+02 -0.37267628148E+02  0.90842662676E+02  0.41800000000E+01 0. -1.
         -5    1    4    4    0  501 -0.19045091668E+02 -0.24786229401E+02  0.76450699480E+02  0.82699785584E+02  0.41800000000E+01 0. -1.
</event>
<event>
11    1  0.7882745E-009  0.1399786E+03  0.7561462E-02  0.1107582E+00
         22   -1    0    0    0    0  0.00000000000E+00  0.00000000000E+00  0.14365335353E+03  0.14365335353E+03  0.00000000000E+00 0.  1.
         22   -1    0    0    0    0 -0.00000000000E+00 -0.00000000000E+00 -0.17076800559E+04  0.17076800559E+04  0.00000000000E+00 0.  1.
        -24    2    1    2    0    0 -0.16354716353E+02  0.10143714614E+02 -0.12506928687E+04  0.12534387779E+04  0.80658207269E+02 0.  0.
         25    2    1    2    0    0 -0.14881443111E+02  0.45261267429E+02 -0.42489449886E+03  0.44547663377E+03  0.12507620239E+03 0.  0.
         24    2    1    2    0    0  0.31236159463E+02 -0.55404982043E+02  0.11156066517E+03  0.15241799779E+03  0.82097833969E+02 0.  0.
        -13    1    5    5    0    0  0.48053855282E+02 -0.61571075739E+02  0.10933713650E+03  0.13436807580E+03  0.00000000000E+00 0.  1.
         14    1    5    5    0    0 -0.16817695819E+02  0.61660936962E+01  0.22235286731E+01  0.18049921991E+02  0.00000000000E+00 0. -1.
         13    1    3    3    0    0  0.27094097124E+02 -0.11564036997E+02 -0.28332369918E+03  0.28485107612E+03  0.00000000000E+00 0. -1.
        -14    1    3    3    0    0 -0.43448813477E+02  0.21707751611E+02 -0.96736916951E+03  0.96858770175E+03  0.00000000000E+00 0.  1.
          5    1    4    4  501    0 -0.21714858187E+02 -0.35831360119E+02 -0.73021336026E+02  0.84291217509E+02  0.41800000000E+01 0. -1.
         -5    1    4    4    0  501  0.68334150762E+01  0.81092627547E+02 -0.35187316283E+03  0.36118541627E+03  0.41800000000E+01 0. -1.
</event>
<event>
11    1  0.7882745E-009  0.1789922E+03  0.7561462E-02  0.1070461E+00
         22   -1    0    0    0    0  0.00000000000E+00  0.00000000000E+00  0.26881438631E+03  0.26881438631E+03  0.00000000000E+00 0. -1.
         22   -1    0    0    0    0 -0.00000000000E+00 -0.00000000000E+00 -0.27522471797E+04  0.27522471797E+04  0.00000000000E+00 0.  1.
         24    2    1    2    0    0 -0.78688257940E+02 -0.10228416308E+03 -0.26814493028E+04  0.26857531606E+04  0.80285641653E+02 0.  0.
         25    2    1    2    0    0  0.60274728790E+02  0.11360348115E+02  0.14437347232E+03  0.20063317882E+03  0.12509145651E+03 0.  0.
        -24    2    1    2    0    0  0.18413529150E+02  0.90923814967E+02  0.53643037092E+02  0.13467522658E+03  0.81569866017E+02 0.  0.
        -13    1    3    3    0    0 -0.64457554473E+02 -0.67334270891E+02 -0.23969945305E+04  0.23988062573E+04  0.00000000000E+00 0.  1.
         14    1    3    3    0    0 -0.14230703467E+02 -0.34949892192E+02 -0.28445477225E+03  0.28694690335E+03  0.00000000000E+00 0. -1.
         13    1    5    5    0    0 -0.10708949291E+02 -0.70347350948E+01  0.25717655263E+02  0.28732679740E+02  0.00000000000E+00 0. -1.
        -14    1    5    5    0    0  0.29122478441E+02  0.97958550062E+02  0.27925381829E+02  0.10594254684E+03  0.00000000000E+00 0.  1.
          5    1    4    4  501    0 -0.17970308711E+02  0.30731790371E+02  0.71463344360E+00  0.35851890265E+02  0.41800000000E+01 0. -1.
         -5    1    4    4    0  501  0.78245037501E+02 -0.19371442256E+02  0.14365883888E+03  0.16478128855E+03  0.41800000000E+01 0. -1.
</event>
<event>
11    1  0.7882745E-009  0.2287516E+03  0.7561462E-02  0.1035870E+00
         22   -1    0    0    0    0  0.00000000000E+00  0.00000000000E+00  0.41635345091E+04  0.41635345091E+04  0.00000000000E+00 0. -1.
         22   -1    0    0    0    0 -0.00000000000E+00 -0.00000000000E+00 -0.60565752584E+03  0.60565752584E+03  0.00000000000E+00 0. -1.
         24    2    1    2    0    0  0.12651226929E+03 -0.10043947034E+03 -0.57202603685E+03  0.59967769591E+03  0.79411023508E+02 0.  0.
         25    2    1    2    0    0  0.86922951407E+02  0.66923683259E+02  0.40891662779E+03  0.44146749445E+03  0.12508541605E+03 0.  0.
        -24    2    1    2    0    0 -0.21343522069E+03  0.33515787085E+02  0.37209863923E+04  0.37280468446E+04  0.76913211807E+02 0.  0.
        -11    1    3    3    0    0  0.47031835541E+02 -0.27667830235E+01 -0.23986585280E+03  0.24444892306E+03  0.00000000000E+00 0.  1.
         12    1    3    3    0    0  0.79480433744E+02 -0.97672687320E+02 -0.33216018404E+03  0.35522877285E+03  0.00000000000E+00 0. -1.
         13    1    5    5    0    0 -0.18066061264E+03  0.23321227628E+02  0.34629397499E+04  0.34677274761E+04  0.00000000000E+00 0. -1.
        -14    1    5    5    0    0 -0.32774608056E+02  0.10194559457E+02  0.25804664236E+03  0.26031936848E+03  0.00000000000E+00 0.  1.
          5    1    4    4  501    0  0.22721259490E+02  0.83713369219E+02  0.14248526806E+03  0.16686433961E+03  0.41800000000E+01 0.  1.
         -5    1    4    4    0  501  0.64201691918E+02 -0.16789685961E+02  0.26643135974E+03  0.27460315484E+03  0.41800000000E+01 0.  1.
</event>
<event>
11    1  0.7882745E-009  0.1440718E+03  0.7561462E-02  0.1103095E+00
         22   -1    0    0    0    0  0.00000000000E+00  0.00000000000E+00  0.17563307892E+03  0.17563307892E+03  0.00000000000E+00 0.  1.
         22   -1    0    0    0    0 -0.00000000000E+00 -0.00000000000E+00 -0.40434493833E+03  0.40434493833E+03  0.00000000000E+00 0.  1.
         24    2    1    2    0    0  0.23884686658E+02 -0.46549846225E+02 -0.29110794812E+03  0.30623724630E+03  0.79372836200E+02 0.  0.
         25    2    1    2    0    0 -0.19899823626E+01 -0.38170215305E+02 -0.13165620944E+02  0.13145894053E+03  0.12508874491E+03 0.  0.
        -24    2    1    2    0    0 -0.21894704295E+02  0.84720061530E+02  0.75561709653E+02  0.14228183042E+03  0.82931781603E+02 0.  0.
        -13    1    3    3    0    0  0.23351754204E+02  0.29296489850E+01 -0.20936803571E+03  0.21068664326E+03  0.00000000000E+00 0.  1.
         14    1    3    3    0    0  0.53293245410E+00 -0.49479495210E+02 -0.81739912404E+02  0.95550603049E+02  0.00000000000E+00 0. -1.
         13    1    5    5    0    0 -0.32498576599E+02  0.80013650342E+02  0.24288026977E+02  0.89712039195E+02  0.00000000000E+00 0. -1.
        -14    1    5    5    0    0  0.10603872304E+02  0.47064111879E+01  0.51273682677E+02  0.52569791224E+02  0.00000000000E+00 0.  1.
          5    1    4    4  501    0 -0.22672381913E+02 -0.15718945639E+02 -0.65237620978E+02  0.70954504751E+02  0.41800000000E+01 0. -1.
         -5    1    4    4    0  501  0.20682399550E+02 -0.22451269666E+02  0.52072000034E+02  0.60504435774E+02  0.41800000000E+01 0. -1.
</event>
<event>
11    1  0.7882745E-009  0.1648212E+03  0.7561462E-02  0.1082628E+00
         22   -1    0    0    0    0  0.00000000000E+00  0.00000000000E+00  0.22431001094E+03  0.22431001094E+03  0.00000000000E+00 0.  1.
         22   -1    0    0    0    0 -0.00000000000E+00 -0.00000000000E+00 -0.27166340057E+04  0.27166340057E+04  0.00000000000E+00 0. -1.
         24    2    1    2    0    0  0.10173485017E+02 -0.92845662329E+01 -0.25193312568E+04  0.25206786609E+04  0.81247934331E+02 0.  0.
         25    2    1    2    0    0 -0.31552698076E+02 -0.96794392406E+02 -0.13387541884E+03  0.20960627889E+03  0.12508971670E+03 0.  0.
        -24    2    1    2    0    0  0.21379213060E+02  0.10607895864E+03  0.16088268093E+03  0.21065907684E+03  0.82366215254E+02 0.  0.
        -13    1    3    3    0    0  0.13604277719E+02  0.13678110420E+02 -0.15022430868E+03  0.15145794794E+03  0.00000000000E+00 0.  1.
         14    1    3    3    0    0 -0.34307927022E+01 -0.22962676653E+02 -0.23691069482E+04  0.23692207130E+04  0.00000000000E+00 0. -1.
         13    1    5    5    0    0 -0.26067137006E+02  0.31291523864E+02  0.84097806930E+02  0.93440335123E+02  0.00000000000E+00 0. -1.
        -14    1    5    5    0    0  0.47446350066E+02  0.74787434775E+02  0.76784874000E+02  0.11721874172E+03  0.00000000000E+00 0.  1.
          5    1    4    4  501    0 -0.75366552011E+02 -0.83299402182E+02 -0.11183506706E+03  0.15856690131E+03  0.41800000000E+01 0. -1.
         -5    1    4    4    0  501  0.43813853935E+02 -0.13494990225E+02 -0.22040351778E+02  0.51039377585E+02  0.41800000000E+01 0. -1.
</event>
<event>
11    1  0.7882745E-009  0.1483833E+03  0.7561462E-02  0.1098542E+00
         22   -1    0    0    0    0  0.00000000000E+00  0.00000000000E+00  0.55952310271E+03  0.55952310271E+03  0.00000000000E+00 0.  1.
         22   -1    0    0    0    0 -0.00000000000E+00 -0.00000000000E+00 -0.39087451444E+03  0.39087451444E+03  0.00000000000E+00 0. -1.
        -24    2    1    2    0    0 -0.32833315780E+02  0.23579872653E+02 -0.31307225300E+03  0.32585140080E+03  0.80813753681E+02 0.  0.
         25    2    1    2    0    0  0.93627783147E+02 -0.68178217159E+02  0.50585630841E+02  0.17782372216E+03  0.12509172252E+03 0.  0.
         24    2    1    2    0    0 -0.60794467367E+02  0.44598344506E+02  0.43113521043E+03  0.44672249418E+03  0.89433984266E+02 0.  0.
        -11    1    5    5    0    0 -0.45584927811E+02  0.27102471499E+02  0.41524225566E+03  0.41861516992E+03  0.00000000000E+00 0.  1.
         12    1    5    5    0    0 -0.15209539556E+02  0.17495873007E+02  0.15892954774E+02  0.28107324263E+02  0.00000000000E+00 0. -1.
         11    1    3    3    0    0 -0.24380608204E+02  0.31416397503E+02 -0.31171948080E+03  0.31424582543E+03  0.00000000000E+00 0. -1.
        -12    1    3    3    0    0 -0.84527075759E+01 -0.78365248499E+01 -0.13527722021E+01  0.11605575372E+02  0.00000000000E+00 0.  1.
          5    1    4    4  501    0  0.91674986721E+02  0.50357267017E+01  0.62783509625E+01  0.92122482731E+02  0.41800000000E+01 0. -1.
         -5    1    4    4    0  501  0.19527964258E+01 -0.73213943861E+02  0.44307279879E+02  0.85701239430E+02  0.41800000000E+01 0. -1.
</event>
<event>
11    1  0.7882745E-009  0.1405228E+03  0.7561462E-02  0.1106976E+00
         22   -1    0    0    0    0  0.00000000000E+00  0.00000000000E+00  0.51857819590E+03  0.51857819590E+03  0.00000000000E+00 0. -1.
         22   -1    0    0    0    0 -0.00000000000E+00 -0.00000000000E+00 -0.26227698613E+03  0.26227698613E+03  0.00000000000E+00 0.  1.
        -24    2    1    2    0    0  0.33253994984E+02  0.10845218140E+02 -0.17182836137E+03  0.19272072651E+03  0.79955273209E+02 0.  0.
         25    2    1    2    0    0 -0.30137543047E+02 -0.74048353122E+02  0.47839298134E+00  0.14845741549E+03  0.12509174734E+03 0.  0.
         24    2    1    2    0    0 -0.31164519368E+01  0.63203134982E+02  0.42765117816E+03  0.43967704004E+03  0.80162465116E+02 0.  0.
        -13    1    5    5    0    0 -0.18748313855E+02 -0.34198854162E+01  0.25992434042E+02  0.32230443932E+02  0.00000000000E+00 0.  1.
         14    1    5    5    0    0  0.15631861918E+02  0.66623020399E+02  0.40165874412E+03  0.40744659611E+03  0.00000000000E+00 0. -1.
         11    1    3    3    0    0  0.53536058627E+02 -0.98435245736E+01 -0.82741609919E+02  0.99041297252E+02  0.00000000000E+00 0. -1.
        -12    1    3    3    0    0 -0.20282063643E+02  0.20688742714E+02 -0.89086751455E+02  0.93679429255E+02  0.00000000000E+00 0.  1.
          5    1    4    4  501    0 -0.49492158367E+02 -0.89509315030E+02 -0.32133474507E+02  0.10729130347E+03  0.41800000000E+01 0.  1.
         -5    1    4    4    0  501  0.19354615319E+02  0.15460961907E+02  0.32611867488E+02  0.41166112014E+02  0.41800000000E+01 0.  1.
</event>
<event>
11    1  0.7882745E-009  0.1440394E+03  0.7561462E-02  0.1103130E+00
         22   -1    0    0    0    0  0.00000000000E+00  0.00000000000E+00  0.12121375710E+03  0.12121375710E+03  0.00000000000E+00 0.  1.
         22   -1    0    0    0    0 -0.00000000000E+00 -0.00000000000E+00 -0.15594041746E+04  0.15594041746E+04  0.00000000000E+00 0. -1.
         24    2    1    2    0    0  0.60507574030E+02 -0.57093198232E+02 -0.12294103775E+04  0.12349177730E+04  0.81555073286E+02 0.  0.
         25    2    1    2    0    0 -0.48675217075E+00  0.19731084888E+02 -0.28581668074E+03  0.31261413502E+03  0.12508744856E+03 0.  0.
        -24    2    1    2    0    0 -0.60020821859E+02  0.37362113345E+02  0.77036640676E+02  0.13308602373E+03  0.82333584497E+02 0.  0.
        -13    1    3    3    0    0  0.43507151449E+02  0.11425673217E+02 -0.40506059962E+03  0.40755061968E+03  0.00000000000E+00 0.  1.
         14    1    3    3    0    0  0.17000422581E+02 -0.68518871449E+02 -0.82434977784E+03  0.82736715329E+03  0.00000000000E+00 0. -1.
         13    1    5    5    0    0  0.54912577918E+01 -0.15097964260E+02 -0.38546005483E+01  0.16521512713E+02  0.00000000000E+00 0. -1.
        -14    1    5    5    0    0 -0.65512079651E+02  0.52460077605E+02  0.80891241225E+02  0.11656451102E+03  0.00000000000E+00 0.  1.
          5    1    4    4  501    0 -0.46022913124E+02  0.51711912617E+02 -0.18172510520E+03  0.19450891162E+03  0.41800000000E+01 0. -1.
         -5    1    4    4    0  501  0.45536160953E+02 -0.31980827729E+02 -0.10409157554E+03  0.11810522340E+03  0.41800000000E+01 0. -1.
</event>
<event>
11    1  0.7882745E-009  0.1949651E+03  0.7561462E-02  0.1058142E+00
         22   -1    0    0    0    0  0.00000000000E+00  0.00000000000E+00  0.53564685647E+03  0.53564685647E+03  0.00000000000E+00 0. -1.
         22   -1    0    0    0    0 -0.00000000000E+00 -0.00000000000E+00 -0.25640093620E+03  0.25640093620E+03  0.00000000000E+00 0. -1.
        -24    2    1    2    0    0 -0.10433901672E+03 -0.10831563255E+03 -0.17912870418E+03  0.24743473575E+03  0.80733816516E+02 0.  0.
         25    2    1    2    0    0  0.93357197452E+02  0.10908206414E+03  0.21140525111E+03  0.28452536226E+03  0.12509212022E+03 0.  0.
         24    2    1    2    0    0  0.10981819268E+02 -0.76643158803E+00  0.24696937334E+03  0.26008769466E+03  0.80811817017E+02 0.  0.
        -11    1    5    5    0    0  0.32969909493E+02 -0.30272555201E+02  0.13512108922E+03  0.14234167092E+03  0.00000000000E+00 0.  1.
         12    1    5    5    0    0 -0.21988090225E+02  0.29506123613E+02  0.11184828413E+03  0.11774602373E+03  0.00000000000E+00 0. -1.
         11    1    3    3    0    0 -0.59032589487E+02 -0.64069734421E+02 -0.15844242619E+03  0.18081421378E+03  0.00000000000E+00 0. -1.
        -12    1    3    3    0    0 -0.45306427233E+02 -0.44245898131E+02 -0.20686277997E+02  0.66620521969E+02  0.00000000000E+00 0.  1.
          5    1    4    4  501    0  0.48521437035E+02  0.39982768108E+02  0.18875531571E+03  0.19899495774E+03  0.41800000000E+01 0.  1.
         -5    1    4    4    0  501  0.44835760417E+02  0.69099296032E+02  0.22649935398E+02  0.85530404523E+02  0.41800000000E+01 0.  1.
</event>
<event>
11    1  0.7882745E-009  0.1367148E+03  0.7561462E-02  0.1111283E+00
         22   -1    0    0    0    0  0.00000000000E+00  0.00000000000E+00  0.14173807389E+03  0.14173807389E+03  0.00000000000E+00 0. -1.
         22   -1    0    0    0    0 -0.00000000000E+00 -0.00000000000E+00 -0.50748824887E+03  0.50748824887E+03  0.00000000000E+00 0. -1.
        -24    2    1    2    0    0  0.41518562716E+02  0.18653722167E+02 -0.35793961425E+03  0.36974125980E+03  0.80722235768E+02 0.  0.
         25    2    1    2    0    0  0.20913780695E+02 -0.95324905223E+01 -0.83052821100E+02  0.15190029516E+03  0.12509066303E+03 0.  0.
         24    2    1    2    0    0 -0.62432343412E+02 -0.91212316445E+01  0.75242260370E+02  0.12758476781E+03  0.81458460956E+02 0.  0.
        -11    1    5    5    0    0  0.12880777834E+02  0.18078788284E+02  0.10231480885E+02  0.24442590381E+02  0.00000000000E+00 0.  1.
         12    1    5    5    0    0 -0.75313121246E+02 -0.27200019928E+02  0.65010779485E+02  0.10314217743E+03  0.00000000000E+00 0. -1.
         11    1    3    3    0    0  0.54287377476E+02  0.40250554258E+02 -0.26131790795E+03  0.26991531170E+03  0.00000000000E+00 0. -1.
        -12    1    3    3    0    0 -0.12768814759E+02 -0.21596832092E+02 -0.96621706295E+02  0.99825948100E+02  0.00000000000E+00 0.  1.
          5    1    4    4  501    0  0.18854438651E+02  0.55987646821E+02 -0.53734621108E+02  0.79968671110E+02  0.41800000000E+01 0. -1.
         -5    1    4    4    0  501  0.20593420448E+01 -0.65520137344E+02 -0.29318199992E+02  0.71931624046E+02  0.41800000000E+01 0. -1.
</event>
<event>
11    1  0.7882745E-009  0.1254169E+03  0.7561462E-02  0.1125032E+00
         22   -1    0    0    0    0  0.00000000000E+00  0.00000000000E+00  0.10943102128E+04  0.10943102128E+04  0.00000000000E+00 0.  1.
         22   -1    0    0    0    0 -0.00000000000E+00 -0.00000000000E+00 -0.24991448089E+04  0.24991448089E+04  0.00000000000E+00 0.  1.
         24    2    1    2    0    0  0.40776024634E+02  0.61720148621E+01 -0.24884706335E+04  0.24893161898E+04  0.50082145702E+02 0.  0.
         25    2    1    2    0    0 -0.27835637522E+02  0.44539863344E+01  0.68277231634E+03  0.69470897918E+03  0.12509144293E+03 0.  0.
        -24    2    1    2    0    0 -0.12940387112E+02 -0.10626001197E+02  0.40086372106E+03  0.40942985266E+03  0.81613208890E+02 0.  0.
        -13    1    3    3    0    0 -0.36148646709E+01  0.17789411286E+02 -0.89949207801E+03  0.89967523518E+03  0.00000000000E+00 0.  1.
         14    1    3    3    0    0  0.44390889305E+02 -0.11617396424E+02 -0.15889785555E+04  0.15896409546E+04  0.00000000000E+00 0. -1.
         13    1    5    5    0    0  0.15060786026E+02 -0.12537969607E+02  0.21739995179E+02  0.29268675200E+02  0.00000000000E+00 0. -1.
        -14    1    5    5    0    0 -0.28001173137E+02  0.19119684104E+01  0.37912372588E+03  0.38016117746E+03  0.00000000000E+00 0.  1.
          5    1    4    4  501    0 -0.98831881544E+01  0.38212834135E+02  0.68010948923E+02  0.78745537487E+02  0.41800000000E+01 0.  1.
         -5    1    4    4    0  501 -0.17952449368E+02 -0.33758847801E+02  0.61476136741E+03  0.61596344170E+03  0.41800000000E+01 0.  1.
</event>
<event>
11    1  0.7882745E-009  0.1373721E+03  0.7561462E-02  0.1110529E+00
         22   -1    0    0    0    0  0.00000000000E+00  0.00000000000E+00  0.24786582483E+04  0.24786582483E+04  0.00000000000E+00 0.  1.
         22   -1    0    0    0    0 -0.00000000000E+00 -0.00000000000E+00 -0.72537325424E+02  0.72537325424E+02  0.00000000000E+00 0.  1.
        -24    2    1    2    0    0 -0.20016252889E+02 -0.55758381450E+02 -0.22086336758E+02  0.10232108131E+03  0.80449673263E+02 0.  0.
         25    2    1    2    0    0  0.32012437164E+02  0.18787697109E+02  0.44374772495E+03  0.46253382787E+03  0.12509086627E+03 0.  0.
         24    2    1    2    0    0 -0.11996184275E+02  0.36970684341E+02  0.19844595346E+04  0.19863406645E+04  0.77193593675E+02 0.  0.
        -13    1    5    5    0    0 -0.66147240230E+01  0.77775779633E+01  0.17473910826E+04  0.17474209111E+04  0.00000000000E+00 0.  1.
         14    1    5    5    0    0 -0.53814602517E+01  0.29193106378E+02  0.23706845207E+03  0.23891975335E+03  0.00000000000E+00 0. -1.
         11    1    3    3    0    0  0.21633327245E+02 -0.16395133702E+02  0.17835280148E+02  0.32479200648E+02  0.00000000000E+00 0. -1.
        -12    1    3    3    0    0 -0.41649580134E+02 -0.39363247748E+02 -0.39921616905E+02  0.69841880666E+02  0.00000000000E+00 0.  1.
          5    1    4    4  501    0  0.60095527033E+02  0.41107021940E+02  0.39603576009E+03  0.40269474207E+03  0.41800000000E+01 0.  1.
         -5    1    4    4    0  501 -0.28083089869E+02 -0.22319324831E+02  0.47711964863E+02  0.59839085794E+02  0.41800000000E+01 0.  1.
</event>
<event>
11    1  0.7882745E-009  0.1458472E+03  0.7561462E-02  0.1101199E+00
         22   -1    0    0    0    0  0.00000000000E+00  0.00000000000E+00  0.10519763994E+03  0.10519763994E+03  0.00000000000E+00 0.  1.
         22   -1    0    0    0    0 -0.00000000000E+00 -0.00000000000E+00 -0.67016198778E+03  0.67016198778E+03  0.00000000000E+00 0. -1.
         24    2    1    2    0    0 -0.23476807699E+02  0.74004749491E+02 -0.52321330366E+03  0.53543100432E+03  0.83104366999E+02 0.  0.
         25    2    1    2    0    0  0.46287244165E+02 -0.40011172182E+02 -0.43985945310E+02  0.14603427879E+03  0.12509134392E+03 0.  0.
        -24    2    1    2    0    0 -0.22810436466E+02 -0.33993577308E+02  0.22349011272E+01  0.93894344609E+02  0.84470550233E+02 0.  0.
        -11    1    3    3    0    0 -0.46293459088E+02  0.77728421469E+02 -0.42705285941E+03  0.43653056776E+03  0.00000000000E+00 0.  1.
         12    1    3    3    0    0  0.22816651389E+02 -0.37236719788E+01 -0.96160444244E+02  0.98900436555E+02  0.00000000000E+00 0. -1.
         11    1    5    5    0    0  0.13144627289E+02 -0.83833958852E+01 -0.33597338884E+02  0.37038408892E+02  0.00000000000E+00 0. -1.
        -12    1    5    5    0    0 -0.35955063755E+02 -0.25610181423E+02  0.35832240011E+02  0.56855935718E+02  0.00000000000E+00 0.  1.
          5    1    4    4  501    0  0.69245852907E+02 -0.49448082694E+02  0.10673288014E+02  0.85857396326E+02  0.41800000000E+01 0.  1.
         -5    1    4    4    0  501 -0.22958608742E+02  0.94369105116E+01 -0.54659233324E+02  0.60176882463E+02  0.41800000000E+01 0.  1.
</event>
<event>
11    1  0.7882745E-009  0.1298357E+03  0.7561462E-02  0.1119471E+00
         22   -1    0    0    0    0  0.00000000000E+00  0.00000000000E+00  0.63521119773E+03  0.63521119773E+03  0.00000000000E+00 0. -1.
         22   -1    0    0    0    0 -0.00000000000E+00 -0.00000000000E+00 -0.10209668798E+04  0.10209668798E+04  0.00000000000E+00 0. -1.
         24    2    1    2    0    0 -0.21142330065E+02 -0.27452216390E+02 -0.98738009050E+03  0.99111145293E+03  0.78624720611E+02 0.  0.
         25    2    1    2    0    0  0.31842631680E+02  0.33037601434E+02  0.13051792849E+03  0.18651594064E+03  0.12509128729E+03 0.  0.
        -24    2    1    2    0    0 -0.10700301614E+02 -0.55853850444E+01  0.47110647994E+03  0.47855068396E+03  0.83209066191E+02 0.  0.
        -11    1    3    3    0    0 -0.44151631813E+02 -0.63659725368E+01 -0.33132784431E+03  0.33431726341E+03  0.00000000000E+00 0.  1.
         12    1    3    3    0    0  0.23009301747E+02 -0.21086243853E+02 -0.65605224619E+03  0.65679418951E+03  0.00000000000E+00 0. -1.
         13    1    5    5    0    0  0.16117440631E+00 -0.12656119130E+02  0.46319214081E+03  0.46336504253E+03  0.00000000000E+00 0. -1.
        -14    1    5    5    0    0 -0.10861476021E+02  0.70707340852E+01  0.79143391305E+01  0.15185641433E+02  0.00000000000E+00 0.  1.
          5    1    4    4  501    0 -0.14972304399E+02  0.76751787455E+00 -0.20127444888E+02  0.25442983717E+02  0.41800000000E+01 0. -1.
         -5    1    4    4    0  501  0.46814936078E+02  0.32270083560E+02  0.15064537337E+03  0.16107295692E+03  0.41800000000E+01 0. -1.
</event>
<event>
11    1  0.7882745E-009  0.1688414E+03  0.7561462E-02  0.1079044E+00
         22   -1    0    0    0    0  0.00000000000E+00  0.00000000000E+00  0.53498713996E+02  0.53498713996E+02  0.00000000000E+00 0.  1.
         22   -1    0    0    0    0 -0.00000000000E+00 -0.00000000000E+00 -0.17081934459E+04  0.17081934459E+04  0.00000000000E+00 0. -1.
         24    2    1    2    0    0  0.25803942779E+02 -0.18419294368E+02 -0.94928405966E+03  0.95341376295E+03  0.82779608607E+02 0.  0.
         25    2    1    2    0    0 -0.63546291382E+02 -0.89906005177E+02 -0.62581834447E+03  0.64762432664E+03  0.12508975680E+03 0.  0.
        -24    2    1    2    0    0  0.37742348604E+02  0.10832529954E+03 -0.79592327800E+02  0.16065407034E+03  0.79472864998E+02 0.  0.
        -11    1    3    3    0    0 -0.24580446257E+02  0.53627133074E+01 -0.14216338767E+03  0.14437238596E+03  0.00000000000E+00 0.  1.
         12    1    3    3    0    0  0.50384389036E+02 -0.23782007675E+02 -0.80712067198E+03  0.80904137700E+03  0.00000000000E+00 0. -1.
         13    1    5    5    0    0 -0.49289708396E+01 -0.16209429026E+01  0.10852724184E+02  0.12029290571E+02  0.00000000000E+00 0. -1.
        -14    1    5    5    0    0  0.42671319444E+02  0.10994624245E+03 -0.90445051985E+02  0.14862477976E+03  0.00000000000E+00 0.  1.
          5    1    4    4  501    0 -0.42494875919E+02 -0.46914924944E+02 -0.57187760519E+03  0.57538534251E+03  0.41800000000E+01 0. -1.
         -5    1    4    4    0  501 -0.21051415463E+02 -0.42991080233E+02 -0.53940739286E+02  0.72238984124E+02  0.41800000000E+01 0. -1.
</event>
<event>
11    1  0.7882745E-009  0.1492979E+03  0.7561462E-02  0.1097598E+00
         22   -1    0    0    0    0  0.00000000000E+00  0.00000000000E+00  0.39180605533E+03  0.39180605533E+03  0.00000000000E+00 0. -1.
         22   -1    0    0    0    0 -0.00000000000E+00 -0.00000000000E+00 -0.10115752036E+04  0.10115752036E+04  0.00000000000E+00 0. -1.
         24    2    1    2    0    0  0.55445280107E+02  0.65637162955E+02 -0.69743296989E+03  0.70745226182E+03  0.81814051475E+02 0.  0.
         25    2    1    2    0    0 -0.23653561676E+02 -0.65813287347E+02 -0.28714738969E+03  0.32093627177E+03  0.12512228962E+03 0.  0.
        -24    2    1    2    0    0 -0.31791718430E+02  0.17612439241E+00  0.36481121128E+03  0.37499272538E+03  0.80756299008E+02 0.  0.
        -13    1    3    3    0    0 -0.13482288788E+02  0.25994117011E+02 -0.34113581728E+03  0.34239029200E+03  0.00000000000E+00 0.  1.
         14    1    3    3    0    0  0.68927568895E+02  0.39643045944E+02 -0.35629715262E+03  0.36506196982E+03  0.00000000000E+00 0. -1.
         13    1    5    5    0    0 -0.17350804640E+02 -0.15941788738E+01  0.35884524568E+03  0.35926800883E+03  0.00000000000E+00 0. -1.
        -14    1    5    5    0    0 -0.14440913790E+02  0.17703032662E+01  0.59659656040E+01  0.15724716542E+02  0.00000000000E+00 0.  1.
          5    1    4    4  501    0 -0.26182918268E+02 -0.33772368859E+02 -0.12974838303E+02  0.44854620011E+02  0.41800000000E+01 0.  1.
         -5    1    4    4    0  501  0.25293565914E+01 -0.32040918488E+02 -0.27417255139E+03  0.27608165176E+03  0.41800000000E+01 0.  1.
</event>
<event>
11    1  0.7882745E-009  0.1496288E+03  0.7561462E-02  0.1097259E+00
         22   -1    0    0    0    0  0.00000000000E+00  0.00000000000E+00  0.52651993326E+03  0.52651993326E+03  0.00000000000E+00 0. -1.
         22   -1    0    0    0    0 -0.00000000000E+00 -0.00000000000E+00 -0.21195582401E+03  0.21195582401E+03  0.00000000000E+00 0. -1.
         24    2    1    2    0    0  0.61942519806E+02  0.46213740353E+02 -0.10229939089E+03  0.15134900090E+03  0.80428658690E+02 0.  0.
         25    2    1    2    0    0 -0.89062947866E+02 -0.42746991923E+02 -0.30070643468E+01  0.15942579738E+03  0.12509207981E+03 0.  0.
        -24    2    1    2    0    0  0.27120428060E+02 -0.34667484303E+01  0.41987056448E+03  0.42770095900E+03  0.76741666977E+02 0.  0.
        -11    1    3    3    0    0  0.44563259333E+02 -0.13848423936E+02 -0.59322513765E+02  0.75477304981E+02  0.00000000000E+00 0.  1.
         12    1    3    3    0    0  0.17379260473E+02  0.60062164289E+02 -0.42976877124E+02  0.75871695915E+02  0.00000000000E+00 0. -1.
         13    1    5    5    0    0  0.43964752155E+02 -0.13422931560E+02  0.38484431438E+03  0.38757995412E+03  0.00000000000E+00 0. -1.
        -14    1    5    5    0    0 -0.16844324095E+02  0.99561831294E+01  0.35026250102E+02  0.40121004884E+02  0.00000000000E+00 0.  1.
          5    1    4    4  501    0 -0.56431646464E+02 -0.87241644105E+02 -0.42993095716E+01  0.10407493287E+03  0.41800000000E+01 0.  1.
         -5    1    4    4    0  501 -0.32631301402E+02  0.44494652182E+02  0.12922452249E+01  0.55350864508E+02  0.41800000000E+01 0.  1.
</event>
<event>
11    1  0.7882745E-009  0.1427892E+03  0.7561462E-02  0.1104483E+00
         22   -1    0    0    0    0  0.00000000000E+00  0.00000000000E+00  0.64942348274E+03  0.64942348274E+03  0.00000000000E+00 0.  1.
         22   -1    0    0    0    0 -0.00000000000E+00 -0.00000000000E+00 -0.39383687165E+03  0.39383687165E+03  0.00000000000E+00 0.  1.
        -24    2    1    2    0    0 -0.16691942584E+02 -0.70982331019E+01 -0.34056288514E+03  0.34981959633E+03  0.77856697726E+02 0.  0.
         25    2    1    2    0    0  0.82781902604E+02  0.18002067097E+02  0.87775660140E+02  0.17472483825E+03  0.12508910732E+03 0.  0.
         24    2    1    2    0    0 -0.66089960020E+02 -0.10903833995E+02  0.50837383609E+03  0.51871591981E+03  0.78329252700E+02 0.  0.
        -11    1    5    5    0    0 -0.49174924550E+02 -0.39367177944E+02  0.41258913224E+03  0.41737002761E+03  0.00000000000E+00 0.  1.
         12    1    5    5    0    0 -0.16915035471E+02  0.28463343949E+02  0.95784703856E+02  0.10134589220E+03  0.00000000000E+00 0. -1.
         11    1    3    3    0    0 -0.10073655262E+01 -0.14495856079E+02 -0.75867279597E+01  0.16392164894E+02  0.00000000000E+00 0. -1.
        -12    1    3    3    0    0 -0.15684577057E+02  0.73976229774E+01 -0.33297615718E+03  0.33342743143E+03  0.00000000000E+00 0.  1.
          5    1    4    4  501    0  0.21743670867E+02  0.58486193588E+02  0.29941291664E+01  0.62608779517E+02  0.41800000000E+01 0.  1.
         -5    1    4    4    0  501  0.61038231737E+02 -0.40484126491E+02  0.84781530974E+02  0.11211605873E+03  0.41800000000E+01 0.  1.
</event>
<event>
11    1  0.7882745E-009  0.1426525E+03  0.7561462E-02  0.1104632E+00
         22   -1    0    0    0    0  0.00000000000E+00  0.00000000000E+00  0.79281229989E+03  0.79281229989E+03  0.00000000000E+00 0. -1.
         22   -1    0    0    0    0 -0.00000000000E+00 -0.00000000000E+00 -0.22496449270E+03  0.22496449270E+03  0.00000000000E+00 0. -1.
         24    2    1    2    0    0 -0.48715166954E+01  0.49068009372E+02 -0.17844838671E+03  0.20174097369E+03  0.80151060684E+02 0.  0.
         25    2    1    2    0    0 -0.64356324451E+02 -0.44310113525E+02  0.15161766780E+03  0.21151896288E+03  0.12508889564E+03 0.  0.
        -24    2    1    2    0    0  0.69227841146E+02 -0.47578958468E+01  0.59467852610E+03  0.60451685603E+03  0.83564036880E+02 0.  0.
        -13    1    3    3    0    0 -0.33088754485E+02  0.11098156464E+02 -0.30284232726E+02  0.46207894370E+02  0.00000000000E+00 0.  1.
         14    1    3    3    0    0  0.28217237790E+02  0.37969852908E+02 -0.14816415398E+03  0.15553307932E+03  0.00000000000E+00 0. -1.
         11    1    5    5    0    0  0.19771073430E+02  0.22432171557E+02  0.41743684371E+03  0.41850641113E+03  0.00000000000E+00 0. -1.
        -12    1    5    5    0    0  0.49456767716E+02 -0.27190067404E+02  0.17724168238E+03  0.18601044490E+03  0.00000000000E+00 0.  1.
          5    1    4    4  501    0 -0.67725829267E+02 -0.62314227675E+02  0.16463770773E+03  0.18866080178E+03  0.41800000000E+01 0. -1.
         -5    1    4    4    0  501  0.33695048161E+01  0.18004114150E+02 -0.13020039934E+02  0.22858161101E+02  0.41800000000E+01 0. -1.
</event>
<event>
11    1  0.7882745E-009  0.1461933E+03  0.7561462E-02  0.1100833E+00
         22   -1    0    0    0    0  0.00000000000E+00  0.00000000000E+00  0.46134260721E+02  0.46134260721E+02  0.00000000000E+00 0.  1.
         22   -1    0    0    0    0 -0.00000000000E+00 -0.00000000000E+00 -0.38091920606E+04  0.38091920606E+04  0.00000000000E+00 0. -1.
        -24    2    1    2    0    0 -0.37083983032E+02 -0.64788795082E+02 -0.34394239616E+04  0.34411964255E+04  0.81380839630E+02 0.  0.
         25    2    1    2    0    0  0.75027075667E+02  0.80034476307E+02 -0.22635878542E+03  0.28092744248E+03  0.12508936293E+03 0.  0.
         24    2    1    2    0    0 -0.37943092636E+02 -0.15245681225E+02 -0.97275052811E+02  0.13320245336E+03  0.81291749926E+02 0.  0.
        -11    1    5    5    0    0 -0.71756756416E+01 -0.34446797968E+02 -0.69469200012E+01  0.35865469586E+02  0.00000000000E+00 0.  1.
         12    1    5    5    0    0 -0.30767416994E+02  0.19201116742E+02 -0.90328132810E+02  0.97336983771E+02  0.00000000000E+00 0. -1.
         11    1    3    3    0    0  0.11994803274E+02 -0.42772785965E+02 -0.23738736717E+04  0.23742892822E+04  0.00000000000E+00 0. -1.
        -12    1    3    3    0    0 -0.49078786306E+02 -0.22016009117E+02 -0.10655502899E+04  0.10669071432E+04  0.00000000000E+00 0.  1.
          5    1    4    4  501    0  0.60750722144E+02  0.24281418219E+02 -0.21137868264E+03  0.22131122291E+03  0.41800000000E+01 0. -1.
         -5    1    4    4    0  501  0.14276353523E+02  0.55753058088E+02 -0.14980102779E+02  0.59616219566E+02  0.41800000000E+01 0. -1.
</event>
<event>
11    1  0.7882745E-009  0.1640071E+03  0.7561462E-02  0.1083368E+00
         22   -1    0    0    0    0  0.00000000000E+00  0.00000000000E+00  0.14552068766E+04  0.14552068766E+04  0.00000000000E+00 0.  1.
         22   -1    0    0    0    0 -0.00000000000E+00 -0.00000000000E+00 -0.21309144113E+04  0.21309144113E+04  0.00000000000E+00 0. -1.
         24    2    1    2    0    0 -0.58954482520E+02 -0.11211245109E+01 -0.18684333191E+04  0.18711732335E+04  0.82275841209E+02 0.  0.
         25    2    1    2    0    0 -0.24152200107E+02  0.67876922554E+02 -0.23783681825E+03  0.27821880260E+03  0.12509494243E+03 0.  0.
        -24    2    1    2    0    0  0.83106682627E+02 -0.66755798043E+02  0.14305626026E+04  0.14367292518E+04  0.79489153357E+02 0.  0.
        -13    1    3    3    0    0 -0.41439256293E+02  0.36974655000E+02 -0.13053897152E+04  0.13065705666E+04  0.00000000000E+00 0.  1.
         14    1    3    3    0    0 -0.17515226227E+02 -0.38095779511E+02 -0.56304360388E+03  0.56460266687E+03  0.00000000000E+00 0. -1.
         13    1    5    5    0    0  0.28817441124E+02  0.14027244293E+02  0.22913862407E+03  0.23136922340E+03  0.00000000000E+00 0. -1.
        -14    1    5    5    0    0  0.54289241503E+02 -0.80783042336E+02  0.12014239786E+04  0.12053600284E+04  0.00000000000E+00 0.  1.
          5    1    4    4  501    0 -0.82818812468E+01  0.17070586000E+01  0.14242709361E+02  0.17083055230E+02  0.41800000000E+01 0. -1.
         -5    1    4    4    0  501 -0.15870318860E+02  0.66169863954E+02 -0.25207952761E+03  0.26113574737E+03  0.41800000000E+01 0. -1.
</event>
<event>
11    1  0.7882745E-009  0.2274690E+03  0.7561462E-02  0.1036637E+00
         22   -1    0    0    0    0  0.00000000000E+00  0.00000000000E+00  0.88448717859E+02  0.88448717859E+02  0.00000000000E+00 0.  1.
         22   -1    0    0    0    0 -0.00000000000E+00 -0.00000000000E+00 -0.17463795498E+04  0.17463795498E+04  0.00000000000E+00 0.  1.
         24    2    1    2    0    0  0.72925607203E+02 -0.16778787669E+03 -0.89443866926E+03  0.91683506329E+03  0.84232324372E+02 0.  0.
         25    2    1    2    0    0 -0.77847260514E+02  0.18508150183E+03 -0.79670404539E+03  0.83108438695E+03  0.12509422050E+03 0.  0.
        -24    2    1    2    0    0  0.49216533114E+01 -0.17293625133E+02  0.33211882706E+02  0.86908817416E+02  0.78274013888E+02 0.  0.
        -11    1    3    3    0    0  0.24242833693E+02 -0.29365461139E+02 -0.37927572942E+03  0.38118253399E+03  0.00000000000E+00 0.  1.
         12    1    3    3    0    0  0.48682773509E+02 -0.13842241556E+03 -0.51516293984E+03  0.53565252930E+03  0.00000000000E+00 0. -1.
         13    1    5    5    0    0  0.22434850053E+02  0.11606178111E+02 -0.13976953394E+02  0.28868340677E+02  0.00000000000E+00 0. -1.
        -14    1    5    5    0    0 -0.17513196741E+02 -0.28899803244E+02  0.47188836100E+02  0.58040476739E+02  0.00000000000E+00 0.  1.
          5    1    4    4  501    0 -0.11066275810E+03  0.11990595988E+03 -0.53210569616E+03  0.55657670588E+03  0.41800000000E+01 0. -1.
         -5    1    4    4    0  501  0.32815497585E+02  0.65175541945E+02 -0.26459834922E+03  0.27450768106E+03  0.41800000000E+01 0. -1.
</event>
<event>
11    1  0.7882745E-009  0.1259444E+03  0.7561462E-02  0.1124355E+00
         22   -1    0    0    0    0  0.00000000000E+00  0.00000000000E+00  0.32258519983E+03  0.32258519983E+03  0.00000000000E+00 0. -1.
         22   -1    0    0    0    0 -0.00000000000E+00 -0.00000000000E+00 -0.64727351413E+03  0.64727351413E+03  0.00000000000E+00 0.  1.
        -24    2    1    2    0    0 -0.95824664506E+00 -0.13966223342E+02 -0.52591918059E+03  0.53124364348E+03  0.73707873317E+02 0.  0.
         25    2    1    2    0    0 -0.51335185403E+01  0.26641206706E+02 -0.76555439294E+02  0.14914337477E+03  0.12508758550E+03 0.  0.
         24    2    1    2    0    0  0.60917651853E+01 -0.12674983364E+02  0.27778630559E+03  0.28947169572E+03  0.80192681984E+02 0.  0.
        -13    1    5    5    0    0 -0.18241793451E+02  0.27680402009E+02  0.13918401217E+03  0.14307745080E+03  0.00000000000E+00 0.  1.
         14    1    5    5    0    0  0.24333558637E+02 -0.40355385373E+02  0.13860229341E+03  0.14639424491E+03  0.00000000000E+00 0. -1.
         13    1    3    3    0    0 -0.14738999867E+02 -0.15981619392E+01 -0.19547879073E+02  0.24533891149E+02  0.00000000000E+00 0. -1.
        -14    1    3    3    0    0  0.13780753221E+02 -0.12368061403E+02 -0.50637130152E+03  0.50670975233E+03  0.00000000000E+00 0.  1.
          5    1    4    4  501    0  0.59619900970E+01 -0.46802821220E+02 -0.81153474317E+01  0.48056015898E+02  0.41800000000E+01 0. -1.
         -5    1    4    4    0  501 -0.11095508637E+02  0.73444027925E+02 -0.68440091862E+02  0.10108735887E+03  0.41800000000E+01 0. -1.
</event>
<event>
11    1  0.7882745E-009  0.2002175E+03  0.7561462E-02  0.1054370E+00
         22   -1    0    0    0    0  0.00000000000E+00  0.00000000000E+00  0.14339028981E+04  0.14339028981E+04  0.00000000000E+00 0. -1.
         22   -1    0    0    0    0 -0.00000000000E+00 -0.00000000000E+00 -0.33782597375E+03  0.33782597375E+03  0.00000000000E+00 0.  1.
        -24    2    1    2    0    0  0.29276802118E+02 -0.14303787782E+03 -0.21219582982E+03  0.27002891440E+03  0.81065274837E+02 0.  0.
         25    2    1    2    0    0 -0.13570015188E+03  0.20243935977E+03  0.11099288071E+03  0.29557246937E+03  0.12508972570E+03 0.  0.
         24    2    1    2    0    0  0.10642334976E+03 -0.59401481952E+02  0.11972798734E+04  0.12061274880E+04  0.80062205029E+02 0.  0.
        -13    1    5    5    0    0  0.29665969312E+02  0.75668305108E+01  0.55278814690E+03  0.55363531500E+03  0.00000000000E+00 0.  1.
         14    1    5    5    0    0  0.76757380452E+02 -0.66968312462E+02  0.64449172651E+03  0.65249217303E+03  0.00000000000E+00 0. -1.
         13    1    3    3    0    0 -0.11383547046E+02 -0.11825110262E+03 -0.14098187462E+03  0.18436050929E+03  0.00000000000E+00 0. -1.
        -14    1    3    3    0    0  0.40660349164E+02 -0.24786775206E+02 -0.71213955197E+02  0.85668405109E+02  0.00000000000E+00 0.  1.
          5    1    4    4  501    0 -0.15755161322E+03  0.18356234997E+03  0.84823563817E+02  0.25637893153E+03  0.41800000000E+01 0.  1.
         -5    1    4    4    0  501  0.21851461340E+02  0.18877009804E+02  0.26169316892E+02  0.39193537840E+02  0.41800000000E+01 0.  1.
</event>
<event>
11    1  0.7882745E-009  0.1310197E+03  0.7561462E-02  0.1118022E+00
         22   -1    0    0    0    0  0.00000000000E+00  0.00000000000E+00  0.23094009557E+03  0.23094009557E+03  0.00000000000E+00 0. -1.
         22   -1    0    0    0    0 -0.00000000000E+00 -0.00000000000E+00 -0.19391266041E+03  0.19391266041E+03  0.00000000000E+00 0.  1.
         24    2    1    2    0    0 -0.16741731925E+02 -0.37806404252E+02 -0.66947126238E+02  0.11210525778E+03  0.79850243078E+02 0.  0.
         25    2    1    2    0    0 -0.53506389737E+01  0.37839260897E+02 -0.48373593933E+02  0.13945511125E+03  0.12508910608E+03 0.  0.
        -24    2    1    2    0    0  0.22092370898E+02 -0.32856645487E-01  0.15234815533E+03  0.17329238695E+03  0.79575228624E+02 0.  0.
        -11    1    3    3    0    0 -0.23131879777E+02 -0.53594655516E+02 -0.19261858821E+02  0.61469424653E+02  0.00000000000E+00 0.  1.
         12    1    3    3    0    0  0.63901478524E+01  0.15788251265E+02 -0.47685267417E+02  0.50635833125E+02  0.00000000000E+00 0. -1.
         11    1    5    5    0    0 -0.11815699047E+02 -0.18186835076E+02  0.12303910101E+03  0.12493595195E+03  0.00000000000E+00 0. -1.
        -12    1    5    5    0    0  0.33908069945E+02  0.18153978431E+02  0.29309054329E+02  0.48356435000E+02  0.00000000000E+00 0.  1.
          5    1    4    4  501    0  0.12036156076E+02 -0.13194747999E+02  0.35327313132E+02  0.39805299659E+02  0.41800000000E+01 0. -1.
         -5    1    4    4    0  501 -0.17386795050E+02  0.51034008896E+02 -0.83700907065E+02  0.99649811588E+02  0.41800000000E+01 0. -1.
</event>
<event>
11    1  0.7882745E-009  0.1633637E+03  0.7561462E-02  0.1083956E+00
         22   -1    0    0    0    0  0.00000000000E+00  0.00000000000E+00  0.17927002004E+03  0.17927002004E+03  0.00000000000E+00 0.  1.
         22   -1    0    0    0    0 -0.00000000000E+00 -0.00000000000E+00 -0.27435115900E+04  0.27435115900E+04  0.00000000000E+00 0.  1.
         24    2    1    2    0    0  0.60469861648E+02  0.86154970006E+02 -0.25643925408E+04  0.25678150120E+04  0.80532910051E+02 0.  0.
         25    2    1    2    0    0 -0.66862456207E+02 -0.76205483940E+02 -0.12688296487E+03  0.20499954690E+03  0.12509062164E+03 0.  0.
        -24    2    1    2    0    0  0.63925945593E+01 -0.99494860654E+01  0.12703393573E+03  0.14996705111E+03  0.78820289608E+02 0.  0.
        -13    1    3    3    0    0  0.37673958333E+02  0.49947736625E+02 -0.22045815424E+04  0.22054690841E+04  0.00000000000E+00 0.  1.
         14    1    3    3    0    0  0.22795903315E+02  0.36207233381E+02 -0.35981099838E+03  0.36234592796E+03  0.00000000000E+00 0. -1.
         11    1    5    5    0    0  0.14493335934E+02 -0.34693738573E+02  0.26203869381E+02  0.45829630734E+02  0.00000000000E+00 0. -1.
        -12    1    5    5    0    0 -0.81007413743E+01  0.24744252508E+02  0.10083006635E+03  0.10413742038E+03  0.00000000000E+00 0.  1.
          5    1    4    4  501    0 -0.15282596629E+02  0.31967376541E+02 -0.88914123762E+01  0.36769559920E+02  0.41800000000E+01 0.  1.
         -5    1    4    4    0  501 -0.51579859578E+02 -0.10817286048E+03 -0.11799155249E+03  0.16822998698E+03  0.41800000000E+01 0.  1.
</event>
<event>
11    1  0.7882745E-009  0.1351756E+03  0.7561462E-02  0.1113068E+00
         22   -1    0    0    0    0  0.00000000000E+00  0.00000000000E+00  0.59791759541E+03  0.59791759541E+03  0.00000000000E+00 0. -1.
         22   -1    0    0    0    0 -0.00000000000E+00 -0.00000000000E+00 -0.17744825877E+03  0.17744825877E+03  0.00000000000E+00 0.  1.
         24    2    1    2    0    0 -0.38218215446E+02 -0.31229327070E+02 -0.12968251629E+03  0.15999520351E+03  0.79655553813E+02 0.  0.
         25    2    1    2    0    0  0.60780277920E+02  0.41556982217E+02  0.14899759475E+03  0.20801161440E+03  0.12508926223E+03 0.  0.
        -24    2    1    2    0    0 -0.22562062474E+02 -0.10327655146E+02  0.40115425818E+03  0.40735903627E+03  0.66339569260E+02 0.  0.
        -11    1    3    3    0    0 -0.60100277359E+02 -0.36269086736E+02 -0.10780692556E+03  0.12864611611E+03  0.00000000000E+00 0.  1.
         12    1    3    3    0    0  0.21882061912E+02  0.50397596654E+01 -0.21875590735E+02  0.31349087404E+02  0.00000000000E+00 0. -1.
         11    1    5    5    0    0  0.55193418357E-03 -0.27972474079E+02  0.32144322011E+03  0.32265802804E+03  0.00000000000E+00 0. -1.
        -12    1    5    5    0    0 -0.22562614408E+02  0.17644818932E+02  0.79711038070E+02  0.84701008225E+02  0.00000000000E+00 0.  1.
          5    1    4    4  501    0 -0.23656431690E+01 -0.39909556948E+02  0.57271627729E+02  0.69970570572E+02  0.41800000000E+01 0.  1.
         -5    1    4    4    0  501  0.63145921089E+02  0.81466539164E+02  0.91725967024E+02  0.13804104382E+03  0.41800000000E+01 0.  1.
</event>
<event>
11    1  0.7882745E-009  0.2046154E+03  0.7561462E-02  0.1051307E+00
         22   -1    0    0    0    0  0.00000000000E+00  0.00000000000E+00  0.56649089248E+03  0.56649089248E+03  0.00000000000E+00 0. -1.
         22   -1    0    0    0    0 -0.00000000000E+00 -0.00000000000E+00 -0.74145586225E+03  0.74145586225E+03  0.00000000000E+00 0. -1.
         24    2    1    2    0    0  0.15422299602E+03  0.57365925059E+02 -0.66832784295E+03  0.69279615378E+03  0.78922893850E+02 0.  0.
         25    2    1    2    0    0 -0.12555802246E+03 -0.37391947367E+02  0.90050133894E+02  0.20227829743E+03  0.12507800872E+03 0.  0.
        -24    2    1    2    0    0 -0.28664973560E+02 -0.19973977692E+02  0.40331273929E+03  0.41287230352E+03  0.81127879581E+02 0.  0.
        -13    1    3    3    0    0  0.28723071627E+02 -0.30520083149E+01 -0.40759254931E+02  0.49956445640E+02  0.00000000000E+00 0.  1.
         14    1    3    3    0    0  0.12549992439E+03  0.60417933374E+02 -0.62756858802E+03  0.64283970814E+03  0.00000000000E+00 0. -1.
         13    1    5    5    0    0 -0.10625135798E+02 -0.41863085312E+02  0.34839452250E+03  0.35106146859E+03  0.00000000000E+00 0. -1.
        -14    1    5    5    0    0 -0.18039837762E+02  0.21889107621E+02  0.54918216795E+02  0.61810834931E+02  0.00000000000E+00 0.  1.
          5    1    4    4  501    0 -0.11679007943E+03 -0.53601648398E+02  0.20485803406E+02  0.13019293339E+03  0.41800000000E+01 0. -1.
         -5    1    4    4    0  501 -0.87679430291E+01  0.16209701031E+02  0.69564330488E+02  0.72085364039E+02  0.41800000000E+01 0. -1.
</event>
<event>
11    1  0.1048878E-008  0.1560280E+03  0.7561462E-02  0.1090874E+00
         22   -1    0    0    0    0  0.00000000000E+00  0.00000000000E+00  0.10786711807E+04  0.10786711807E+04  0.00000000000E+00 0. -1.
         22   -1    0    0    0    0 -0.00000000000E+00 -0.00000000000E+00 -0.38121847443E+03  0.38121847443E+03  0.00000000000E+00 0. -1.
         24    2    1    2    0    0 -0.64532699953E+02 -0.62353119452E+01 -0.19864144233E+03  0.22401177487E+03  0.80743446738E+02 0.  0.
         25    2    1    2    0    0  0.13908487124E+03 -0.47916992229E+02 -0.10985281258E+03  0.22216152613E+03  0.12508982255E+03 0.  0.
        -24    2    1    2    0    0 -0.74552171292E+02  0.54152304174E+02  0.10059469612E+04  0.10137163541E+04  0.84859057589E+02 0.  0.
        -13    1    3    3    0    0 -0.36559491722E+02  0.51192008395E+01 -0.18377982342E+02  0.41237760452E+02  0.00000000000E+00 0.  1.
         14    1    3    3    0    0 -0.27973208231E+02 -0.11354512785E+02 -0.18026345999E+03  0.18277401442E+03  0.00000000000E+00 0. -1.
         13    1    5    5    0    0  0.13465376086E+02  0.72234107617E+01  0.33975094009E+03  0.34009439176E+03  0.00000000000E+00 0. -1.
        -14    1    5    5    0    0 -0.88017547378E+02  0.46928893412E+02  0.66619602108E+03  0.67362196237E+03  0.00000000000E+00 0.  1.
          5    1    4    4  501    0  0.14920005467E+03 -0.18273491951E+02 -0.11606699628E+03  0.18995682890E+03  0.41800000000E+01 0. -1.
         -5    1    4    4    0  501 -0.10115183424E+02 -0.29643500277E+02  0.62141836987E+01  0.32204697226E+02  0.41800000000E+01 0. -1.
</event>
<event>
11    1  0.7882745E-009  0.1828079E+03  0.7561462E-02  0.1067394E+00
         22   -1    0    0    0    0  0.00000000000E+00  0.00000000000E+00  0.10880299882E+04  0.10880299882E+04  0.00000000000E+00 0.  1.
         22   -1    0    0    0    0 -0.00000000000E+00 -0.00000000000E+00 -0.13860627999E+03  0.13860627999E+03  0.00000000000E+00 0.  1.
         24    2    1    2    0    0  0.10907292809E+03  0.57818194324E+02  0.56950734718E+02  0.15770967268E+03  0.79931892469E+02 0.  0.
         25    2    1    2    0    0 -0.70908794193E+01 -0.14856240197E+03  0.35633884892E+02  0.19758047018E+03  0.12508877086E+03 0.  0.
        -24    2    1    2    0    0 -0.10198204868E+03  0.90744207643E+02  0.85683908856E+03  0.87134612529E+03  0.80224665181E+02 0.  0.
        -11    1    3    3    0    0 -0.10460045758E+02  0.17388613042E+02  0.31560471068E+01  0.20536237584E+02  0.00000000000E+00 0.  1.
         12    1    3    3    0    0  0.11953297385E+03  0.40429581282E+02  0.53794687611E+02  0.13717343509E+03  0.00000000000E+00 0. -1.
         11    1    5    5    0    0 -0.20402804545E+02  0.16366265030E+02  0.45109711451E+02  0.52144176391E+02  0.00000000000E+00 0. -1.
        -12    1    5    5    0    0 -0.81579244130E+02  0.74377942613E+02  0.81172937711E+03  0.81920194890E+03  0.00000000000E+00 0.  1.
          5    1    4    4  501    0  0.31044146137E+02 -0.14876949422E+03  0.44089960164E+02  0.15829560451E+03  0.41800000000E+01 0. -1.
         -5    1    4    4    0  501 -0.38135025556E+02  0.20709225714E+00 -0.84560752724E+01  0.39284865666E+02  0.41800000000E+01 0. -1.
</event>
<event>
11    1  0.7882745E-009  0.1813760E+03  0.7561462E-02  0.1068535E+00
         22   -1    0    0    0    0  0.00000000000E+00  0.00000000000E+00  0.11068964310E+04  0.11068964310E+04  0.00000000000E+00 0.  1.
         22   -1    0    0    0    0 -0.00000000000E+00 -0.00000000000E+00 -0.20102557177E+03  0.20102557177E+03  0.00000000000E+00 0. -1.
         24    2    1    2    0    0  0.87745693227E+02 -0.11234507557E+03 -0.12122956972E+03  0.19622845575E+03  0.59061625344E+02 0.  0.
         25    2    1    2    0    0 -0.10493406770E+03  0.12403647606E+02  0.14044366837E+03  0.21572249519E+03  0.12508701733E+03 0.  0.
        -24    2    1    2    0    0  0.17188374476E+02  0.99941427966E+02  0.88665676058E+03  0.89597105184E+03  0.79499593759E+02 0.  0.
        -13    1    3    3    0    0 -0.13430164510E+01 -0.36369574840E+02 -0.20467048867E+02  0.41754637545E+02  0.00000000000E+00 0.  1.
         14    1    3    3    0    0  0.89088709678E+02 -0.75975500732E+02 -0.10076252085E+03  0.15447381821E+03  0.00000000000E+00 0. -1.
         11    1    5    5    0    0 -0.25905203990E+02  0.52935497587E+02  0.29081350528E+03  0.29672502650E+03  0.00000000000E+00 0. -1.
        -12    1    5    5    0    0  0.43093578466E+02  0.47005930379E+02  0.59584325531E+03  0.59924602534E+03  0.00000000000E+00 0.  1.
          5    1    4    4  501    0 -0.31773405340E+02 -0.25991234934E+02  0.12490846497E+03  0.13154729416E+03  0.41800000000E+01 0. -1.
         -5    1    4    4    0  501 -0.73160662363E+02  0.38394882540E+02  0.15535203403E+02  0.84175201024E+02  0.41800000000E+01 0. -1.
</event>
<event>
11    1  0.7882745E-009  0.1353030E+03  0.7561462E-02  0.1112920E+00
         22   -1    0    0    0    0  0.00000000000E+00  0.00000000000E+00  0.44227612485E+03  0.44227612485E+03  0.00000000000E+00 0.  1.
         22   -1    0    0    0    0 -0.00000000000E+00 -0.00000000000E+00 -0.15520543471E+04  0.15520543471E+04  0.00000000000E+00 0.  1.
        -24    2    1    2    0    0 -0.48570983087E+02  0.58712318714E+01 -0.13397377396E+04  0.13430261154E+04  0.80176828732E+02 0.  0.
         25    2    1    2    0    0 -0.23419750300E+01 -0.19821809289E+02 -0.18540514533E+03  0.22454655868E+03  0.12509076756E+03 0.  0.
         24    2    1    2    0    0  0.50912958117E+02  0.13950577417E+02  0.41536466268E+03  0.42675779792E+03  0.82508588444E+02 0.  0.
        -13    1    5    5    0    0  0.59860594714E+00 -0.81408146848E+01  0.28712321212E+03  0.28723922109E+03  0.00000000000E+00 0.  1.
         14    1    5    5    0    0  0.50314352169E+02  0.22091392102E+02  0.12824145055E+03  0.13951857682E+03  0.00000000000E+00 0. -1.
         11    1    3    3    0    0  0.94273083351E+01 -0.21926622982E+02 -0.19037473532E+03  0.19186503274E+03  0.00000000000E+00 0. -1.
        -12    1    3    3    0    0 -0.57998291422E+02  0.27797854854E+02 -0.11493630043E+04  0.11511610827E+04  0.00000000000E+00 0.  1.
          5    1    4    4  501    0  0.16833715327E+02  0.11165202820E+02 -0.18670803482E+03  0.18784408000E+03  0.41800000000E+01 0.  1.
         -5    1    4    4    0  501 -0.19175690357E+02 -0.30987012109E+02  0.13028894839E+01  0.36702478678E+02  0.41800000000E+01 0.  1.
</event>
<event>
11    1  0.7882745E-009  0.1342973E+03  0.7561462E-02  0.1114099E+00
         22   -1    0    0    0    0  0.00000000000E+00  0.00000000000E+00  0.17112133963E+03  0.17112133963E+03  0.00000000000E+00 0.  1.
         22   -1    0    0    0    0 -0.00000000000E+00 -0.00000000000E+00 -0.12674599506E+04  0.12674599506E+04  0.00000000000E+00 0.  1.
         24    2    1    2    0    0  0.10562719368E+02  0.26220178015E+02 -0.11422608072E+04  0.11455819350E+04  0.82456955020E+02 0.  0.
         25    2    1    2    0    0  0.37010972133E+01  0.24745285052E+02 -0.67187575807E+02  0.14418092163E+03  0.12509172861E+03 0.  0.
        -24    2    1    2    0    0 -0.14263816581E+02 -0.50965463067E+02  0.11310977198E+03  0.14881843362E+03  0.80945480293E+02 0.  0.
        -13    1    3    3    0    0 -0.12742565354E+02 -0.23963667506E+02 -0.22088257590E+03  0.22254379943E+03  0.00000000000E+00 0.  1.
         14    1    3    3    0    0  0.23305284723E+02  0.50183845521E+02 -0.92137823126E+03  0.92303813555E+03  0.00000000000E+00 0. -1.
         11    1    5    5    0    0 -0.66750925566E+01  0.20762436842E+02  0.12862784465E+02  0.25319693293E+02  0.00000000000E+00 0. -1.
        -12    1    5    5    0    0 -0.75887240248E+01 -0.71727899908E+02  0.10024698751E+03  0.12349874033E+03  0.00000000000E+00 0.  1.
          5    1    4    4  501    0  0.56693436066E+02 -0.94924570596E+01 -0.91540669134E+01  0.58356848571E+02  0.41800000000E+01 0. -1.
         -5    1    4    4    0  501 -0.52992338853E+02  0.34237742112E+02 -0.58033508893E+02  0.85824073059E+02  0.41800000000E+01 0. -1.
</event>
<event>
11    1  0.7882745E-009  0.2195811E+03  0.7561462E-02  0.1041480E+00
         22   -1    0    0    0    0  0.00000000000E+00  0.00000000000E+00  0.64299721826E+03  0.64299721826E+03  0.00000000000E+00 0.  1.
         22   -1    0    0    0    0 -0.00000000000E+00 -0.00000000000E+00 -0.14673911295E+03  0.14673911295E+03  0.00000000000E+00 0. -1.
         24    2    1    2    0    0  0.35970730835E+02  0.11093290394E+03  0.41572851623E+02  0.14670267993E+03  0.78697977449E+02 0.  0.
         25    2    1    2    0    0 -0.14284026804E+03 -0.21148492516E+03  0.25193654816E+03  0.37980284096E+03  0.12509579513E+03 0.  0.
        -24    2    1    2    0    0  0.10686953721E+03  0.10055202123E+03  0.20274870553E+03  0.26323081032E+03  0.81557433464E+02 0.  0.
        -13    1    3    3    0    0  0.15540302199E+02  0.11300090701E+03  0.49953775658E+02  0.12452343426E+03  0.00000000000E+00 0.  1.
         14    1    3    3    0    0  0.20430428636E+02 -0.20680030721E+01 -0.83809240350E+01  0.22179245673E+02  0.00000000000E+00 0. -1.
         13    1    5    5    0    0 -0.46408189839E+01  0.39091214021E+02  0.61942849745E+02  0.73393302481E+02  0.00000000000E+00 0. -1.
        -14    1    5    5    0    0  0.11151035619E+03  0.61460807206E+02  0.14080585579E+03  0.18983750784E+03  0.00000000000E+00 0.  1.
          5    1    4    4  501    0 -0.12208898577E+03 -0.76300627191E+02  0.10005029457E+03  0.17537114928E+03  0.41800000000E+01 0.  1.
         -5    1    4    4    0  501 -0.20751282271E+02 -0.13518429797E+03  0.15188625359E+03  0.20443169168E+03  0.41800000000E+01 0.  1.
</event>
<event>
11    1  0.7882745E-009  0.1779550E+03  0.7561462E-02  0.1071309E+00
         22   -1    0    0    0    0  0.00000000000E+00  0.00000000000E+00  0.20360243851E+03  0.20360243851E+03  0.00000000000E+00 0. -1.
         22   -1    0    0    0    0 -0.00000000000E+00 -0.00000000000E+00 -0.62530346366E+03  0.62530346366E+03  0.00000000000E+00 0. -1.
        -24    2    1    2    0    0  0.80427503382E+01 -0.13769504855E+02 -0.33709383366E+03  0.34664419029E+03  0.79219043656E+02 0.  0.
         25    2    1    2    0    0 -0.10541544804E+03  0.91861791946E+02 -0.21487095215E+03  0.28524984638E+03  0.12508774230E+03 0.  0.
         24    2    1    2    0    0  0.97372697707E+02 -0.78092287091E+02  0.13026376066E+03  0.19701186550E+03  0.79152891575E+02 0.  0.
        -13    1    5    5    0    0 -0.63085135046E+01  0.94989958922E+01  0.55275373769E+01  0.12672092765E+02  0.00000000000E+00 0.  1.
         14    1    5    5    0    0  0.10368121121E+03 -0.87591282983E+02  0.12473622328E+03  0.18433977273E+03  0.00000000000E+00 0. -1.
         13    1    3    3    0    0 -0.13660584248E+01 -0.20948334756E+02 -0.33366221982E+03  0.33432196425E+03  0.00000000000E+00 0. -1.
        -14    1    3    3    0    0  0.94088087630E+01  0.71788299012E+01 -0.34316138338E+01  0.12322226040E+02  0.00000000000E+00 0.  1.
          5    1    4    4  501    0  0.14246083555E+02  0.46778727258E+02 -0.21956277479E+02  0.53765702277E+02  0.41800000000E+01 0.  1.
         -5    1    4    4    0  501 -0.11966153160E+03  0.45083064687E+02 -0.19291467467E+03  0.23148414410E+03  0.41800000000E+01 0.  1.
</event>
<event>
11    1  0.7882745E-009  0.1348808E+03  0.7561462E-02  0.1113413E+00
         22   -1    0    0    0    0  0.00000000000E+00  0.00000000000E+00  0.21437290617E+04  0.21437290617E+04  0.00000000000E+00 0.  1.
         22   -1    0    0    0    0 -0.00000000000E+00 -0.00000000000E+00 -0.10636165260E+04  0.10636165260E+04  0.00000000000E+00 0. -1.
        -24    2    1    2    0    0  0.51233697032E+02 -0.69714315050E+01 -0.10284839842E+04  0.10329768655E+04  0.81168998605E+02 0.  0.
         25    2    1    2    0    0 -0.45563657801E+02  0.56969538318E+02  0.13675494277E+03  0.19917706500E+03  0.12509202070E+03 0.  0.
         24    2    1    2    0    0 -0.56700392312E+01 -0.49998106813E+02  0.19718415772E+04  0.19751916572E+04  0.10339689192E+03 0.  0.
        -11    1    5    5    0    0 -0.40107169665E+02 -0.65811611887E+02  0.13417041490E+04  0.13439158370E+04  0.00000000000E+00 0.  1.
         12    1    5    5    0    0  0.34437130434E+02  0.15813505074E+02  0.63013742816E+03  0.63127582028E+03  0.00000000000E+00 0. -1.
         13    1    3    3    0    0 -0.47970455488E+01 -0.24659009665E+02 -0.59486418708E+03  0.59539438986E+03  0.00000000000E+00 0. -1.
        -14    1    3    3    0    0  0.56030742580E+02  0.17687578160E+02 -0.43361979711E+03  0.43758247564E+03  0.00000000000E+00 0.  1.
          5    1    4    4  501    0 -0.71207346228E+02 -0.90844046119E+01  0.52635408974E+02  0.89112127355E+02  0.41800000000E+01 0.  1.
         -5    1    4    4    0  501  0.25643688427E+02  0.66053942930E+02  0.84119533793E+02  0.11006493764E+03  0.41800000000E+01 0.  1.
</event>
<event>
11    1  0.7882745E-009  0.1296151E+03  0.7561462E-02  0.1119743E+00
         22   -1    0    0    0    0  0.00000000000E+00  0.00000000000E+00  0.81840826085E+03  0.81840826085E+03  0.00000000000E+00 0. -1.
         22   -1    0    0    0    0 -0.00000000000E+00 -0.00000000000E+00 -0.48162217485E+03  0.48162217485E+03  0.00000000000E+00 0. -1.
        -24    2    1    2    0    0 -0.72304285727E+00 -0.44840863602E+01 -0.40687566290E+03  0.41452552213E+03  0.79138951306E+02 0.  0.
         25    2    1    2    0    0 -0.32642370152E+02  0.10928317468E+02 -0.70704988134E+01  0.12992266395E+03  0.12507979134E+03 0.  0.
         24    2    1    2    0    0  0.33365413010E+02 -0.64442311073E+01  0.75073224771E+03  0.75558224963E+03  0.78427350460E+02 0.  0.
        -11    1    5    5    0    0  0.21363057090E+02 -0.21193587946E+02  0.96710153693E+02  0.10128377069E+03  0.00000000000E+00 0.  1.
         12    1    5    5    0    0  0.12002355920E+02  0.14749356839E+02  0.65402209402E+03  0.65429847893E+03  0.00000000000E+00 0. -1.
         13    1    3    3    0    0 -0.53063297630E+01  0.28809393694E+02 -0.32059583589E+03  0.32193140308E+03  0.00000000000E+00 0. -1.
        -14    1    3    3    0    0  0.45832869057E+01 -0.33293480054E+02 -0.86279827008E+02  0.92594119044E+02  0.00000000000E+00 0.  1.
          5    1    4    4  501    0  0.16420416850E+02  0.57329819724E+02 -0.15453412501E+02  0.61746406188E+02  0.41800000000E+01 0.  1.
         -5    1    4    4    0  501 -0.49062787003E+02 -0.46401502257E+02  0.83829136876E+01  0.68176257759E+02  0.41800000000E+01 0.  1.
</event>
<event>
11    1  0.7882745E-009  0.2896313E+03  0.7561462E-02  0.1004677E+00
         22   -1    0    0    0    0  0.00000000000E+00  0.00000000000E+00  0.19945091035E+03  0.19945091035E+03  0.00000000000E+00 0.  1.
         22   -1    0    0    0    0 -0.00000000000E+00 -0.00000000000E+00 -0.16658450693E+04  0.16658450693E+04  0.00000000000E+00 0. -1.
         24    2    1    2    0    0  0.10905167151E+03 -0.13540254338E+02 -0.11630698339E+04  0.11711806399E+04  0.82807289013E+02 0.  0.
         25    2    1    2    0    0  0.15100762572E+03 -0.11606799460E+03 -0.32012733397E+03  0.39294236691E+03  0.12508841416E+03 0.  0.
        -24    2    1    2    0    0 -0.26005929723E+03  0.12960824894E+03  0.16803008947E+02  0.30117297286E+03  0.77418874960E+02 0.  0.
        -13    1    3    3    0    0  0.84038499521E+02  0.14001710033E+02 -0.51127708643E+03  0.51832690109E+03  0.00000000000E+00 0.  1.
         14    1    3    3    0    0  0.25013171993E+02 -0.27541964370E+02 -0.65179274749E+03  0.65285373879E+03  0.00000000000E+00 0. -1.
         13    1    5    5    0    0 -0.77207073545E+02  0.59282812055E+02  0.37192932070E+02  0.10420507764E+03  0.00000000000E+00 0. -1.
        -14    1    5    5    0    0 -0.18285222369E+03  0.70325436884E+02 -0.20389923123E+02  0.19696789522E+03  0.00000000000E+00 0.  1.
          5    1    4    4  501    0  0.60202633877E+02 -0.65802468564E+02 -0.47363978106E+02  0.10106997980E+03  0.41800000000E+01 0.  1.
         -5    1    4    4    0  501  0.90804991843E+02 -0.50265526036E+02 -0.27276335587E+03  0.29187238711E+03  0.41800000000E+01 0.  1.
</event>
<event>
11    1  0.7882745E-009  0.1869844E+03  0.7561462E-02  0.1064129E+00
         22   -1    0    0    0    0  0.00000000000E+00  0.00000000000E+00  0.39608840558E+03  0.39608840558E+03  0.00000000000E+00 0. -1.
         22   -1    0    0    0    0 -0.00000000000E+00 -0.00000000000E+00 -0.44800020850E+03  0.44800020850E+03  0.00000000000E+00 0.  1.
        -24    2    1    2    0    0 -0.45134118987E+02  0.27767883872E+01 -0.34385836183E+03  0.35673069408E+03  0.83506980829E+02 0.  0.
         25    2    1    2    0    0 -0.60239674973E+02 -0.10421179564E+03  0.28562056941E+02  0.17593074991E+03  0.12508765277E+03 0.  0.
         24    2    1    2    0    0  0.10537379396E+03  0.10143500725E+03  0.26338450197E+03  0.31142717010E+03  0.78884657850E+02 0.  0.
        -11    1    5    5    0    0  0.14925640893E+02  0.50706398496E+02  0.44026808505E+02  0.68791521801E+02  0.00000000000E+00 0.  1.
         12    1    5    5    0    0  0.90448153067E+02  0.50728608754E+02  0.21935769347E+03  0.24263564829E+03  0.00000000000E+00 0. -1.
         13    1    3    3    0    0  0.10316810435E+02  0.10338600638E+02 -0.88449412191E+01  0.17075017595E+02  0.00000000000E+00 0. -1.
        -14    1    3    3    0    0 -0.55450929421E+02 -0.75618122512E+01 -0.33501342062E+03  0.33965567649E+03  0.00000000000E+00 0.  1.
          5    1    4    4  501    0 -0.18602063273E+02  0.48074556258E+01  0.53084341613E+02  0.56608904883E+02  0.41800000000E+01 0. -1.
         -5    1    4    4    0  501 -0.41637611700E+02 -0.10901925126E+03 -0.24522284672E+02  0.11932184502E+03  0.41800000000E+01 0. -1.
</event>
<event>
11    1  0.7882745E-009  0.1324388E+03  0.7561462E-02  0.1116308E+00
         22   -1    0    0    0    0  0.00000000000E+00  0.00000000000E+00  0.18236316473E+03  0.18236316473E+03  0.00000000000E+00 0.  1.
         22   -1    0    0    0    0 -0.00000000000E+00 -0.00000000000E+00 -0.37127326862E+03  0.37127326862E+03  0.00000000000E+00 0.  1.
         24    2    1    2    0    0  0.97606786794E+01  0.41696388925E+02 -0.29399558910E+03  0.30708180731E+03  0.77665759970E+02 0.  0.
         25    2    1    2    0    0 -0.30595716743E+01 -0.54387116153E+02  0.55740742122E+02  0.14738943598E+03  0.12509714674E+03 0.  0.
        -24    2    1    2    0    0 -0.67011070052E+01  0.12690727228E+02  0.49344743090E+02  0.99165190072E+02  0.84810800365E+02 0.  0.
        -13    1    3    3    0    0 -0.12999293537E+02  0.21085601569E+02 -0.26037177338E+03  0.26154740411E+03  0.00000000000E+00 0.  1.
         14    1    3    3    0    0  0.22759972217E+02  0.20610787356E+02 -0.33623815726E+02  0.45534403200E+02  0.00000000000E+00 0. -1.
         13    1    5    5    0    0  0.19651011698E+01 -0.33797701026E+02  0.47883357729E+01  0.34191729654E+02  0.00000000000E+00 0. -1.
        -14    1    5    5    0    0 -0.86662081749E+01  0.46488428254E+02  0.44556407317E+02  0.64973460418E+02  0.00000000000E+00 0.  1.
          5    1    4    4  501    0  0.18318804387E+02 -0.38970491039E+02  0.92410734613E+02  0.10203672887E+03  0.41800000000E+01 0. -1.
         -5    1    4    4    0  501 -0.21378376062E+02 -0.15416625115E+02 -0.36669992491E+02  0.45352707111E+02  0.41800000000E+01 0. -1.
</event>
<event>
11    1  0.7882745E-009  0.1294224E+03  0.7561462E-02  0.1119981E+00
         22   -1    0    0    0    0  0.00000000000E+00  0.00000000000E+00  0.26247462829E+03  0.26247462829E+03  0.00000000000E+00 0. -1.
         22   -1    0    0    0    0 -0.00000000000E+00 -0.00000000000E+00 -0.27130930733E+03  0.27130930733E+03  0.00000000000E+00 0. -1.
        -24    2    1    2    0    0 -0.24228584317E+02 -0.28793638721E+02 -0.16322096863E+03  0.18571697826E+03  0.80209809154E+02 0.  0.
         25    2    1    2    0    0  0.14248875725E+02  0.80280606786E+01 -0.43315685143E+02  0.13338747188E+03  0.12509392015E+03 0.  0.
         24    2    1    2    0    0  0.99797085919E+01  0.20765578043E+02  0.19770197473E+03  0.21467948547E+03  0.80438839218E+02 0.  0.
        -11    1    5    5    0    0  0.24939196574E+02  0.42255100392E+02  0.78014197539E+02  0.92161120070E+02  0.00000000000E+00 0.  1.
         12    1    5    5    0    0 -0.14959487983E+02 -0.21489522349E+02  0.11968777719E+03  0.12251836540E+03  0.00000000000E+00 0. -1.
         11    1    3    3    0    0 -0.34976143788E+01 -0.35912615455E+01 -0.15066986545E+03  0.15075323817E+03  0.00000000000E+00 0. -1.
        -12    1    3    3    0    0 -0.20730969938E+02 -0.25202377176E+02 -0.12551103187E+02  0.34963740090E+02  0.00000000000E+00 0.  1.
          5    1    4    4  501    0  0.48424521943E+01  0.56510004582E+02 -0.58463689856E+02  0.81561666196E+02  0.41800000000E+01 0.  1.
         -5    1    4    4    0  501  0.94064235305E+01 -0.48481943904E+02  0.15148004712E+02  0.51825805687E+02  0.41800000000E+01 0.  1.
</event>
<event>
11    1  0.7882745E-009  0.1453254E+03  0.7561462E-02  0.1101753E+00
         22   -1    0    0    0    0  0.00000000000E+00  0.00000000000E+00  0.16110868281E+04  0.16110868281E+04  0.00000000000E+00 0.  1.
         22   -1    0    0    0    0 -0.00000000000E+00 -0.00000000000E+00 -0.16228669316E+03  0.16228669316E+03  0.00000000000E+00 0.  1.
        -24    2    1    2    0    0 -0.63297419960E+02 -0.39801849378E+02 -0.12638110539E+03  0.17959507648E+03  0.10339950247E+03 0.  0.
         25    2    1    2    0    0  0.61379606049E+02  0.90268780514E+00  0.68526074537E+03  0.69928592663E+03  0.12510094780E+03 0.  0.
         24    2    1    2    0    0  0.19178139107E+01  0.38899161573E+02  0.88992049498E+03  0.89449251817E+03  0.81495735462E+02 0.  0.
        -11    1    5    5    0    0  0.15679179486E+02 -0.51152732684E+01  0.64834835490E+03  0.64855808683E+03  0.00000000000E+00 0.  1.
         12    1    5    5    0    0 -0.13761365576E+02  0.44014434842E+02  0.24157214008E+03  0.24593443134E+03  0.00000000000E+00 0. -1.
         11    1    3    3    0    0  0.20175880414E+02  0.47325151096E+01 -0.61440944557E+02  0.64841749805E+02  0.00000000000E+00 0. -1.
        -12    1    3    3    0    0 -0.83473300374E+02 -0.44534364488E+02 -0.64940160829E+02  0.11475332668E+03  0.00000000000E+00 0.  1.
          5    1    4    4  501    0  0.53307319554E+01 -0.42488457691E+02  0.89454958254E+02  0.99264030225E+02  0.41800000000E+01 0. -1.
         -5    1    4    4    0  501  0.56048874094E+02  0.43391145496E+02  0.59580578712E+03  0.60002189640E+03  0.41800000000E+01 0. -1.
</event>
<event>
11    1  0.7882745E-009  0.1719847E+03  0.7561462E-02  0.1076317E+00
         22   -1    0    0    0    0  0.00000000000E+00  0.00000000000E+00  0.56432938732E+03  0.56432938732E+03  0.00000000000E+00 0.  1.
         22   -1    0    0    0    0 -0.00000000000E+00 -0.00000000000E+00 -0.76400372879E+03  0.76400372879E+03  0.00000000000E+00 0. -1.
        -24    2    1    2    0    0 -0.36259829371E+01  0.62261883579E+02 -0.60460436725E+03  0.61166219356E+03  0.68516481469E+02 0.  0.
         25    2    1    2    0    0 -0.46670661279E+02 -0.16512810565E+03 -0.68492542796E+02  0.22312476319E+03  0.12509192473E+03 0.  0.
         24    2    1    2    0    0  0.50296644216E+02  0.10286622207E+03  0.47342256858E+03  0.49354615935E+03  0.79672271884E+02 0.  0.
        -13    1    5    5    0    0  0.40753436529E+02  0.60556450810E+01  0.16944219026E+03  0.17437938315E+03  0.00000000000E+00 0.  1.
         14    1    5    5    0    0  0.95432076874E+01  0.96810576986E+02  0.30398037832E+03  0.31916677621E+03  0.00000000000E+00 0. -1.
         11    1    3    3    0    0 -0.22771565101E+02  0.40481477996E+02 -0.52300104429E+03  0.52505941241E+03  0.00000000000E+00 0. -1.
        -12    1    3    3    0    0  0.19145582164E+02  0.21780405583E+02 -0.81603322968E+02  0.86602781151E+02  0.00000000000E+00 0.  1.
          5    1    4    4  501    0 -0.59352634959E+02 -0.16878377447E+03 -0.87820135129E+02  0.19935031059E+03  0.41800000000E+01 0. -1.
         -5    1    4    4    0  501  0.12681973680E+02  0.36556688205E+01  0.19327592334E+02  0.23774452598E+02  0.41800000000E+01 0. -1.
</event>
<event>
11    1  0.1014290E-008  0.2365313E+03  0.7561462E-02  0.1031329E+00
         22   -1    0    0    0    0  0.00000000000E+00  0.00000000000E+00  0.45502255628E+03  0.45502255628E+03  0.00000000000E+00 0.  1.
         22   -1    0    0    0    0 -0.00000000000E+00 -0.00000000000E+00 -0.75969976699E+03  0.75969976699E+03  0.00000000000E+00 0.  1.
         24    2    1    2    0    0  0.60684148522E+02 -0.71170260788E+02 -0.53069352002E+03  0.54525514846E+03  0.83185292130E+02 0.  0.
         25    2    1    2    0    0  0.14871697261E+03  0.62729775534E+02 -0.13521809145E+03  0.24491746059E+03  0.12509543384E+03 0.  0.
        -24    2    1    2    0    0 -0.20940112113E+03  0.84404852532E+01  0.36123440076E+03  0.42454971422E+03  0.76368162403E+02 0.  0.
        -11    1    3    3    0    0  0.23016680349E+02 -0.42775514914E+02 -0.44321682474E+03  0.44587068303E+03  0.00000000000E+00 0.  1.
         12    1    3    3    0    0  0.37667468174E+02 -0.28394745874E+02 -0.87476695275E+02  0.99384465427E+02  0.00000000000E+00 0. -1.
         11    1    5    5    0    0  0.21254097956E+01 -0.85148518684E+01  0.29255092659E+02  0.30543092765E+02  0.00000000000E+00 0. -1.
        -12    1    5    5    0    0 -0.21152653093E+03  0.16955337122E+02  0.33197930810E+03  0.39400662145E+03  0.00000000000E+00 0.  1.
          5    1    4    4  501    0  0.12961444944E+03  0.96995659023E+02 -0.12380766792E+03  0.20384767452E+03  0.41800000000E+01 0. -1.
         -5    1    4    4    0  501  0.19102523173E+02 -0.34265883488E+02 -0.11410423530E+02  0.41069786071E+02  0.41800000000E+01 0. -1.
</event>
<event>
11    1  0.7882745E-009  0.1331523E+03  0.7561462E-02  0.1115455E+00
         22   -1    0    0    0    0  0.00000000000E+00  0.00000000000E+00  0.93066353225E+02  0.93066353225E+02  0.00000000000E+00 0. -1.
         22   -1    0    0    0    0 -0.00000000000E+00 -0.00000000000E+00 -0.62284488523E+03  0.62284488523E+03  0.00000000000E+00 0.  1.
         24    2    1    2    0    0 -0.12944384331E+02 -0.39487141695E+02 -0.40913836587E+03  0.41917451780E+03  0.81155914803E+02 0.  0.
         25    2    1    2    0    0  0.96355614362E+01  0.69509254703E+02 -0.14672670546E+03  0.20518627972E+03  0.12509317630E+03 0.  0.
        -24    2    1    2    0    0  0.33088228948E+01 -0.30022113008E+02  0.26086539327E+02  0.91550440925E+02  0.82393568446E+02 0.  0.
        -11    1    3    3    0    0 -0.14526437764E+02 -0.92452500806E+01 -0.36634718381E+03  0.36675162049E+03  0.00000000000E+00 0.  1.
         12    1    3    3    0    0  0.15820534333E+01 -0.30241891614E+02 -0.42791182055E+02  0.52422897318E+02  0.00000000000E+00 0. -1.
         13    1    5    5    0    0  0.42268330011E+02 -0.14445495533E+02  0.61267174526E+01  0.45086813259E+02  0.00000000000E+00 0. -1.
        -14    1    5    5    0    0 -0.38959507116E+02 -0.15576617475E+02  0.19959821874E+02  0.46463627666E+02  0.00000000000E+00 0.  1.
          5    1    4    4  501    0 -0.21879716651E+02  0.97326680331E+02 -0.11538685151E+03  0.15258703289E+03  0.41800000000E+01 0. -1.
         -5    1    4    4    0  501  0.31515278087E+02 -0.27817425629E+02 -0.31339853955E+02  0.52599246833E+02  0.41800000000E+01 0. -1.
</event>
<event>
11    1  0.7882745E-009  0.2293297E+03  0.7561462E-02  0.1035526E+00
         22   -1    0    0    0    0  0.00000000000E+00  0.00000000000E+00  0.19678662617E+03  0.19678662617E+03  0.00000000000E+00 0.  1.
         22   -1    0    0    0    0 -0.00000000000E+00 -0.00000000000E+00 -0.23901352334E+04  0.23901352334E+04  0.00000000000E+00 0.  1.
         24    2    1    2    0    0 -0.17669013747E+03 -0.96104232066E+02 -0.17032249962E+04  0.17169387040E+04  0.80297555109E+02 0.  0.
         25    2    1    2    0    0  0.13994804736E+03  0.98605132691E+02 -0.65231898820E+03  0.68591234097E+03  0.12508896424E+03 0.  0.
        -24    2    1    2    0    0  0.36742090105E+02 -0.25009006246E+01  0.16219537716E+03  0.18407081467E+03  0.78857395039E+02 0.  0.
        -11    1    3    3    0    0 -0.10767585587E+03 -0.36510848130E+02 -0.12120980279E+04  0.12174188930E+04  0.00000000000E+00 0.  1.
         12    1    3    3    0    0 -0.69014281598E+02 -0.59593383936E+02 -0.49112696836E+03  0.49951981094E+03  0.00000000000E+00 0. -1.
         13    1    5    5    0    0 -0.24776395057E+02  0.17129952167E+01  0.56222377531E+02  0.61463483792E+02  0.00000000000E+00 0. -1.
        -14    1    5    5    0    0  0.61518485162E+02 -0.42138958413E+01  0.10597299962E+03  0.12260733087E+03  0.00000000000E+00 0.  1.
          5    1    4    4  501    0  0.56131711867E+02  0.52892067911E+02 -0.50117325890E+03  0.50709017715E+03  0.41800000000E+01 0. -1.
         -5    1    4    4    0  501  0.83816335496E+02  0.45713064780E+02 -0.15114572930E+03  0.17882216382E+03  0.41800000000E+01 0. -1.
</event>
<event>
11    1  0.7882745E-009  0.1545455E+03  0.7561462E-02  0.1092323E+00
         22   -1    0    0    0    0  0.00000000000E+00  0.00000000000E+00  0.70724340035E+03  0.70724340035E+03  0.00000000000E+00 0.  1.
         22   -1    0    0    0    0 -0.00000000000E+00 -0.00000000000E+00 -0.13047830143E+04  0.13047830143E+04  0.00000000000E+00 0. -1.
        -24    2    1    2    0    0  0.88364365744E+02  0.21966303771E+02 -0.12665104371E+04  0.12723268812E+04  0.80475000317E+02 0.  0.
         25    2    1    2    0    0 -0.71045119726E+02 -0.21251801919E+02  0.13080607971E+03  0.19559363694E+03  0.12509033617E+03 0.  0.
         24    2    1    2    0    0 -0.17319246019E+02 -0.71450185245E+00  0.53816474341E+03  0.54410589656E+03  0.78290924304E+02 0.  0.
        -13    1    5    5    0    0 -0.37693886445E+02 -0.52617914355E+01  0.49165498473E+03  0.49312588609E+03  0.00000000000E+00 0.  1.
         14    1    5    5    0    0  0.20374640426E+02  0.45472895831E+01  0.46509758681E+02  0.50980010471E+02  0.00000000000E+00 0. -1.
         13    1    3    3    0    0  0.54925195544E+02  0.43417116777E+02 -0.10403805691E+04  0.10427336916E+04  0.00000000000E+00 0. -1.
        -14    1    3    3    0    0  0.33439170200E+02 -0.21450813005E+02 -0.22612986804E+03  0.22959318958E+03  0.00000000000E+00 0.  1.
          5    1    4    4  501    0 -0.99674845168E+02 -0.40663479272E+02  0.80884855315E+02  0.13471609230E+03  0.41800000000E+01 0.  1.
         -5    1    4    4    0  501  0.28629725442E+02  0.19411677353E+02  0.49921224393E+02  0.60877544640E+02  0.41800000000E+01 0.  1.
</event>
<event>
11    1  0.7882745E-009  0.2578834E+03  0.7561462E-02  0.1019781E+00
         22   -1    0    0    0    0  0.00000000000E+00  0.00000000000E+00  0.10415707055E+03  0.10415707055E+03  0.00000000000E+00 0.  1.
         22   -1    0    0    0    0 -0.00000000000E+00 -0.00000000000E+00 -0.18797733301E+04  0.18797733301E+04  0.00000000000E+00 0. -1.
        -24    2    1    2    0    0  0.16951632443E+03  0.13625085139E+03 -0.13885376655E+04  0.14077321932E+04  0.79831074752E+02 0.  0.
         25    2    1    2    0    0 -0.18219420431E+03 -0.21074177910E+03 -0.33661385684E+03  0.45449216143E+03  0.12508961043E+03 0.  0.
         24    2    1    2    0    0  0.12677879879E+02  0.74490927709E+02 -0.50464737229E+02  0.12170604604E+03  0.80969407743E+02 0.  0.
        -13    1    5    5    0    0  0.30859479576E+02  0.26862294925E+02  0.10495300353E+02  0.42237917773E+02  0.00000000000E+00 0.  1.
         14    1    5    5    0    0 -0.18181599697E+02  0.47628632784E+02 -0.60960037582E+02  0.79468128268E+02  0.00000000000E+00 0. -1.
         13    1    3    3    0    0  0.55685262038E+02  0.47920740367E+02 -0.72605861687E+03  0.72976596310E+03  0.00000000000E+00 0. -1.
        -14    1    3    3    0    0  0.11383106239E+03  0.88330111028E+02 -0.66247904859E+03  0.67796623006E+03  0.00000000000E+00 0.  1.
          5    1    4    4  501    0 -0.15532444815E+03 -0.14887724319E+03 -0.31875717601E+03  0.38459553740E+03  0.41800000000E+01 0.  1.
         -5    1    4    4    0  501 -0.26869756162E+02 -0.61864535915E+02 -0.17856680835E+02  0.69896624029E+02  0.41800000000E+01 0.  1.
</event>
<event>
11    1  0.7882745E-009  0.1402193E+03  0.7561462E-02  0.1107314E+00
         22   -1    0    0    0    0  0.00000000000E+00  0.00000000000E+00  0.41031697662E+03  0.41031697662E+03  0.00000000000E+00 0.  1.
         22   -1    0    0    0    0 -0.00000000000E+00 -0.00000000000E+00 -0.11645507976E+04  0.11645507976E+04  0.00000000000E+00 0.  1.
         24    2    1    2    0    0  0.31224040461E+02 -0.34533872749E+02 -0.97334902415E+03  0.97770047322E+03  0.79513290957E+02 0.  0.
         25    2    1    2    0    0  0.20577739994E+02 -0.44237888584E+01 -0.16098240147E+03  0.20495449701E+03  0.12509196207E+03 0.  0.
        -24    2    1    2    0    0 -0.51801780455E+02  0.38957661608E+02  0.38009760460E+03  0.39221280402E+03  0.71802303323E+02 0.  0.
        -11    1    3    3    0    0  0.52205024545E+02 -0.28300203193E+02 -0.87177000819E+03  0.87379014257E+03  0.00000000000E+00 0.  1.
         12    1    3    3    0    0 -0.20980984084E+02 -0.62336695563E+01 -0.10157901597E+03  0.10391033064E+03  0.00000000000E+00 0. -1.
         13    1    5    5    0    0 -0.27323291326E+02  0.56802415008E+02  0.20357819140E+03  0.21311301371E+03  0.00000000000E+00 0. -1.
        -14    1    5    5    0    0 -0.24478489130E+02 -0.17844753400E+02  0.17651941320E+03  0.17909979031E+03  0.00000000000E+00 0.  1.
          5    1    4    4  501    0 -0.12349041148E+02  0.35360296191E+02 -0.19973271533E+01  0.37740046102E+02  0.41800000000E+01 0.  1.
         -5    1    4    4    0  501  0.32926781143E+02 -0.39784085050E+02 -0.15898507431E+03  0.16721445091E+03  0.41800000000E+01 0.  1.
</event>
<event>
11    1  0.7882745E-009  0.1995187E+03  0.7561462E-02  0.1054865E+00
         22   -1    0    0    0    0  0.00000000000E+00  0.00000000000E+00  0.74916812670E+03  0.74916812670E+03  0.00000000000E+00 0. -1.
         22   -1    0    0    0    0 -0.00000000000E+00 -0.00000000000E+00 -0.59028614183E+03  0.59028614183E+03  0.00000000000E+00 0. -1.
         24    2    1    2    0    0 -0.13866071730E+02  0.68768418422E+01 -0.29872260680E+03  0.30884173264E+03  0.76866514888E+02 0.  0.
         25    2    1    2    0    0 -0.13790267643E+03 -0.42480065343E+02 -0.24256787862E+03  0.30871974320E+03  0.12508796897E+03 0.  0.
        -24    2    1    2    0    0  0.15176874816E+03  0.35603223501E+02  0.70017247030E+03  0.72189279269E+03  0.81156475600E+02 0.  0.
        -11    1    3    3    0    0 -0.24039129602E+02  0.27303192483E+01 -0.24615576771E+02  0.34514649281E+02  0.00000000000E+00 0.  1.
         12    1    3    3    0    0  0.10173057872E+02  0.41465225939E+01 -0.27410703003E+03  0.27432708336E+03  0.00000000000E+00 0. -1.
         11    1    5    5    0    0  0.15885169941E+03  0.31259299175E+02  0.60267113416E+03  0.62403806145E+03  0.00000000000E+00 0. -1.
        -12    1    5    5    0    0 -0.70829512499E+01  0.43439243260E+01  0.97501336135E+02  0.97854731235E+02  0.00000000000E+00 0.  1.
          5    1    4    4  501    0 -0.11581583108E+03 -0.98125722025E+01 -0.24262955845E+03  0.26906536072E+03  0.41800000000E+01 0. -1.
         -5    1    4    4    0  501 -0.22086845346E+02 -0.32667493141E+02  0.61679827792E-01  0.39654382480E+02  0.41800000000E+01 0. -1.
</event>
<event>
11    1  0.7882745E-009  0.1514407E+03  0.7561462E-02  0.1095416E+00
         22   -1    0    0    0    0  0.00000000000E+00  0.00000000000E+00  0.20518172249E+04  0.20518172249E+04  0.00000000000E+00 0.  1.
         22   -1    0    0    0    0 -0.00000000000E+00 -0.00000000000E+00 -0.21727617318E+03  0.21727617318E+03  0.00000000000E+00 0. -1.
        -24    2    1    2    0    0  0.20295331037E+00 -0.20221386279E+02 -0.11732304807E+03  0.14462197746E+03  0.82108910015E+02 0.  0.
         25    2    1    2    0    0 -0.36764384277E+00  0.10518232805E+03 -0.56277923532E+01  0.16353043302E+03  0.12508826156E+03 0.  0.
         24    2    1    2    0    0  0.16469053240E+00 -0.84960941775E+02  0.19574918922E+04  0.19609409876E+04  0.79351498358E+02 0.  0.
        -11    1    5    5    0    0  0.38631560749E+02 -0.56287763278E+02  0.11603461309E+04  0.11623527232E+04  0.00000000000E+00 0.  1.
         12    1    5    5    0    0 -0.38466870216E+02 -0.28673178497E+02  0.79714576130E+03  0.79858826439E+03  0.00000000000E+00 0. -1.
         11    1    3    3    0    0  0.25635873538E+02 -0.22060983279E+02 -0.11399487450E+03  0.11890633460E+03  0.00000000000E+00 0. -1.
        -12    1    3    3    0    0 -0.25432920228E+02  0.18395969995E+01 -0.33281735646E+01  0.25715642860E+02  0.00000000000E+00 0.  1.
          5    1    4    4  501    0 -0.50790427050E+02  0.75422830423E+02  0.28808372189E+02  0.95475994560E+02  0.41800000000E+01 0.  1.
         -5    1    4    4    0  501  0.50422783207E+02  0.29759497631E+02 -0.34436164542E+02  0.68054438459E+02  0.41800000000E+01 0.  1.
</event>
<event>
11    1  0.7882745E-009  0.1272645E+03  0.7561462E-02  0.1122676E+00
         22   -1    0    0    0    0  0.00000000000E+00  0.00000000000E+00  0.14158029594E+03  0.14158029594E+03  0.00000000000E+00 0. -1.
         22   -1    0    0    0    0 -0.00000000000E+00 -0.00000000000E+00 -0.18734578548E+04  0.18734578548E+04  0.00000000000E+00 0.  1.
         24    2    1    2    0    0  0.13158576105E+02  0.18499329422E+02 -0.17128541541E+04  0.17159494707E+04  0.10048810603E+03 0.  0.
         25    2    1    2    0    0 -0.43125992263E+01 -0.48400112853E+02 -0.11007803847E+03  0.17354103195E+03  0.12505257206E+03 0.  0.
        -24    2    1    2    0    0 -0.88459768783E+01  0.29900783431E+02  0.91054633764E+02  0.12554764804E+03  0.80616111546E+02 0.  0.
        -13    1    3    3    0    0  0.21767108107E+02  0.41825252094E+02 -0.15849428767E+04  0.15856440588E+04  0.00000000000E+00 0.  1.
         14    1    3    3    0    0 -0.86085320025E+01 -0.23325922671E+02 -0.12791127744E+03  0.13030541197E+03  0.00000000000E+00 0. -1.
         13    1    5    5    0    0 -0.25139308643E+02  0.31734230776E+02  0.99270241574E+02  0.10720833505E+03  0.00000000000E+00 0. -1.
        -14    1    5    5    0    0  0.16293331765E+02 -0.18334473447E+01 -0.82156078093E+01  0.18339312987E+02  0.00000000000E+00 0.  1.
          5    1    4    4  501    0  0.32742509861E+02 -0.54359466811E+02 -0.72624258487E+01  0.64009677496E+02  0.41800000000E+01 0.  1.
         -5    1    4    4    0  501 -0.37055109088E+02  0.59593539574E+01 -0.10281561263E+03  0.10953135446E+03  0.41800000000E+01 0.  1.
</event>
<event>
11    1  0.7882745E-009  0.1401773E+03  0.7561462E-02  0.1107361E+00
         22   -1    0    0    0    0  0.00000000000E+00  0.00000000000E+00  0.14593471354E+04  0.14593471354E+04  0.00000000000E+00 0.  1.
         22   -1    0    0    0    0 -0.00000000000E+00 -0.00000000000E+00 -0.24168692869E+03  0.24168692869E+03  0.00000000000E+00 0.  1.
         24    2    1    2    0    0  0.40865000608E+02  0.42471393494E+02 -0.19518006279E+03  0.21866987099E+03  0.79041052782E+02 0.  0.
         25    2    1    2    0    0 -0.58953719303E+02  0.19904967361E+02  0.11658616871E+03  0.18196473223E+03  0.12508829001E+03 0.  0.
        -24    2    1    2    0    0  0.18088718694E+02 -0.62376360855E+02  0.12962541008E+04  0.13003994609E+04  0.80907675055E+02 0.  0.
        -11    1    3    3    0    0  0.52736745140E+02  0.54966803391E+02 -0.18091126507E+03  0.19629416596E+03  0.00000000000E+00 0.  1.
         12    1    3    3    0    0 -0.11871744531E+02 -0.12495409897E+02 -0.14268797727E+02  0.22375705023E+02  0.00000000000E+00 0. -1.
         13    1    5    5    0    0  0.83585103169E+00  0.16773896232E+02  0.99560926816E+02  0.10096752146E+03  0.00000000000E+00 0. -1.
        -14    1    5    5    0    0  0.17252867663E+02 -0.79150257087E+02  0.11966931740E+04  0.11994319394E+04  0.00000000000E+00 0.  1.
          5    1    4    4  501    0 -0.58290620765E+02  0.20543702160E+02  0.14266692586E+03  0.15553509026E+03  0.41800000000E+01 0. -1.
         -5    1    4    4    0  501 -0.66309853750E+00 -0.63873479844E+00 -0.26080757147E+02  0.26429641979E+02  0.41800000000E+01 0. -1.
</event>
<event>
11    1  0.7882745E-009  0.1465994E+03  0.7561462E-02  0.1100405E+00
         22   -1    0    0    0    0  0.00000000000E+00  0.00000000000E+00  0.17086861098E+03  0.17086861098E+03  0.00000000000E+00 0. -1.
         22   -1    0    0    0    0 -0.00000000000E+00 -0.00000000000E+00 -0.89828980917E+03  0.89828980917E+03  0.00000000000E+00 0.  1.
        -24    2    1    2    0    0 -0.80112019675E+02 -0.20050147435E+02 -0.74963796379E+03  0.75844213063E+03  0.80358227072E+02 0.  0.
         25    2    1    2    0    0  0.70027346985E+01  0.54007845952E+02 -0.78936625395E+02  0.15762066973E+03  0.12508956383E+03 0.  0.
         24    2    1    2    0    0  0.73109284976E+02 -0.33957698517E+02  0.10115339099E+03  0.15309561979E+03  0.81903403191E+02 0.  0.
        -11    1    5    5    0    0  0.48133617437E+02  0.21194430968E+02  0.33737600391E+02  0.62484195696E+02  0.00000000000E+00 0.  1.
         12    1    5    5    0    0  0.24975667539E+02 -0.55152129485E+02  0.67415790595E+02  0.90611424099E+02  0.00000000000E+00 0. -1.
         13    1    3    3    0    0 -0.35402189379E+02  0.30597883162E+02 -0.35369503592E+03  0.35677685449E+03  0.00000000000E+00 0. -1.
        -14    1    3    3    0    0 -0.44709830296E+02 -0.50648030598E+02 -0.39594292787E+03  0.40166527614E+03  0.00000000000E+00 0.  1.
          5    1    4    4  501    0  0.41172244937E+02  0.72663317263E+02 -0.18555173000E+02  0.85655579351E+02  0.41800000000E+01 0. -1.
         -5    1    4    4    0  501 -0.34169510238E+02 -0.18655471311E+02 -0.60381452395E+02  0.71965090378E+02  0.41800000000E+01 0. -1.
</event>
<event>
11    1  0.7882745E-009  0.2344450E+03  0.7561462E-02  0.1032528E+00
         22   -1    0    0    0    0  0.00000000000E+00  0.00000000000E+00  0.12727868953E+04  0.12727868953E+04  0.00000000000E+00 0. -1.
         22   -1    0    0    0    0 -0.00000000000E+00 -0.00000000000E+00 -0.10234879552E+04  0.10234879552E+04  0.00000000000E+00 0.  1.
         24    2    1    2    0    0  0.65344916712E+02 -0.36309652664E+02 -0.95570777399E+03  0.96202947333E+03  0.80839404271E+02 0.  0.
         25    2    1    2    0    0 -0.78029190324E+02  0.22664161781E+03  0.29087357029E+03  0.39712709952E+03  0.12509005482E+03 0.  0.
        -24    2    1    2    0    0  0.12684273612E+02 -0.19033196514E+03  0.91413314377E+03  0.93711827771E+03  0.78511872523E+02 0.  0.
        -11    1    3    3    0    0  0.29383663199E+02 -0.55842322749E+02 -0.72320387844E+03  0.72595152350E+03  0.00000000000E+00 0.  1.
         12    1    3    3    0    0  0.35961253513E+02  0.19532670085E+02 -0.23250389554E+03  0.23607794983E+03  0.00000000000E+00 0. -1.
         13    1    5    5    0    0  0.40306022008E+02 -0.16107550159E+03  0.73751794093E+03  0.75597791358E+03  0.00000000000E+00 0. -1.
        -14    1    5    5    0    0 -0.27621748396E+02 -0.29256463554E+02  0.17661520285E+03  0.18114036414E+03  0.00000000000E+00 0.  1.
          5    1    4    4  501    0  0.24085987347E+02  0.67110482425E+02  0.13108784253E+03  0.14928310854E+03  0.41800000000E+01 0.  1.
         -5    1    4    4    0  501 -0.10211517767E+03  0.15953113538E+03  0.15978572777E+03  0.24784399098E+03  0.41800000000E+01 0.  1.
</event>
<event>
11    1  0.7882745E-009  0.2406525E+03  0.7561462E-02  0.1029000E+00
         22   -1    0    0    0    0  0.00000000000E+00  0.00000000000E+00  0.20492151541E+03  0.20492151541E+03  0.00000000000E+00 0.  1.
         22   -1    0    0    0    0 -0.00000000000E+00 -0.00000000000E+00 -0.23780358031E+04  0.23780358031E+04  0.00000000000E+00 0.  1.
        -24    2    1    2    0    0  0.17586046303E+03 -0.85386295161E+02 -0.17525938013E+04  0.17653168850E+04  0.80876141217E+02 0.  0.
         25    2    1    2    0    0 -0.22325720255E+03  0.13782740592E+03 -0.56656240738E+03  0.63677318376E+03  0.12508778431E+03 0.  0.
         24    2    1    2    0    0  0.47396739525E+02 -0.52441110763E+02  0.14604192103E+03  0.18086724972E+03  0.79926205385E+02 0.  0.
        -11    1    5    5    0    0  0.25052364284E+02 -0.60757021656E+02  0.14228783880E+03  0.15673182736E+03  0.00000000000E+00 0.  1.
         12    1    5    5    0    0  0.22344375240E+02  0.83159108931E+01  0.37540822219E+01  0.24135422354E+02  0.00000000000E+00 0. -1.
         11    1    3    3    0    0  0.32697296309E+02  0.15695923003E+02 -0.31381537489E+03  0.31590436006E+03  0.00000000000E+00 0. -1.
        -12    1    3    3    0    0  0.14316316672E+03 -0.10108221816E+03 -0.14387784264E+04  0.14494125249E+04  0.00000000000E+00 0.  1.
          5    1    4    4  501    0 -0.81484148709E+01  0.74983508682E+01  0.45797125660E+01  0.12691260687E+02  0.41800000000E+01 0. -1.
         -5    1    4    4    0  501 -0.21510878768E+03  0.13032905506E+03 -0.57114211994E+03  0.62408192307E+03  0.41800000000E+01 0. -1.
</event>
<event>
11    1  0.7882745E-009  0.1810969E+03  0.7561462E-02  0.1068759E+00
         22   -1    0    0    0    0  0.00000000000E+00  0.00000000000E+00  0.11701394040E+04  0.11701394040E+04  0.00000000000E+00 0.  1.
         22   -1    0    0    0    0 -0.00000000000E+00 -0.00000000000E+00 -0.43286552722E+03  0.43286552722E+03  0.00000000000E+00 0.  1.
        -24    2    1    2    0    0 -0.11431936792E+03 -0.35787569483E+02 -0.24546900514E+03  0.28478554531E+03  0.80610832555E+02 0.  0.
         25    2    1    2    0    0  0.15401231241E+03  0.73219251081E+02 -0.97995346998E+02  0.23308639841E+03  0.12508129352E+03 0.  0.
         24    2    1    2    0    0 -0.39692944492E+02 -0.37431681599E+02  0.10807382289E+04  0.10851329875E+04  0.80881521282E+02 0.  0.
        -11    1    5    5    0    0 -0.13668788479E+02 -0.42812279814E+02  0.97739399186E+03  0.97842666685E+03  0.00000000000E+00 0.  1.
         12    1    5    5    0    0 -0.26024156013E+02  0.53805982152E+01  0.10334423708E+03  0.10670632067E+03  0.00000000000E+00 0. -1.
         11    1    3    3    0    0 -0.62198912828E+02 -0.51178735603E+02 -0.93604361957E+02  0.12348985510E+03  0.00000000000E+00 0. -1.
        -12    1    3    3    0    0 -0.52120455089E+02  0.15391166120E+02 -0.15186464318E+03  0.16129569021E+03  0.00000000000E+00 0.  1.
          5    1    4    4  501    0 -0.20431561455E+02  0.53400773634E+01 -0.22691902160E+02  0.31278746032E+02  0.41800000000E+01 0.  1.
         -5    1    4    4    0  501  0.17444387386E+03  0.67879173718E+02 -0.75303444838E+02  0.20180765238E+03  0.41800000000E+01 0.  1.
</event>
<event>
11    1  0.7882745E-009  0.1461725E+03  0.7561462E-02  0.1100855E+00
         22   -1    0    0    0    0  0.00000000000E+00  0.00000000000E+00  0.23991656333E+04  0.23991656333E+04  0.00000000000E+00 0. -1.
         22   -1    0    0    0    0 -0.00000000000E+00 -0.00000000000E+00 -0.82547689568E+02  0.82547689568E+02  0.00000000000E+00 0. -1.
         24    2    1    2    0    0 -0.18052621742E+02 -0.73965502846E+02 -0.40030890367E+01  0.11696017277E+03  0.88695346712E+02 0.  0.
         25    2    1    2    0    0  0.32929626327E+02  0.67190502089E+02  0.22852630281E+03  0.27105253372E+03  0.12508509543E+03 0.  0.
        -24    2    1    2    0    0 -0.14877004585E+02  0.67750007571E+01  0.20920947299E+04  0.20937006164E+04  0.80341060586E+02 0.  0.
        -13    1    3    3    0    0  0.31378081918E+02 -0.56289020866E+01 -0.67056376706E+01  0.32576588835E+02  0.00000000000E+00 0.  1.
         14    1    3    3    0    0 -0.49430703661E+02 -0.68336600760E+02  0.27025486339E+01  0.84383583930E+02  0.00000000000E+00 0. -1.
         11    1    5    5    0    0 -0.16570591286E+02 -0.15703158930E+02  0.19200144517E+04  0.19201501682E+04  0.00000000000E+00 0. -1.
        -12    1    5    5    0    0  0.16935867014E+01  0.22478159687E+02  0.17208027818E+03  0.17355044811E+03  0.00000000000E+00 0.  1.
          5    1    4    4  501    0  0.63705760346E+02  0.12517928011E+02  0.50834631698E+02  0.82563639714E+02  0.41800000000E+01 0.  1.
         -5    1    4    4    0  501 -0.30776134018E+02  0.54672574078E+02  0.17769167111E+03  0.18848889401E+03  0.41800000000E+01 0.  1.
</event>
<event>
11    1  0.7882745E-009  0.1302683E+03  0.7561462E-02  0.1118940E+00
         22   -1    0    0    0    0  0.00000000000E+00  0.00000000000E+00  0.65172660886E+03  0.65172660886E+03  0.00000000000E+00 0. -1.
         22   -1    0    0    0    0 -0.00000000000E+00 -0.00000000000E+00 -0.11426717954E+03  0.11426717954E+03  0.00000000000E+00 0. -1.
        -24    2    1    2    0    0  0.14137350583E+02  0.17012666327E+02 -0.53863011138E+02  0.98284660525E+02  0.79179258828E+02 0.  0.
         25    2    1    2    0    0  0.21149368276E+02 -0.21611201676E+01  0.82492074671E+02  0.15134243813E+03  0.12509046717E+03 0.  0.
         24    2    1    2    0    0 -0.35286718859E+02 -0.14851546160E+02  0.50883036579E+03  0.51636668975E+03  0.79123297386E+02 0.  0.
        -11    1    5    5    0    0 -0.21383733017E+02  0.18347988062E+02  0.62153305268E+02  0.68241820458E+02  0.00000000000E+00 0.  1.
         12    1    5    5    0    0 -0.13902985842E+02 -0.33199534221E+02  0.44667706052E+03  0.44812486929E+03  0.00000000000E+00 0. -1.
         11    1    3    3    0    0  0.12160589504E+02 -0.29847016107E+02 -0.35417319333E+02  0.47886436663E+02  0.00000000000E+00 0. -1.
        -12    1    3    3    0    0  0.19767610788E+01  0.46859682434E+02 -0.18445691805E+02  0.50398223862E+02  0.00000000000E+00 0.  1.
          5    1    4    4  501    0  0.10837242901E+02 -0.13173083488E+02 -0.31615430400E+02  0.36166058697E+02  0.41800000000E+01 0. -1.
         -5    1    4    4    0  501  0.10312125375E+02  0.11011963321E+02  0.11410750507E+03  0.11517637943E+03  0.41800000000E+01 0. -1.
</event>
<event>
11    1  0.7882745E-009  0.1634472E+03  0.7561462E-02  0.1083879E+00
         22   -1    0    0    0    0  0.00000000000E+00  0.00000000000E+00  0.47856206337E+03  0.47856206337E+03  0.00000000000E+00 0.  1.
         22   -1    0    0    0    0 -0.00000000000E+00 -0.00000000000E+00 -0.45168703240E+03  0.45168703240E+03  0.00000000000E+00 0.  1.
         24    2    1    2    0    0 -0.29480703236E+02 -0.12033113312E+02 -0.34851708428E+03  0.35903004902E+03  0.80153043529E+02 0.  0.
         25    2    1    2    0    0 -0.62284160448E+02  0.67860695480E+02 -0.16302238457E+02  0.15619762029E+03  0.12509013939E+03 0.  0.
        -24    2    1    2    0    0  0.91764863684E+02 -0.55827582168E+02  0.39169435371E+03  0.41502142645E+03  0.85327654052E+02 0.  0.
        -13    1    3    3    0    0  0.13723473376E+00 -0.39248939124E+02 -0.24217647779E+03  0.24533639039E+03  0.00000000000E+00 0.  1.
         14    1    3    3    0    0 -0.29617937970E+02  0.27215825812E+02 -0.10634060649E+03  0.11369365863E+03  0.00000000000E+00 0. -1.
         13    1    5    5    0    0  0.10508232084E+03 -0.40691718056E+02  0.28556689186E+03  0.30699602570E+03  0.00000000000E+00 0. -1.
        -14    1    5    5    0    0 -0.13317457155E+02 -0.15135864112E+02  0.10612746185E+03  0.10802540075E+03  0.00000000000E+00 0.  1.
          5    1    4    4  501    0 -0.19175928145E+02  0.99641025589E+02 -0.84363492450E+01  0.10190532169E+03  0.41800000000E+01 0. -1.
         -5    1    4    4    0  501 -0.43108232303E+02 -0.31780330110E+02 -0.78658892123E+01  0.54292298600E+02  0.41800000000E+01 0. -1.
</event>
<event>
11    1  0.7882745E-009  0.1530206E+03  0.7561462E-02  0.1093832E+00
         22   -1    0    0    0    0  0.00000000000E+00  0.00000000000E+00  0.85495999221E+03  0.85495999221E+03  0.00000000000E+00 0.  1.
         22   -1    0    0    0    0 -0.00000000000E+00 -0.00000000000E+00 -0.14149576518E+03  0.14149576518E+03  0.00000000000E+00 0.  1.
         24    2    1    2    0    0  0.79939070358E+02  0.92893969925E+01 -0.32224083147E+02  0.12055318428E+03  0.83774285065E+02 0.  0.
         25    2    1    2    0    0 -0.10333265432E+03 -0.33290899087E+02  0.47556924062E+02  0.17232061966E+03  0.12508722366E+03 0.  0.
        -24    2    1    2    0    0  0.23393583961E+02  0.24001502095E+02  0.69813138612E+03  0.70358195346E+03  0.80726706139E+02 0.  0.
        -11    1    3    3    0    0  0.14331300136E+02  0.54730647329E+01 -0.50141521394E+02  0.52435796636E+02  0.00000000000E+00 0.  1.
         12    1    3    3    0    0  0.65607770222E+02  0.38163322596E+01  0.17917438247E+02  0.68117387639E+02  0.00000000000E+00 0. -1.
         13    1    5    5    0    0 -0.24114447934E+02 -0.88612188891E+00  0.39546412956E+03  0.39619965873E+03  0.00000000000E+00 0. -1.
        -14    1    5    5    0    0  0.47508031895E+02  0.24887623984E+02  0.30266725656E+03  0.30738229473E+03  0.00000000000E+00 0.  1.
          5    1    4    4  501    0 -0.13123884240E+03 -0.19202484066E+02  0.29369322869E+02  0.13591320272E+03  0.41800000000E+01 0. -1.
         -5    1    4    4    0  501  0.27906188079E+02 -0.14088415022E+02  0.18187601193E+02  0.36407416938E+02  0.41800000000E+01 0. -1.
</event>
<event>
11    1  0.7882745E-009  0.1466550E+03  0.7561462E-02  0.1100347E+00
         22   -1    0    0    0    0  0.00000000000E+00  0.00000000000E+00  0.58706945885E+03  0.58706945885E+03  0.00000000000E+00 0. -1.
         22   -1    0    0    0    0 -0.00000000000E+00 -0.00000000000E+00 -0.18611327622E+04  0.18611327622E+04  0.00000000000E+00 0. -1.
         24    2    1    2    0    0 -0.11474469765E+02  0.75546965947E+02 -0.18028445452E+04  0.18062263537E+04  0.79788340112E+02 0.  0.
         25    2    1    2    0    0  0.36998934629E+02 -0.81018719789E+02  0.58674811945E+02  0.16438707755E+03  0.12508966220E+03 0.  0.
        -24    2    1    2    0    0 -0.25524464864E+02  0.54717538422E+01  0.47010642992E+03  0.47758878975E+03  0.80059716751E+02 0.  0.
        -13    1    3    3    0    0  0.22654656604E+02 -0.22332249895E+01 -0.57310057278E+03  0.57355251484E+03  0.00000000000E+00 0.  1.
         14    1    3    3    0    0 -0.34129126369E+02  0.77780190936E+02 -0.12297439724E+04  0.12326738389E+04  0.00000000000E+00 0. -1.
         11    1    5    5    0    0 -0.34448080595E+02 -0.25057156238E+02  0.37257272671E+03  0.37499995736E+03  0.00000000000E+00 0. -1.
        -12    1    5    5    0    0  0.89236157304E+01  0.30528910080E+02  0.97533703212E+02  0.10258883239E+03  0.00000000000E+00 0.  1.
          5    1    4    4  501    0 -0.17962542210E+02  0.42592195199E+01  0.59920035508E+02  0.62838498779E+02  0.41800000000E+01 0. -1.
         -5    1    4    4    0  501  0.54961476839E+02 -0.85277939309E+02 -0.12452235625E+01  0.10154857877E+03  0.41800000000E+01 0. -1.
</event>
<event>
11    1  0.7882745E-009  0.1906935E+03  0.7561462E-02  0.1061307E+00
         22   -1    0    0    0    0  0.00000000000E+00  0.00000000000E+00  0.74891431873E+02  0.74891431873E+02  0.00000000000E+00 0.  1.
         22   -1    0    0    0    0 -0.00000000000E+00 -0.00000000000E+00 -0.84393839591E+03  0.84393839591E+03  0.00000000000E+00 0. -1.
         24    2    1    2    0    0  0.14079115992E+03  0.23476562231E+02 -0.44183588690E+03  0.47125502556E+03  0.80554630367E+02 0.  0.
         25    2    1    2    0    0 -0.14700547231E+03 -0.46943332968E+01 -0.30674365851E+03  0.36244764409E+03  0.12507588503E+03 0.  0.
        -24    2    1    2    0    0  0.62143123892E+01 -0.18782228934E+02 -0.20467418627E+02  0.85127158137E+02  0.80226728869E+02 0.  0.
        -13    1    3    3    0    0  0.22992497239E+02 -0.14343040283E+02 -0.17557146193E+03  0.17765054455E+03  0.00000000000E+00 0.  1.
         14    1    3    3    0    0  0.11779866268E+03  0.37819602514E+02 -0.26626442497E+03  0.29360448101E+03  0.00000000000E+00 0. -1.
         11    1    5    5    0    0 -0.20210507160E+02  0.21821276802E+02 -0.21452620871E+02  0.36672164692E+02  0.00000000000E+00 0. -1.
        -12    1    5    5    0    0  0.26424819549E+02 -0.40603505736E+02  0.98520224445E+00  0.48454993445E+02  0.00000000000E+00 0.  1.
          5    1    4    4  501    0 -0.13713003719E+03 -0.36136923542E+02 -0.29476941455E+03  0.32713453578E+03  0.41800000000E+01 0. -1.
         -5    1    4    4    0  501 -0.98754351207E+01  0.31442590245E+02 -0.11974243955E+02  0.35313108309E+02  0.41800000000E+01 0. -1.
</event>
<event>
11    1  0.7882745E-009  0.2259570E+03  0.7561462E-02  0.1037549E+00
         22   -1    0    0    0    0  0.00000000000E+00  0.00000000000E+00  0.78732758963E+03  0.78732758963E+03  0.00000000000E+00 0. -1.
         22   -1    0    0    0    0 -0.00000000000E+00 -0.00000000000E+00 -0.66684190650E+03  0.66684190650E+03  0.00000000000E+00 0. -1.
         24    2    1    2    0    0 -0.87008928517E+01  0.20246204234E+02 -0.46781622059E+03  0.47517044208E+03  0.80307648791E+02 0.  0.
         25    2    1    2    0    0  0.67651468112E+02  0.15976384570E+03 -0.11726926281E+03  0.24392866583E+03  0.12509159237E+03 0.  0.
        -24    2    1    2    0    0 -0.58950575260E+02 -0.18001004993E+03  0.70557116654E+03  0.73507038823E+03  0.81357336498E+02 0.  0.
        -13    1    3    3    0    0 -0.86797640060E+01  0.44457951872E+02 -0.15676009998E+03  0.16317345597E+03  0.00000000000E+00 0.  1.
         14    1    3    3    0    0 -0.21128845698E-01 -0.24211747639E+02 -0.31105612061E+03  0.31199698611E+03  0.00000000000E+00 0. -1.
         13    1    5    5    0    0  0.10490273762E+02 -0.95592082115E+02  0.30070709275E+03  0.31570975220E+03  0.00000000000E+00 0. -1.
        -14    1    5    5    0    0 -0.69440849022E+02 -0.84417967815E+02  0.40486407379E+03  0.41936063602E+03  0.00000000000E+00 0.  1.
          5    1    4    4  501    0  0.57832553789E+01  0.11764447419E+03 -0.17525054319E+02  0.11915648651E+03  0.41800000000E+01 0.  1.
         -5    1    4    4    0  501  0.61868212733E+02  0.42119371511E+02 -0.99744208490E+02  0.12477217931E+03  0.41800000000E+01 0.  1.
</event>
<event>
11    1  0.7882745E-009  0.1776078E+03  0.7561462E-02  0.1071594E+00
         22   -1    0    0    0    0  0.00000000000E+00  0.00000000000E+00  0.67295644585E+03  0.67295644585E+03  0.00000000000E+00 0. -1.
         22   -1    0    0    0    0 -0.00000000000E+00 -0.00000000000E+00 -0.79468782305E+03  0.79468782305E+03  0.00000000000E+00 0. -1.
         24    2    1    2    0    0  0.54560346725E+02  0.61680930844E+01 -0.60701839743E+03  0.61464615209E+03  0.79395721901E+02 0.  0.
         25    2    1    2    0    0 -0.93626424474E+02 -0.12484288060E+03 -0.11766966490E+03  0.23204515898E+03  0.12508858291E+03 0.  0.
        -24    2    1    2    0    0  0.39066077750E+02  0.11867478751E+03  0.60295668514E+03  0.62095295783E+03  0.80099613371E+02 0.  0.
        -11    1    3    3    0    0  0.15674707420E+02 -0.32753952611E+02 -0.15021700780E+03  0.15454341557E+03  0.00000000000E+00 0.  1.
         12    1    3    3    0    0  0.38885639304E+02  0.38922045695E+02 -0.45680138963E+03  0.46010273652E+03  0.00000000000E+00 0. -1.
         11    1    5    5    0    0  0.11931985514E+02  0.88767430231E+02  0.24746000624E+03  0.26317006600E+03  0.00000000000E+00 0. -1.
        -12    1    5    5    0    0  0.27134092236E+02  0.29907357283E+02  0.35549667889E+03  0.35778289183E+03  0.00000000000E+00 0.  1.
          5    1    4    4  501    0 -0.37759025427E+02 -0.26406101808E+02  0.22818296991E+02  0.51586561151E+02  0.41800000000E+01 0.  1.
         -5    1    4    4    0  501 -0.55867399047E+02 -0.98436778791E+02 -0.14048796189E+03  0.18045859783E+03  0.41800000000E+01 0.  1.
</event>
<event>
11    1  0.7882745E-009  0.1938416E+03  0.7561462E-02  0.1058966E+00
         22   -1    0    0    0    0  0.00000000000E+00  0.00000000000E+00  0.16314564094E+04  0.16314564094E+04  0.00000000000E+00 0.  1.
         22   -1    0    0    0    0 -0.00000000000E+00 -0.00000000000E+00 -0.18650650580E+04  0.18650650580E+04  0.00000000000E+00 0.  1.
        -24    2    1    2    0    0 -0.95763978819E+02 -0.81406313528E+02 -0.17946599023E+04  0.18008110643E+04  0.79489601653E+02 0.  0.
         25    2    1    2    0    0  0.22525799641E+03  0.18138085922E+02  0.20508706630E+03  0.32981600842E+03  0.12509092508E+03 0.  0.
         24    2    1    2    0    0 -0.12949401759E+03  0.63268227606E+02  0.13559641874E+04  0.13658943948E+04  0.79101522759E+02 0.  0.
        -13    1    5    5    0    0 -0.13119826546E+03  0.56435780668E+02  0.13467281027E+04  0.13542800909E+04  0.00000000000E+00 0.  1.
         14    1    5    5    0    0  0.17042478661E+01  0.68324469385E+01  0.92360847202E+01  0.11614303807E+02  0.00000000000E+00 0. -1.
         13    1    3    3    0    0 -0.31840885655E+02 -0.64069912994E+02 -0.58832761760E+03  0.59266194528E+03  0.00000000000E+00 0. -1.
        -14    1    3    3    0    0 -0.63923093165E+02 -0.17336400534E+02 -0.12063322847E+04  0.12081491190E+04  0.00000000000E+00 0.  1.
          5    1    4    4  501    0  0.43731474192E+01  0.10338407876E+02  0.69415452410E+02  0.70441355247E+02  0.41800000000E+01 0.  1.
         -5    1    4    4    0  501  0.22088484899E+03  0.77996780461E+01  0.13567161389E+03  0.25937465317E+03  0.41800000000E+01 0.  1.
</event>
<event>
11    1  0.7882745E-009  0.1395206E+03  0.7561462E-02  0.1108095E+00
         22   -1    0    0    0    0  0.00000000000E+00  0.00000000000E+00  0.22102715647E+03  0.22102715647E+03  0.00000000000E+00 0. -1.
         22   -1    0    0    0    0 -0.00000000000E+00 -0.00000000000E+00 -0.20648822348E+04  0.20648822348E+04  0.00000000000E+00 0.  1.
         24    2    1    2    0    0  0.50081985335E+02 -0.41875578386E+02 -0.18135687762E+04  0.18163216390E+04  0.75702186837E+02 0.  0.
         25    2    1    2    0    0  0.46105932898E+01  0.31510924699E+02 -0.22053157669E+03  0.25553637190E+03  0.12510181892E+03 0.  0.
        -24    2    1    2    0    0 -0.54692578625E+02  0.10364653687E+02  0.19024527456E+03  0.21405138034E+03  0.80783814780E+02 0.  0.
        -13    1    3    3    0    0  0.31671490736E+02 -0.20221616674E+02 -0.16408251235E+04  0.16412553375E+04  0.00000000000E+00 0.  1.
         14    1    3    3    0    0  0.18410494599E+02 -0.21653961712E+02 -0.17274365272E+03  0.17506630151E+03  0.00000000000E+00 0. -1.
         11    1    5    5    0    0 -0.74169654519E+02  0.18919048619E+02  0.14178227013E+03  0.16112504515E+03  0.00000000000E+00 0. -1.
        -12    1    5    5    0    0  0.19477075894E+02 -0.85543949325E+01  0.48463004430E+02  0.52926335188E+02  0.00000000000E+00 0.  1.
          5    1    4    4  501    0 -0.24027388087E+02  0.71503459877E+02 -0.16347622310E+03  0.18008888936E+03  0.41800000000E+01 0. -1.
         -5    1    4    4    0  501  0.28637981377E+02 -0.39992535178E+02 -0.57055353593E+02  0.75447482535E+02  0.41800000000E+01 0. -1.
</event>
<event>
11    1  0.7882745E-009  0.1699686E+03  0.7561462E-02  0.1078059E+00
         22   -1    0    0    0    0  0.00000000000E+00  0.00000000000E+00  0.93026378038E+02  0.93026378038E+02  0.00000000000E+00 0.  1.
         22   -1    0    0    0    0 -0.00000000000E+00 -0.00000000000E+00 -0.21351901390E+04  0.21351901390E+04  0.00000000000E+00 0.  1.
        -24    2    1    2    0    0 -0.10278032374E+03  0.52261624218E+02 -0.16265795392E+04  0.16323637591E+04  0.74534370440E+02 0.  0.
         25    2    1    2    0    0  0.13488734100E+03  0.23353808122E+02 -0.44267099035E+03  0.47994288923E+03  0.12509027184E+03 0.  0.
         24    2    1    2    0    0 -0.32107017262E+02 -0.75615432340E+02  0.27086768598E+02  0.11590986869E+03  0.77154717691E+02 0.  0.
        -11    1    5    5    0    0 -0.78912991493E+01 -0.26578759192E+02  0.49555493390E+02  0.56784240486E+02  0.00000000000E+00 0.  1.
         12    1    5    5    0    0 -0.24215718113E+02 -0.49036673148E+02 -0.22468724792E+02  0.59125628208E+02  0.00000000000E+00 0. -1.
         11    1    3    3    0    0 -0.17930883364E+02  0.36649892015E+02 -0.27239303053E+03  0.27543183230E+03  0.00000000000E+00 0. -1.
        -12    1    3    3    0    0 -0.84849440378E+02  0.15611732203E+02 -0.13541865087E+04  0.13569319268E+04  0.00000000000E+00 0.  1.
          5    1    4    4  501    0  0.49798758673E+01  0.34400646681E+02 -0.26787664088E+02  0.44082366123E+02  0.41800000000E+01 0.  1.
         -5    1    4    4    0  501  0.12990746514E+03 -0.11046838559E+02 -0.41588332626E+03  0.43586052310E+03  0.41800000000E+01 0.  1.
</event>
<event>
11    1  0.7882745E-009  0.1755103E+03  0.7561462E-02  0.1073333E+00
         22   -1    0    0    0    0  0.00000000000E+00  0.00000000000E+00  0.11873460045E+03  0.11873460045E+03  0.00000000000E+00 0. -1.
         22   -1    0    0    0    0 -0.00000000000E+00 -0.00000000000E+00 -0.14193084998E+04  0.14193084998E+04  0.00000000000E+00 0. -1.
        -24    2    1    2    0    0 -0.76145623942E+02 -0.95478010843E+01 -0.97417910222E+03  0.98048497790E+03  0.80228125629E+02 0.  0.
         25    2    1    2    0    0  0.18919694428E+03  0.97939366281E+01 -0.35002419790E+03  0.41719862691E+03  0.12508537187E+03 0.  0.
         24    2    1    2    0    0 -0.11305132034E+03 -0.24613554384E+00  0.23629400809E+02  0.14035949540E+03  0.79760753207E+02 0.  0.
        -13    1    5    5    0    0 -0.84635775623E+02 -0.31633264045E+02  0.34384794567E+02  0.96675705360E+02  0.00000000000E+00 0.  1.
         14    1    5    5    0    0 -0.28415544720E+02  0.31387128501E+02 -0.10755393758E+02  0.43683790039E+02  0.00000000000E+00 0. -1.
         11    1    3    3    0    0 -0.90031729519E+02 -0.37854412682E+01 -0.91498296531E+03  0.91940952175E+03  0.00000000000E+00 0. -1.
        -12    1    3    3    0    0  0.13886105577E+02 -0.57623598161E+01 -0.59196136910E+02  0.61075456149E+02  0.00000000000E+00 0.  1.
          5    1    4    4  501    0 -0.15606588396E+02 -0.10402532403E+02 -0.16796398645E+02  0.25521945247E+02  0.41800000000E+01 0. -1.
         -5    1    4    4    0  501  0.20480353268E+03  0.20196469031E+02 -0.33322779926E+03  0.39167668166E+03  0.41800000000E+01 0. -1.
</event>
<event>
11    1  0.7882745E-009  0.1302490E+03  0.7561462E-02  0.1118963E+00
         22   -1    0    0    0    0  0.00000000000E+00  0.00000000000E+00  0.15808066088E+04  0.15808066088E+04  0.00000000000E+00 0.  1.
         22   -1    0    0    0    0 -0.00000000000E+00 -0.00000000000E+00 -0.57510551263E+03  0.57510551263E+03  0.00000000000E+00 0. -1.
        -24    2    1    2    0    0 -0.44169312042E+02 -0.16574437268E+02 -0.55587487323E+03  0.56338395361E+03  0.78606389019E+02 0.  0.
         25    2    1    2    0    0  0.65293424515E+01  0.30873220701E+02  0.29095050869E+03  0.31826961278E+03  0.12509020682E+03 0.  0.
         24    2    1    2    0    0  0.37639969590E+02 -0.14298783433E+02  0.12706254607E+04  0.12742585550E+04  0.87318847657E+02 0.  0.
        -13    1    5    5    0    0  0.57598896033E+02 -0.13308352491E+02  0.11789107694E+04  0.11803920312E+04  0.00000000000E+00 0.  1.
         14    1    5    5    0    0 -0.19958926443E+02 -0.99043094247E+00  0.91714691331E+02  0.93866523874E+02  0.00000000000E+00 0. -1.
         13    1    3    3    0    0 -0.29465550172E+02  0.87218816423E+01 -0.49383959609E+03  0.49479474182E+03  0.00000000000E+00 0. -1.
        -14    1    3    3    0    0 -0.14703761870E+02 -0.25296318910E+02 -0.62035277141E+02  0.68589211786E+02  0.00000000000E+00 0.  1.
          5    1    4    4  501    0 -0.58576979233E+02  0.67171266301E+01  0.14507249505E+03  0.15665210981E+03  0.41800000000E+01 0. -1.
         -5    1    4    4    0  501  0.65106321684E+02  0.24156094071E+02  0.14587801364E+03  0.16161750297E+03  0.41800000000E+01 0. -1.
</event>
<event>
11    1  0.7882745E-009  0.1480498E+03  0.7561462E-02  0.1098888E+00
         22   -1    0    0    0    0  0.00000000000E+00  0.00000000000E+00  0.17693166025E+04  0.17693166025E+04  0.00000000000E+00 0. -1.
         22   -1    0    0    0    0 -0.00000000000E+00 -0.00000000000E+00 -0.23796349861E+03  0.23796349861E+03  0.00000000000E+00 0.  1.
        -24    2    1    2    0    0 -0.85617701264E+02  0.18406109801E+02 -0.17928976027E+03  0.21638312458E+03  0.83711784219E+02 0.  0.
         25    2    1    2    0    0  0.33220505807E+02  0.26093766153E+02  0.75019128205E+02  0.15185392245E+03  0.12508899843E+03 0.  0.
         24    2    1    2    0    0  0.52397195457E+02 -0.44499875953E+02  0.16356237359E+04  0.16390430540E+04  0.80445151738E+02 0.  0.
        -11    1    5    5    0    0 -0.14392260959E+02 -0.16349713417E+02  0.14191315373E+03  0.14357504486E+03  0.00000000000E+00 0.  1.
         12    1    5    5    0    0  0.66789456416E+02 -0.28150162536E+02  0.14937105822E+04  0.14954680092E+04  0.00000000000E+00 0. -1.
         13    1    3    3    0    0 -0.75336103020E+02  0.35880082902E+02 -0.81955987833E+02  0.11696021849E+03  0.00000000000E+00 0. -1.
        -14    1    3    3    0    0 -0.10281598244E+02 -0.17473973101E+02 -0.97333772442E+02  0.99422906094E+02  0.00000000000E+00 0.  1.
          5    1    4    4  501    0  0.47574655887E+02  0.68648364176E+02  0.32049072658E+02  0.89557586195E+02  0.41800000000E+01 0. -1.
         -5    1    4    4    0  501 -0.14354150080E+02 -0.42554598023E+02  0.42970055547E+02  0.62296336258E+02  0.41800000000E+01 0. -1.
</event>
<event>
11    1  0.7882745E-009  0.1407272E+03  0.7561462E-02  0.1106749E+00
         22   -1    0    0    0    0  0.00000000000E+00  0.00000000000E+00  0.61911986935E+02  0.61911986935E+02  0.00000000000E+00 0.  1.
         22   -1    0    0    0    0 -0.00000000000E+00 -0.00000000000E+00 -0.88552338842E+03  0.88552338842E+03  0.00000000000E+00 0.  1.
        -24    2    1    2    0    0  0.21328515413E+02  0.12478654744E+02 -0.36733154355E+03  0.37635597862E+03  0.78107217081E+02 0.  0.
         25    2    1    2    0    0 -0.56337620765E+02 -0.63581623007E+02 -0.44350131864E+03  0.46857077339E+03  0.12509436332E+03 0.  0.
         24    2    1    2    0    0  0.35009105353E+02  0.51102968263E+02 -0.12778539289E+02  0.10250862335E+03  0.80669547983E+02 0.  0.
        -13    1    5    5    0    0  0.25236384684E+02 -0.17935379245E+02  0.27218073027E+01  0.31079915952E+02  0.00000000000E+00 0.  1.
         14    1    5    5    0    0  0.97727206685E+01  0.69038347508E+02 -0.15500346592E+02  0.71428707397E+02  0.00000000000E+00 0. -1.
         11    1    3    3    0    0 -0.15517675568E+02 -0.71655623164E+01 -0.19104650759E+02  0.25634570778E+02  0.00000000000E+00 0. -1.
        -12    1    3    3    0    0  0.36846190981E+02  0.19644217061E+02 -0.34822689279E+03  0.35072140784E+03  0.00000000000E+00 0.  1.
          5    1    4    4  501    0  0.59552156860E+01 -0.87351832212E+01 -0.31706823397E+03  0.31727197389E+03  0.41800000000E+01 0. -1.
         -5    1    4    4    0  501 -0.62292836451E+02 -0.54846439786E+02 -0.12643308467E+03  0.15129879950E+03  0.41800000000E+01 0. -1.
</event>
<event>
11    1  0.7882745E-009  0.1456855E+03  0.7561462E-02  0.1101371E+00
         22   -1    0    0    0    0  0.00000000000E+00  0.00000000000E+00  0.17837952118E+04  0.17837952118E+04  0.00000000000E+00 0. -1.
         22   -1    0    0    0    0 -0.00000000000E+00 -0.00000000000E+00 -0.13112093963E+03  0.13112093963E+03  0.00000000000E+00 0.  1.
        -24    2    1    2    0    0  0.42392528593E+01 -0.69838910326E+02 -0.20827629213E+02  0.10755612014E+03  0.78987873632E+02 0.  0.
         25    2    1    2    0    0  0.60147365958E+02  0.80388441868E+02  0.33224766609E+02  0.16380325491E+03  0.12509042323E+03 0.  0.
         24    2    1    2    0    0 -0.64386618817E+02 -0.10549531541E+02  0.16402771347E+04  0.16435567763E+04  0.80702348109E+02 0.  0.
        -11    1    5    5    0    0  0.50187792965E+01  0.63231266047E+01  0.18226628827E+02  0.19934394250E+02  0.00000000000E+00 0.  1.
         12    1    5    5    0    0 -0.69405398114E+02 -0.16872658146E+02  0.16220505059E+04  0.16236223821E+04  0.00000000000E+00 0. -1.
         13    1    3    3    0    0  0.32701830119E+02 -0.38202676624E+01 -0.12353797027E+02  0.35165614443E+02  0.00000000000E+00 0. -1.
        -14    1    3    3    0    0 -0.28462577260E+02 -0.66018642664E+02 -0.84738321859E+01  0.72390505699E+02  0.00000000000E+00 0.  1.
          5    1    4    4  501    0  0.20284581055E+02  0.71853341610E+02 -0.36281645679E+02  0.83115564982E+02  0.41800000000E+01 0. -1.
         -5    1    4    4    0  501  0.39862784903E+02  0.85351002571E+01  0.69506412288E+02  0.80687689927E+02  0.41800000000E+01 0. -1.
</event>
<event>
11    1  0.7882745E-009  0.1283349E+03  0.7561462E-02  0.1121332E+00
         22   -1    0    0    0    0  0.00000000000E+00  0.00000000000E+00  0.28887553158E+03  0.28887553158E+03  0.00000000000E+00 0. -1.
         22   -1    0    0    0    0 -0.00000000000E+00 -0.00000000000E+00 -0.44904014341E+03  0.44904014341E+03  0.00000000000E+00 0. -1.
         24    2    1    2    0    0 -0.27512034738E+02  0.97916996826E+01 -0.40082060450E+03  0.40976967204E+03  0.80007735250E+02 0.  0.
         25    2    1    2    0    0  0.83640848091E+01 -0.18706862941E+02  0.89269961684E+02  0.15503734899E+03  0.12509016303E+03 0.  0.
        -24    2    1    2    0    0  0.19147949929E+02  0.89151632588E+01  0.15138603099E+03  0.17310865396E+03  0.81257317052E+02 0.  0.
        -11    1    3    3    0    0 -0.35963507134E+02  0.13728870674E+01 -0.69781552119E+02  0.78515754345E+02  0.00000000000E+00 0.  1.
         12    1    3    3    0    0  0.84514723961E+01  0.84188126151E+01 -0.33103905238E+03  0.33125391770E+03  0.00000000000E+00 0. -1.
         11    1    5    5    0    0  0.41627774607E+02  0.12368961628E+02  0.14202164160E+03  0.14851265775E+03  0.00000000000E+00 0. -1.
        -12    1    5    5    0    0 -0.22479824678E+02 -0.34537983688E+01  0.93643893910E+01  0.24595996207E+02  0.00000000000E+00 0.  1.
          5    1    4    4  501    0 -0.39180018917E+02  0.27599790840E+02  0.71546987465E+02  0.86216391435E+02  0.41800000000E+01 0.  1.
         -5    1    4    4    0  501  0.47544103727E+02 -0.46306653781E+02  0.17722974219E+02  0.68820957555E+02  0.41800000000E+01 0.  1.
</event>
<event>
11    1  0.7882745E-009  0.1550812E+03  0.7561462E-02  0.1091797E+00
         22   -1    0    0    0    0  0.00000000000E+00  0.00000000000E+00  0.84533023168E+03  0.84533023168E+03  0.00000000000E+00 0.  1.
         22   -1    0    0    0    0 -0.00000000000E+00 -0.00000000000E+00 -0.57043763166E+03  0.57043763166E+03  0.00000000000E+00 0.  1.
        -24    2    1    2    0    0 -0.24317788029E+02 -0.17400127919E+02 -0.49446675231E+03  0.50201592142E+03  0.81415581744E+02 0.  0.
         25    2    1    2    0    0 -0.50775522117E+01 -0.71036169816E+02  0.89748034523E+01  0.14422041383E+03  0.12508821572E+03 0.  0.
         24    2    1    2    0    0  0.29395340240E+02  0.88436297734E+02  0.76038454888E+03  0.76953152809E+03  0.72863198974E+02 0.  0.
        -13    1    5    5    0    0  0.84109549702E+01  0.95064153712E+02  0.57827649493E+03  0.58609866241E+03  0.00000000000E+00 0.  1.
         14    1    5    5    0    0  0.20984385270E+02 -0.66278559778E+01  0.18210805395E+03  0.18343286568E+03  0.00000000000E+00 0. -1.
         11    1    3    3    0    0  0.93933944428E+01 -0.15738143437E+02 -0.23314279965E+02  0.29656039323E+02  0.00000000000E+00 0. -1.
        -12    1    3    3    0    0 -0.33711182471E+02 -0.16619844812E+01 -0.47115247235E+03  0.47235988210E+03  0.00000000000E+00 0.  1.
          5    1    4    4  501    0  0.17418152934E+02 -0.10233191836E+03  0.15073538098E+02  0.10497569965E+03  0.41800000000E+01 0. -1.
         -5    1    4    4    0  501 -0.22495705146E+02  0.31295748543E+02 -0.60987346460E+01  0.39244714181E+02  0.41800000000E+01 0. -1.
</event>
<event>
11    1  0.7882745E-009  0.1766338E+03  0.7561462E-02  0.1072399E+00
         22   -1    0    0    0    0  0.00000000000E+00  0.00000000000E+00  0.13533632346E+04  0.13533632346E+04  0.00000000000E+00 0.  1.
         22   -1    0    0    0    0 -0.00000000000E+00 -0.00000000000E+00 -0.26117993351E+03  0.26117993351E+03  0.00000000000E+00 0. -1.
         24    2    1    2    0    0 -0.60385337687E+02  0.10711509477E+03 -0.19806394554E+03  0.25460268099E+03  0.10233848791E+03 0.  0.
         25    2    1    2    0    0  0.72941586241E+02  0.33463391923E+02  0.16136340288E+03  0.21937695751E+03  0.12509127905E+03 0.  0.
        -24    2    1    2    0    0 -0.12556248554E+02 -0.14057848669E+03  0.11288838438E+04  0.11405635297E+04  0.81157021378E+02 0.  0.
        -13    1    3    3    0    0  0.69440237255E+01  0.21654238997E+01  0.98022454706E+01  0.12206250138E+02  0.00000000000E+00 0.  1.
         14    1    3    3    0    0 -0.67329361412E+02  0.10494967087E+03 -0.20786619101E+03  0.24239643085E+03  0.00000000000E+00 0. -1.
         11    1    5    5    0    0 -0.54883570308E+00 -0.56072197207E+01  0.26833453070E+01  0.62403906658E+01  0.00000000000E+00 0. -1.
        -12    1    5    5    0    0 -0.12007412851E+02 -0.13497126697E+03  0.11262004985E+04  0.11343231390E+04  0.00000000000E+00 0.  1.
          5    1    4    4  501    0  0.43652131567E+02 -0.21506566105E+02  0.14757316108E+03  0.15544565368E+03  0.41800000000E+01 0. -1.
         -5    1    4    4    0  501  0.29289454673E+02  0.54969958028E+02  0.13790241802E+02  0.63931303832E+02  0.41800000000E+01 0. -1.
</event>
<event>
11    1  0.7882745E-009  0.1437051E+03  0.7561462E-02  0.1103490E+00
         22   -1    0    0    0    0  0.00000000000E+00  0.00000000000E+00  0.66024644675E+03  0.66024644675E+03  0.00000000000E+00 0.  1.
         22   -1    0    0    0    0 -0.00000000000E+00 -0.00000000000E+00 -0.20167271339E+04  0.20167271339E+04  0.00000000000E+00 0.  1.
         24    2    1    2    0    0  0.40655716076E+02  0.57284088462E+02 -0.19285809843E+04  0.19315303555E+04  0.80315298706E+02 0.  0.
         25    2    1    2    0    0 -0.23030634317E+02 -0.10300593416E+03 -0.19551241288E+01  0.16368367396E+03  0.12509152658E+03 0.  0.
        -24    2    1    2    0    0 -0.17625081758E+02  0.45721845696E+02  0.57405542131E+03  0.58175955116E+03  0.80643771889E+02 0.  0.
        -11    1    3    3    0    0  0.30099863490E+02  0.58677819933E+02 -0.18980624801E+04  0.18992077997E+04  0.00000000000E+00 0.  1.
         12    1    3    3    0    0  0.10555852585E+02 -0.13937314715E+01 -0.30518504257E+02  0.32322555798E+02  0.00000000000E+00 0. -1.
         11    1    5    5    0    0 -0.11476414857E+02 -0.12832521321E+02  0.30488067443E+02  0.35012911302E+02  0.00000000000E+00 0. -1.
        -12    1    5    5    0    0 -0.61486669015E+01  0.58554367017E+02  0.54356735387E+03  0.54674663985E+03  0.00000000000E+00 0.  1.
          5    1    4    4  501    0 -0.62817325783E+02 -0.10608817093E+03 -0.48304320358E+01  0.12345655877E+03  0.41800000000E+01 0.  1.
         -5    1    4    4    0  501  0.39786691466E+02  0.30822367707E+01  0.28753079070E+01  0.40227115194E+02  0.41800000000E+01 0.  1.
</event>
<event>
11    1  0.7882745E-009  0.2169140E+03  0.7561462E-02  0.1043168E+00
         22   -1    0    0    0    0  0.00000000000E+00  0.00000000000E+00  0.89750921156E+03  0.89750921156E+03  0.00000000000E+00 0. -1.
         22   -1    0    0    0    0 -0.00000000000E+00 -0.00000000000E+00 -0.80473044334E+03  0.80473044334E+03  0.00000000000E+00 0.  1.
         24    2    1    2    0    0 -0.12532701420E+02  0.23322128471E+01 -0.36462378931E+03  0.37381730929E+03  0.81402488714E+02 0.  0.
         25    2    1    2    0    0  0.11258947987E+03 -0.14832535752E+03 -0.39490360830E+03  0.45417129295E+03  0.12508357538E+03 0.  0.
        -24    2    1    2    0    0 -0.10005677845E+03  0.14599314467E+03  0.85230616584E+03  0.87425105267E+03  0.81016946089E+02 0.  0.
        -11    1    3    3    0    0  0.39800100409E+01 -0.19315892366E+02 -0.32580879286E+03  0.32640513734E+03  0.00000000000E+00 0.  1.
         12    1    3    3    0    0 -0.16512711461E+02  0.21648105213E+02 -0.38814996455E+02  0.47412171949E+02  0.00000000000E+00 0. -1.
         11    1    5    5    0    0 -0.84589771662E+02  0.52491728336E+02  0.41131741190E+03  0.42319360150E+03  0.00000000000E+00 0. -1.
        -12    1    5    5    0    0 -0.15467006785E+02  0.93501416334E+02  0.44098875394E+03  0.45105745117E+03  0.00000000000E+00 0.  1.
          5    1    4    4  501    0  0.10549117469E+03 -0.84598991005E+02 -0.35148019698E+03  0.37661808040E+03  0.41800000000E+01 0. -1.
         -5    1    4    4    0  501  0.70983051778E+01 -0.63726366513E+02 -0.43423411319E+02  0.77553212544E+02  0.41800000000E+01 0. -1.
</event>
<event>
11    1  0.7882745E-009  0.1913095E+03  0.7561462E-02  0.1060845E+00
         22   -1    0    0    0    0  0.00000000000E+00  0.00000000000E+00  0.77905873239E+03  0.77905873239E+03  0.00000000000E+00 0. -1.
         22   -1    0    0    0    0 -0.00000000000E+00 -0.00000000000E+00 -0.15596060546E+04  0.15596060546E+04  0.00000000000E+00 0. -1.
        -24    2    1    2    0    0 -0.54341928723E+02  0.13355139819E+03 -0.14276313765E+04  0.14371632292E+04  0.80732762969E+02 0.  0.
         25    2    1    2    0    0  0.11974511962E+03 -0.11808724250E+03 -0.34168710475E+02  0.21236397958E+03  0.12508984184E+03 0.  0.
         24    2    1    2    0    0 -0.65403190902E+02 -0.15464155691E+02  0.68125276477E+03  0.68913757822E+03  0.79300408036E+02 0.  0.
        -13    1    5    5    0    0 -0.34637437701E+01 -0.27128179050E+02  0.39886365836E+03  0.39980014205E+03  0.00000000000E+00 0.  1.
         14    1    5    5    0    0 -0.61939447132E+02  0.11664023360E+02  0.28238910641E+03  0.28933743617E+03  0.00000000000E+00 0. -1.
         11    1    3    3    0    0 -0.76357496261E+01  0.34221679228E+02 -0.73967661184E+03  0.74050720328E+03  0.00000000000E+00 0. -1.
        -12    1    3    3    0    0 -0.46706179097E+02  0.99329718961E+02 -0.68795476469E+03  0.69665602595E+03  0.00000000000E+00 0.  1.
          5    1    4    4  501    0 -0.10782128605E+02 -0.56981302015E+02  0.14967003657E+02  0.60038376686E+02  0.41800000000E+01 0. -1.
         -5    1    4    4    0  501  0.13052724823E+03 -0.61105940483E+02 -0.49135714132E+02  0.15232560289E+03  0.41800000000E+01 0. -1.
</event>
<event>
11    1  0.7882745E-009  0.1512294E+03  0.7561462E-02  0.1095629E+00
         22   -1    0    0    0    0  0.00000000000E+00  0.00000000000E+00  0.33947597066E+03  0.33947597066E+03  0.00000000000E+00 0.  1.
         22   -1    0    0    0    0 -0.00000000000E+00 -0.00000000000E+00 -0.37132852440E+04  0.37132852440E+04  0.00000000000E+00 0. -1.
        -24    2    1    2    0    0 -0.57573580101E+02  0.56560636239E+02 -0.30492758368E+04  0.30514333333E+04  0.81537941468E+02 0.  0.
         25    2    1    2    0    0  0.10246607544E+03 -0.91421763578E+02 -0.64222937125E+03  0.66855326360E+03  0.12509062915E+03 0.  0.
         24    2    1    2    0    0 -0.44892495339E+02  0.34861127339E+02  0.31769593478E+03  0.33277461771E+03  0.81102434465E+02 0.  0.
        -13    1    5    5    0    0  0.13887830253E+01  0.49899249321E+02  0.17677922872E+03  0.18369202352E+03  0.00000000000E+00 0.  1.
         14    1    5    5    0    0 -0.46281278365E+02 -0.15038121982E+02  0.14091670607E+03  0.14908259419E+03  0.00000000000E+00 0. -1.
         13    1    3    3    0    0 -0.65427221700E+02  0.46530797791E+02 -0.29742714233E+04  0.29753548252E+04  0.00000000000E+00 0. -1.
        -14    1    3    3    0    0  0.78536415989E+01  0.10029838448E+02 -0.75004413561E+02  0.76078508130E+02  0.00000000000E+00 0.  1.
          5    1    4    4  501    0 -0.16994115913E+02 -0.33845814014E+02 -0.28397871145E+03  0.28652350699E+03  0.41800000000E+01 0. -1.
         -5    1    4    4    0  501  0.11946019135E+03 -0.57575949565E+02 -0.35825065980E+03  0.38202975661E+03  0.41800000000E+01 0. -1.
</event>
<event>
11    1  0.7882745E-009  0.8957621E+03  0.7561462E-02  0.8785015E-01
         22   -1    0    0    0    0  0.00000000000E+00  0.00000000000E+00  0.15275437389E+04  0.15275437389E+04  0.00000000000E+00 0. -1.
         22   -1    0    0    0    0 -0.00000000000E+00 -0.00000000000E+00 -0.61105661851E+03  0.61105661851E+03  0.00000000000E+00 0.  1.
         24    2    1    2    0    0  0.98639343530E+02  0.36182737294E+01  0.12053503665E+02  0.12868727417E+03  0.81684243187E+02 0.  0.
         25    2    1    2    0    0  0.84082928480E+03  0.33635741217E+02  0.45569951475E+03  0.96510823226E+03  0.12508638202E+03 0.  0.
        -24    2    1    2    0    0 -0.93946862833E+03 -0.37254014946E+02  0.44873410198E+03  0.10448048510E+04  0.79156282997E+02 0.  0.
        -13    1    3    3    0    0  0.40622876699E+02  0.39633550251E+02 -0.84718313539E+01  0.57382996987E+02  0.00000000000E+00 0.  1.
         14    1    3    3    0    0  0.58016466831E+02 -0.36015276521E+02  0.20525335018E+02  0.71304277180E+02  0.00000000000E+00 0. -1.
         13    1    5    5    0    0 -0.27800449283E+03 -0.45357918715E+02  0.12125893776E+03  0.30667176070E+03  0.00000000000E+00 0. -1.
        -14    1    5    5    0    0 -0.66146413550E+03  0.81039037683E+01  0.32747516422E+03  0.73813309029E+03  0.00000000000E+00 0.  1.
          5    1    4    4  501    0  0.16568132401E+03  0.36199715321E+02  0.13919115155E+03  0.21943648189E+03  0.41800000000E+01 0. -1.
         -5    1    4    4    0  501  0.67514796078E+03 -0.25639741039E+01  0.31650836320E+03  0.74567175037E+03  0.41800000000E+01 0. -1.
</event>
<event>
11    1  0.7882745E-009  0.1622405E+03  0.7561462E-02  0.1084989E+00
         22   -1    0    0    0    0  0.00000000000E+00  0.00000000000E+00  0.21012294129E+04  0.21012294129E+04  0.00000000000E+00 0. -1.
         22   -1    0    0    0    0 -0.00000000000E+00 -0.00000000000E+00 -0.10000276730E+03  0.10000276730E+03  0.00000000000E+00 0. -1.
        -24    2    1    2    0    0  0.68351361270E+02 -0.75447279744E+02 -0.39058975509E+02  0.13521271404E+03  0.79954198530E+02 0.  0.
         25    2    1    2    0    0 -0.10937452097E+03  0.70204400181E+02  0.70419903605E+03  0.72693568136E+03  0.12509100218E+03 0.  0.
         24    2    1    2    0    0  0.41023159698E+02  0.52428795630E+01  0.13360865850E+04  0.13390837848E+04  0.79420605032E+02 0.  0.
        -13    1    5    5    0    0 -0.19439973945E+02 -0.16250261026E+02  0.36126445057E+03  0.36215188363E+03  0.00000000000E+00 0.  1.
         14    1    5    5    0    0  0.60463133644E+02  0.21493140589E+02  0.97482213447E+03  0.97693190115E+03  0.00000000000E+00 0. -1.
         13    1    3    3    0    0  0.67611066798E+02 -0.90510924220E+02 -0.27672595246E+02  0.11631533125E+03  0.00000000000E+00 0. -1.
        -14    1    3    3    0    0  0.74029447199E+00  0.15063644476E+02 -0.11386380263E+02  0.18897382789E+02  0.00000000000E+00 0.  1.
          5    1    4    4  501    0 -0.15548393478E+02 -0.33838990893E+01  0.39757689884E+03  0.39791715998E+03  0.41800000000E+01 0.  1.
         -5    1    4    4    0  501 -0.93826127491E+02  0.73588299271E+02  0.30662213721E+03  0.32901852139E+03  0.41800000000E+01 0.  1.
</event>
<event>
11    1  0.7882745E-009  0.1404402E+03  0.7561462E-02  0.1107068E+00
         22   -1    0    0    0    0  0.00000000000E+00  0.00000000000E+00  0.78499474065E+03  0.78499474065E+03  0.00000000000E+00 0.  1.
         22   -1    0    0    0    0 -0.00000000000E+00 -0.00000000000E+00 -0.71884170970E+03  0.71884170970E+03  0.00000000000E+00 0.  1.
         24    2    1    2    0    0  0.11907262914E+01  0.63044104451E+02 -0.67850496268E+03  0.68633376907E+03  0.81908981529E+02 0.  0.
         25    2    1    2    0    0 -0.44893674408E+02 -0.11109522375E+03  0.20206506499E+03  0.26614443535E+03  0.12507989142E+03 0.  0.
        -24    2    1    2    0    0  0.43702948116E+02  0.48051119300E+02  0.54259292865E+03  0.55135824593E+03  0.73280088679E+02 0.  0.
        -11    1    3    3    0    0 -0.39234687304E+02  0.26339369487E+02 -0.37378591267E+03  0.37676123949E+03  0.00000000000E+00 0.  1.
         12    1    3    3    0    0  0.40425413595E+02  0.36704734964E+02 -0.30471905001E+03  0.30957252958E+03  0.00000000000E+00 0. -1.
         13    1    5    5    0    0 -0.77637418872E+01  0.15184292834E+02  0.25531813091E+02  0.30703614066E+02  0.00000000000E+00 0. -1.
        -14    1    5    5    0    0  0.51466690003E+02  0.32866826466E+02  0.51706111555E+03  0.52065463186E+03  0.00000000000E+00 0.  1.
          5    1    4    4  501    0 -0.11120963371E+02  0.21984822821E+02  0.43023408401E+01  0.25357263209E+02  0.41800000000E+01 0.  1.
         -5    1    4    4    0  501 -0.33772711037E+02 -0.13308004657E+03  0.19776272415E+03  0.24078717214E+03  0.41800000000E+01 0.  1.
</event>
<event>
11    1  0.7882745E-009  0.1387344E+03  0.7561462E-02  0.1108980E+00
         22   -1    0    0    0    0  0.00000000000E+00  0.00000000000E+00  0.49377203461E+03  0.49377203461E+03  0.00000000000E+00 0. -1.
         22   -1    0    0    0    0 -0.00000000000E+00 -0.00000000000E+00 -0.64773676070E+03  0.64773676070E+03  0.00000000000E+00 0. -1.
         24    2    1    2    0    0 -0.57552678795E+02  0.19130248798E+02 -0.50396523150E+03  0.51384812766E+03  0.79879074138E+02 0.  0.
         25    2    1    2    0    0  0.43438926254E+02 -0.42283293897E+02 -0.98746140032E+02  0.17050868339E+03  0.12509034208E+03 0.  0.
        -24    2    1    2    0    0  0.14113752541E+02  0.23153045100E+02  0.44874664544E+03  0.45715198426E+03  0.82940481163E+02 0.  0.
        -13    1    3    3    0    0 -0.56760511156E+01 -0.20987635504E+02 -0.42418956391E+02  0.47666196216E+02  0.00000000000E+00 0.  1.
         14    1    3    3    0    0 -0.51876627679E+02  0.40117884302E+02 -0.46154627511E+03  0.46618193145E+03  0.00000000000E+00 0. -1.
         13    1    5    5    0    0 -0.21613469868E+02  0.15224501135E+02  0.36249240827E+03  0.36345518784E+03  0.00000000000E+00 0. -1.
        -14    1    5    5    0    0  0.35727222409E+02  0.79285439647E+01  0.86254237165E+02  0.93696796420E+02  0.00000000000E+00 0.  1.
          5    1    4    4  501    0 -0.36760609081E+02  0.56257820717E+01 -0.44164964475E+01  0.37682484589E+02  0.41800000000E+01 0. -1.
         -5    1    4    4    0  501  0.80199535335E+02 -0.47909075969E+02 -0.94329643584E+02  0.13282619880E+03  0.41800000000E+01 0. -1.
</event>
<event>
11    1  0.7882745E-009  0.1405296E+03  0.7561462E-02  0.1106968E+00
         22   -1    0    0    0    0  0.00000000000E+00  0.00000000000E+00  0.41609601019E+03  0.41609601019E+03  0.00000000000E+00 0.  1.
         22   -1    0    0    0    0 -0.00000000000E+00 -0.00000000000E+00 -0.12864298732E+04  0.12864298732E+04  0.00000000000E+00 0.  1.
         24    2    1    2    0    0 -0.14006982733E+00  0.13783904452E+02 -0.11445033466E+04  0.11472721956E+04  0.78457407047E+02 0.  0.
         25    2    1    2    0    0 -0.57606264005E+02  0.14602430129E+02 -0.97621550669E+02  0.16943792465E+03  0.12509008968E+03 0.  0.
        -24    2    1    2    0    0  0.57746333833E+02 -0.28386334580E+02  0.37179103422E+03  0.38581576321E+03  0.80528299093E+02 0.  0.
        -11    1    3    3    0    0  0.27824136034E+01 -0.31023918626E+02 -0.64603018645E+03  0.64678066387E+03  0.00000000000E+00 0.  1.
         12    1    3    3    0    0 -0.29224834307E+01  0.44807823077E+02 -0.49847316015E+03  0.50049153170E+03  0.00000000000E+00 0. -1.
         13    1    5    5    0    0  0.13094953112E+02 -0.12124568496E+01  0.27904357754E+03  0.27935329963E+03  0.00000000000E+00 0. -1.
        -14    1    5    5    0    0  0.44651380721E+02 -0.27173877731E+02  0.92747456681E+02  0.10646246358E+03  0.00000000000E+00 0.  1.
          5    1    4    4  501    0  0.15773521039E+02  0.15704773394E+02 -0.93074639135E+02  0.95790420834E+02  0.41800000000E+01 0. -1.
         -5    1    4    4    0  501 -0.73379785044E+02 -0.11023432656E+01 -0.45469115333E+01  0.73647503816E+02  0.41800000000E+01 0. -1.
</event>
<event>
11    1  0.7882745E-009  0.1560355E+03  0.7561462E-02  0.1090866E+00
         22   -1    0    0    0    0  0.00000000000E+00  0.00000000000E+00  0.30851309671E+03  0.30851309671E+03  0.00000000000E+00 0. -1.
         22   -1    0    0    0    0 -0.00000000000E+00 -0.00000000000E+00 -0.32882469853E+04  0.32882469853E+04  0.00000000000E+00 0. -1.
        -24    2    1    2    0    0 -0.90009462822E+02 -0.28777463818E+02 -0.30178677096E+04  0.30204869493E+04  0.82982240771E+02 0.  0.
         25    2    1    2    0    0  0.86644838652E+02 -0.43722370139E+02 -0.23464150779E+03  0.28306214369E+03  0.12509422968E+03 0.  0.
         24    2    1    2    0    0  0.33646241696E+01  0.72499833956E+02  0.27277532880E+03  0.29321098904E+03  0.79364711775E+02 0.  0.
        -11    1    5    5    0    0 -0.14434069385E+02  0.31052904832E+02  0.27771425607E+02  0.44089424330E+02  0.00000000000E+00 0.  1.
         12    1    5    5    0    0  0.17798693554E+02  0.41446929124E+02  0.24500390319E+03  0.24912156471E+03  0.00000000000E+00 0. -1.
         13    1    3    3    0    0 -0.54352254400E+02 -0.27677044865E+02 -0.26887043087E+04  0.26893960374E+04  0.00000000000E+00 0. -1.
        -14    1    3    3    0    0 -0.35657208422E+02 -0.11004189527E+01 -0.32916340097E+03  0.33109091194E+03  0.00000000000E+00 0.  1.
          5    1    4    4  501    0  0.54732679692E+02  0.40460317263E+02 -0.99514004824E+02  0.12063669863E+03  0.41800000000E+01 0. -1.
         -5    1    4    4    0  501  0.31912158960E+02 -0.84182687402E+02 -0.13512750297E+03  0.16242544507E+03  0.41800000000E+01 0. -1.
</event>
<event>
11    1  0.7882745E-009  0.1845830E+03  0.7561462E-02  0.1065995E+00
         22   -1    0    0    0    0  0.00000000000E+00  0.00000000000E+00  0.42574692542E+03  0.42574692542E+03  0.00000000000E+00 0.  1.
         22   -1    0    0    0    0 -0.00000000000E+00 -0.00000000000E+00 -0.13230306036E+04  0.13230306036E+04  0.00000000000E+00 0. -1.
        -24    2    1    2    0    0 -0.17421425719E+02 -0.13024404451E+03 -0.99586622871E+03  0.10077483404E+04  0.80871224614E+02 0.  0.
         25    2    1    2    0    0  0.13565812312E+02  0.15901095183E+03 -0.28371684658E+03  0.34872672165E+03  0.12508622344E+03 0.  0.
         24    2    1    2    0    0  0.38556134069E+01 -0.28766907325E+02  0.38229939714E+03  0.39230246691E+03  0.83102321131E+02 0.  0.
        -13    1    5    5    0    0 -0.27774385522E+02 -0.22339643375E+02  0.32147371057E+03  0.32344369332E+03  0.00000000000E+00 0.  1.
         14    1    5    5    0    0  0.31629998929E+02 -0.64272639498E+01  0.60825686564E+02  0.68858773589E+02  0.00000000000E+00 0. -1.
         11    1    3    3    0    0 -0.45137694699E+02 -0.53957421901E+02 -0.36862844420E+03  0.37528088779E+03  0.00000000000E+00 0. -1.
        -12    1    3    3    0    0  0.27716268981E+02 -0.76286622607E+02 -0.62723778451E+03  0.63246745265E+03  0.00000000000E+00 0.  1.
          5    1    4    4  501    0 -0.40231690445E+02  0.10397522157E+02 -0.85689419622E+02  0.95324951708E+02  0.41800000000E+01 0. -1.
         -5    1    4    4    0  501  0.53797502756E+02  0.14861342968E+03 -0.19802742696E+03  0.25340176995E+03  0.41800000000E+01 0. -1.
</event>
<event>
11    1  0.7882745E-009  0.1562671E+03  0.7561462E-02  0.1090642E+00
         22   -1    0    0    0    0  0.00000000000E+00  0.00000000000E+00  0.59355631994E+03  0.59355631994E+03  0.00000000000E+00 0.  1.
         22   -1    0    0    0    0 -0.00000000000E+00 -0.00000000000E+00 -0.16497618960E+03  0.16497618960E+03  0.00000000000E+00 0.  1.
         24    2    1    2    0    0 -0.43550501907E+02 -0.23374658707E+02 -0.11156732085E+03  0.14636944297E+03  0.80831465812E+02 0.  0.
         25    2    1    2    0    0 -0.11206611142E+02  0.10003816845E+03  0.26180194826E+03  0.30711714507E+03  0.12508979736E+03 0.  0.
        -24    2    1    2    0    0  0.54757113048E+02 -0.76663509740E+02  0.27834550294E+03  0.30504592151E+03  0.81860613655E+02 0.  0.
        -13    1    3    3    0    0 -0.18128048253E+02 -0.41292178234E+02 -0.19393151302E+02  0.49089351536E+02  0.00000000000E+00 0.  1.
         14    1    3    3    0    0 -0.25422453654E+02  0.17917519527E+02 -0.92174169553E+02  0.97280091429E+02  0.00000000000E+00 0. -1.
         13    1    5    5    0    0 -0.18858723901E+02 -0.31368794546E+02  0.60916131354E+02  0.71066361928E+02  0.00000000000E+00 0. -1.
        -14    1    5    5    0    0  0.73615836949E+02 -0.45294715194E+02  0.21742937158E+03  0.23397955958E+03  0.00000000000E+00 0.  1.
          5    1    4    4  501    0 -0.15090329802E+02  0.11546069461E+03  0.26577984406E+03  0.29019870427E+03  0.41800000000E+01 0.  1.
         -5    1    4    4    0  501  0.38837186602E+01 -0.15422526168E+02 -0.39778957962E+01  0.16918440797E+02  0.41800000000E+01 0.  1.
</event>
<event>
11    1  0.7882745E-009  0.1890856E+03  0.7561462E-02  0.1062522E+00
         22   -1    0    0    0    0  0.00000000000E+00  0.00000000000E+00  0.25616707412E+04  0.25616707412E+04  0.00000000000E+00 0.  1.
         22   -1    0    0    0    0 -0.00000000000E+00 -0.00000000000E+00 -0.88415056715E+03  0.88415056715E+03  0.00000000000E+00 0.  1.
        -24    2    1    2    0    0  0.18066663660E+02  0.11236164027E+03 -0.82556666234E+03  0.83684524115E+03  0.76145263364E+02 0.  0.
         25    2    1    2    0    0 -0.10963948693E+03  0.11144388048E+01  0.87985219124E+02  0.18817770011E+03  0.12508952380E+03 0.  0.
         24    2    1    2    0    0  0.91572823274E+02 -0.11347607908E+03  0.24151016173E+04  0.24207983671E+04  0.79287513936E+02 0.  0.
        -13    1    5    5    0    0  0.20636102015E+02 -0.86802384703E+02  0.14350401336E+04  0.14378110751E+04  0.00000000000E+00 0.  1.
         14    1    5    5    0    0  0.70936721258E+02 -0.26673694375E+02  0.98006148375E+03  0.98298729205E+03  0.00000000000E+00 0. -1.
         11    1    3    3    0    0 -0.29150564164E+02  0.54872916286E+02 -0.40778345041E+03  0.41249016323E+03  0.00000000000E+00 0. -1.
        -12    1    3    3    0    0  0.47217227824E+02  0.57488723987E+02 -0.41778321193E+03  0.42435507793E+03  0.00000000000E+00 0.  1.
          5    1    4    4  501    0 -0.19173569155E+01 -0.47645384603E+02  0.21675993831E+02  0.52545980246E+02  0.41800000000E+01 0. -1.
         -5    1    4    4    0  501 -0.10772213002E+03  0.48759823408E+02  0.66309225293E+02  0.13563171986E+03  0.41800000000E+01 0. -1.
</event>
<event>
11    1  0.7882745E-009  0.2102434E+03  0.7561462E-02  0.1047507E+00
         22   -1    0    0    0    0  0.00000000000E+00  0.00000000000E+00  0.39487152996E+03  0.39487152996E+03  0.00000000000E+00 0.  1.
         22   -1    0    0    0    0 -0.00000000000E+00 -0.00000000000E+00 -0.45357106354E+03  0.45357106354E+03  0.00000000000E+00 0.  1.
        -24    2    1    2    0    0  0.30409882747E+02  0.11324827646E+03 -0.15054791953E+03  0.20759195709E+03  0.81730113684E+02 0.  0.
         25    2    1    2    0    0 -0.19350260434E+03 -0.13206273599E+03 -0.17469922393E+03  0.31788394797E+03  0.12508621593E+03 0.  0.
         24    2    1    2    0    0  0.16309272159E+03  0.18814459528E+02  0.26654760987E+03  0.32296668844E+03  0.79414317294E+02 0.  0.
        -11    1    5    5    0    0  0.89220979675E+02  0.47031338897E+02  0.12285250650E+03  0.15894989275E+03  0.00000000000E+00 0.  1.
         12    1    5    5    0    0  0.73871741916E+02 -0.28216879369E+02  0.14369510337E+03  0.16401679569E+03  0.00000000000E+00 0. -1.
         11    1    3    3    0    0  0.37163001359E+02  0.20987283736E+02 -0.18864872360E+02  0.46663027739E+02  0.00000000000E+00 0. -1.
        -12    1    3    3    0    0 -0.67531186114E+01  0.92260992721E+02 -0.13168304717E+03  0.16092892935E+03  0.00000000000E+00 0.  1.
          5    1    4    4  501    0 -0.92200437583E+02 -0.98579934990E+02 -0.16115326163E+03  0.21025406157E+03  0.41800000000E+01 0. -1.
         -5    1    4    4    0  501 -0.10130216676E+03 -0.33482800995E+02 -0.13545962292E+02  0.10762988640E+03  0.41800000000E+01 0. -1.
</event>
<event>
11    1  0.7882745E-009  0.1425866E+03  0.7561462E-02  0.1104704E+00
         22   -1    0    0    0    0  0.00000000000E+00  0.00000000000E+00  0.30700199333E+03  0.30700199333E+03  0.00000000000E+00 0. -1.
         22   -1    0    0    0    0 -0.00000000000E+00 -0.00000000000E+00 -0.29605988423E+03  0.29605988423E+03  0.00000000000E+00 0.  1.
        -24    2    1    2    0    0  0.27493108544E+02  0.67174089803E+02 -0.20157317421E+03  0.22920069381E+03  0.81443134272E+02 0.  0.
         25    2    1    2    0    0  0.11323333004E+02  0.36956971359E+01 -0.77475393869E+01  0.12589502602E+03  0.12509059582E+03 0.  0.
         24    2    1    2    0    0 -0.38816441548E+02 -0.70869786939E+02  0.22026282269E+03  0.24796615774E+03  0.80263699687E+02 0.  0.
        -13    1    5    5    0    0 -0.26445419725E+02 -0.57564428930E+01  0.12358200081E+02  0.29752680021E+02  0.00000000000E+00 0.  1.
         14    1    5    5    0    0 -0.12371021823E+02 -0.65113344046E+02  0.20790462261E+03  0.21821347772E+03  0.00000000000E+00 0. -1.
         11    1    3    3    0    0  0.20681252980E+01  0.12807490000E+02  0.51372433559E+01  0.13953501770E+02  0.00000000000E+00 0. -1.
        -12    1    3    3    0    0  0.25424983246E+02  0.54366599802E+02 -0.20671041757E+03  0.21524719203E+03  0.00000000000E+00 0.  1.
          5    1    4    4  501    0  0.44034837680E+02  0.75000633411E+01  0.45017583582E+02  0.63556062742E+02  0.41800000000E+01 0. -1.
         -5    1    4    4    0  501 -0.32711504676E+02 -0.38043662052E+01 -0.52765122969E+02  0.62338963276E+02  0.41800000000E+01 0. -1.
</event>
<event>
11    1  0.7882745E-009  0.1518113E+03  0.7561462E-02  0.1095042E+00
         22   -1    0    0    0    0  0.00000000000E+00  0.00000000000E+00  0.14776356812E+04  0.14776356812E+04  0.00000000000E+00 0. -1.
         22   -1    0    0    0    0 -0.00000000000E+00 -0.00000000000E+00 -0.53719801888E+03  0.53719801888E+03  0.00000000000E+00 0. -1.
        -24    2    1    2    0    0 -0.75181438197E+02  0.49630070837E+02 -0.30443252783E+03  0.33322075850E+03  0.10120038198E+03 0.  0.
         25    2    1    2    0    0  0.83643036781E+02 -0.10808657146E+02 -0.19074905631E+03  0.24319926485E+03  0.12509074814E+03 0.  0.
         24    2    1    2    0    0 -0.84615985843E+01 -0.38821413690E+02  0.14356192465E+04  0.14384136768E+04  0.80327976196E+02 0.  0.
        -11    1    5    5    0    0 -0.13464815891E+02 -0.25400665961E+01  0.39409225624E+02  0.41723377974E+02  0.00000000000E+00 0.  1.
         12    1    5    5    0    0  0.50032173063E+01 -0.36281347094E+02  0.13962100209E+04  0.13966902988E+04  0.00000000000E+00 0. -1.
         11    1    3    3    0    0 -0.95139633708E+02  0.32503152912E+02 -0.27929709882E+03  0.29684149686E+03  0.00000000000E+00 0. -1.
        -12    1    3    3    0    0  0.19958195511E+02  0.17126917924E+02 -0.25135429019E+02  0.36379261641E+02  0.00000000000E+00 0.  1.
          5    1    4    4  501    0  0.65128240259E+01  0.31395644713E+02 -0.13543294914E+03  0.13923957590E+03  0.41800000000E+01 0.  1.
         -5    1    4    4    0  501  0.77130212756E+02 -0.42204301860E+02 -0.55316107170E+02  0.10395968896E+03  0.41800000000E+01 0.  1.
</event>
<event>
11    1  0.7882745E-009  0.1389262E+03  0.7561462E-02  0.1108763E+00
         22   -1    0    0    0    0  0.00000000000E+00  0.00000000000E+00  0.95630222703E+03  0.95630222703E+03  0.00000000000E+00 0. -1.
         22   -1    0    0    0    0 -0.00000000000E+00 -0.00000000000E+00 -0.64478959135E+02  0.64478959135E+02  0.00000000000E+00 0. -1.
         24    2    1    2    0    0 -0.18867846637E+02 -0.29272510845E+02  0.53030860000E+02  0.10584644488E+03  0.84724980102E+02 0.  0.
         25    2    1    2    0    0  0.72198868607E+02  0.17359250252E+01  0.11622252927E+03  0.18540403062E+03  0.12510510860E+03 0.  0.
        -24    2    1    2    0    0 -0.53331021970E+02  0.27536585820E+02  0.72256987863E+03  0.72953071066E+03  0.80655854349E+02 0.  0.
        -11    1    3    3    0    0  0.22975885056E+02 -0.31600412129E+02  0.50516970978E+02  0.63862678441E+02  0.00000000000E+00 0.  1.
         12    1    3    3    0    0 -0.41843731692E+02  0.23279012841E+01  0.25138890217E+01  0.41983766438E+02  0.00000000000E+00 0. -1.
         11    1    5    5    0    0 -0.16257359182E+02  0.10872793195E+02  0.60153887973E+03  0.60185674640E+03  0.00000000000E+00 0. -1.
        -12    1    5    5    0    0 -0.37073662788E+02  0.16663792625E+02  0.12103099889E+03  0.12767396426E+03  0.00000000000E+00 0.  1.
          5    1    4    4  501    0  0.10753973261E+03  0.29904446336E+01  0.76601126658E+02  0.13213228921E+03  0.41800000000E+01 0.  1.
         -5    1    4    4    0  501 -0.35340863998E+02 -0.12545196084E+01  0.39621402610E+02  0.53271741405E+02  0.41800000000E+01 0.  1.
</event>
<event>
11    1  0.7882745E-009  0.1374199E+03  0.7561462E-02  0.1110474E+00
         22   -1    0    0    0    0  0.00000000000E+00  0.00000000000E+00  0.57823291567E+03  0.57823291567E+03  0.00000000000E+00 0.  1.
         22   -1    0    0    0    0 -0.00000000000E+00 -0.00000000000E+00 -0.59042612973E+03  0.59042612973E+03  0.00000000000E+00 0. -1.
        -24    2    1    2    0    0  0.22078359560E+02  0.86859279831E+00 -0.51976527230E+03  0.52571955988E+03  0.75742385311E+02 0.  0.
         25    2    1    2    0    0 -0.77169107609E+02  0.37518740853E+01  0.23448372236E+02  0.14888368543E+03  0.12508947957E+03 0.  0.
         24    2    1    2    0    0  0.55090748049E+02 -0.46204668836E+01  0.48412368601E+03  0.49405580009E+03  0.81603008592E+02 0.  0.
        -11    1    5    5    0    0  0.38593536383E+02  0.31885363736E+02  0.36404496600E+03  0.36747091686E+03  0.00000000000E+00 0.  1.
         12    1    5    5    0    0  0.16497211666E+02 -0.36505830619E+02  0.12007872002E+03  0.12658488323E+03  0.00000000000E+00 0. -1.
         11    1    3    3    0    0  0.47426900676E+02  0.13215156477E+02 -0.37656803919E+03  0.37977287871E+03  0.00000000000E+00 0. -1.
        -12    1    3    3    0    0 -0.25348541116E+02 -0.12346563679E+02 -0.14319723311E+03  0.14594668116E+03  0.00000000000E+00 0.  1.
          5    1    4    4  501    0 -0.43279248178E+02  0.59420829705E+02 -0.11960001922E+02  0.74595190003E+02  0.41800000000E+01 0. -1.
         -5    1    4    4    0  501 -0.33889859431E+02 -0.55668955619E+02  0.35408374158E+02  0.74288495425E+02  0.41800000000E+01 0. -1.
</event>
<event>
11    1  0.7882745E-009  0.2541194E+03  0.7561462E-02  0.1021727E+00
         22   -1    0    0    0    0  0.00000000000E+00  0.00000000000E+00  0.13316269307E+04  0.13316269307E+04  0.00000000000E+00 0. -1.
         22   -1    0    0    0    0 -0.00000000000E+00 -0.00000000000E+00 -0.38027773821E+03  0.38027773821E+03  0.00000000000E+00 0.  1.
         24    2    1    2    0    0 -0.21487932294E+03  0.36012637142E+01 -0.25261953837E+03  0.34135241842E+03  0.80738775481E+02 0.  0.
         25    2    1    2    0    0  0.25645287466E+03 -0.38949418737E+02  0.17478883068E+03  0.33687335126E+03  0.12508950920E+03 0.  0.
        -24    2    1    2    0    0 -0.41573551722E+02  0.35348155023E+02  0.10291799002E+04  0.10336788993E+04  0.79391104864E+02 0.  0.
        -11    1    3    3    0    0 -0.22080967411E+03  0.67207511413E+01 -0.23514874470E+03  0.32264068685E+03  0.00000000000E+00 0.  1.
         12    1    3    3    0    0  0.59303511711E+01 -0.31194874271E+01 -0.17470793670E+02  0.18711731568E+02  0.00000000000E+00 0. -1.
         11    1    5    5    0    0 -0.20126371569E+02  0.42829608555E+02  0.95325761715E+03  0.95443152235E+03  0.00000000000E+00 0. -1.
        -12    1    5    5    0    0 -0.21447180153E+02 -0.74814535322E+01  0.75922283061E+02  0.79247376920E+02  0.00000000000E+00 0.  1.
          5    1    4    4  501    0  0.26813083789E+03 -0.44972291389E+02  0.17449255258E+03  0.32308168708E+03  0.41800000000E+01 0.  1.
         -5    1    4    4    0  501 -0.11677963225E+02  0.60228726519E+01  0.29627809899E+00  0.13791664177E+02  0.41800000000E+01 0.  1.
</event>
<event>
11    1  0.7882745E-009  0.1346703E+03  0.7561462E-02  0.1113660E+00
         22   -1    0    0    0    0  0.00000000000E+00  0.00000000000E+00  0.14133380719E+03  0.14133380719E+03  0.00000000000E+00 0.  1.
         22   -1    0    0    0    0 -0.00000000000E+00 -0.00000000000E+00 -0.65185532255E+03  0.65185532255E+03  0.00000000000E+00 0. -1.
        -24    2    1    2    0    0  0.17533460295E+02 -0.13919563778E+02 -0.45656467223E+03  0.46410425826E+03  0.80251393242E+02 0.  0.
         25    2    1    2    0    0  0.28076110936E+02  0.36405391474E+02 -0.14540303708E+03  0.19723845331E+03  0.12508934302E+03 0.  0.
         24    2    1    2    0    0 -0.45609571231E+02 -0.22485827696E+02  0.91446193948E+02  0.13184641818E+03  0.80219861400E+02 0.  0.
        -13    1    5    5    0    0 -0.62672272471E+02 -0.54347415814E+01  0.38731508865E+02  0.73874758421E+02  0.00000000000E+00 0.  1.
         14    1    5    5    0    0  0.17062701241E+02 -0.17051086115E+02  0.52714685083E+02  0.57971659755E+02  0.00000000000E+00 0. -1.
         13    1    3    3    0    0  0.46506839285E+02 -0.84892626265E+01 -0.18502022240E+03  0.19096448983E+03  0.00000000000E+00 0. -1.
        -14    1    3    3    0    0 -0.28973378990E+02 -0.54303011514E+01 -0.27154444983E+03  0.27313976843E+03  0.00000000000E+00 0.  1.
          5    1    4    4  501    0 -0.89200237703E+00  0.60843738340E+02 -0.17035903265E+02  0.63328118269E+02  0.41800000000E+01 0. -1.
         -5    1    4    4    0  501  0.28968113313E+02 -0.24438346866E+02 -0.12836713381E+03  0.13391033504E+03  0.41800000000E+01 0. -1.
</event>
<event>
11    1  0.7882745E-009  0.1383234E+03  0.7561462E-02  0.1109445E+00
         22   -1    0    0    0    0  0.00000000000E+00  0.00000000000E+00  0.31557404620E+03  0.31557404620E+03  0.00000000000E+00 0. -1.
         22   -1    0    0    0    0 -0.00000000000E+00 -0.00000000000E+00 -0.85139274271E+03  0.85139274271E+03  0.00000000000E+00 0.  1.
         24    2    1    2    0    0 -0.64470457975E+01  0.22215567510E+02 -0.57682136002E+03  0.58280768091E+03  0.80042586899E+02 0.  0.
         25    2    1    2    0    0 -0.50772830490E+02 -0.36859299051E+02 -0.24460482365E+03  0.28180666400E+03  0.12508792060E+03 0.  0.
        -24    2    1    2    0    0  0.57219876288E+02  0.14643731541E+02  0.28560748715E+03  0.30235244399E+03  0.79729609013E+02 0.  0.
        -11    1    3    3    0    0 -0.16579633577E+02 -0.18215525977E+02 -0.41412839650E+03  0.41486023963E+03  0.00000000000E+00 0.  1.
         12    1    3    3    0    0  0.10132587779E+02  0.40431093487E+02 -0.16269296352E+03  0.16794744128E+03  0.00000000000E+00 0. -1.
         13    1    5    5    0    0  0.60909480474E+02  0.14535943203E+02  0.28996047938E+03  0.29664513827E+03  0.00000000000E+00 0. -1.
        -14    1    5    5    0    0 -0.36896041857E+01  0.10778833779E+00 -0.43529922219E+01  0.57073057266E+01  0.00000000000E+00 0.  1.
          5    1    4    4  501    0  0.28738195928E+02 -0.17910057018E+02 -0.13597019158E+02  0.36728808551E+02  0.41800000000E+01 0.  1.
         -5    1    4    4    0  501 -0.79511026419E+02 -0.18949242033E+02 -0.23100780449E+03  0.24507785545E+03  0.41800000000E+01 0.  1.
</event>
<event>
11    1  0.7882745E-009  0.1315723E+03  0.7561462E-02  0.1117352E+00
         22   -1    0    0    0    0  0.00000000000E+00  0.00000000000E+00  0.31223427018E+03  0.31223427018E+03  0.00000000000E+00 0. -1.
         22   -1    0    0    0    0 -0.00000000000E+00 -0.00000000000E+00 -0.71394404750E+03  0.71394404750E+03  0.00000000000E+00 0. -1.
         24    2    1    2    0    0  0.12617089119E+02 -0.36541144280E+02 -0.63974211031E+03  0.64599069883E+03  0.80867602320E+02 0.  0.
         25    2    1    2    0    0 -0.46848143800E+02  0.51443989031E+02  0.20278920225E+02  0.14457140203E+03  0.12509365729E+03 0.  0.
        -24    2    1    2    0    0  0.34231054681E+02 -0.14902844750E+02  0.21775341277E+03  0.23561621683E+03  0.81881578965E+02 0.  0.
        -13    1    3    3    0    0  0.34268416937E+02 -0.41467568606E+02 -0.25520892389E+03  0.26081694439E+03  0.00000000000E+00 0.  1.
         14    1    3    3    0    0 -0.21651327818E+02  0.49264243253E+01 -0.38453318642E+03  0.38517375444E+03  0.00000000000E+00 0. -1.
         13    1    5    5    0    0  0.98606684993E+01 -0.46552759788E+01  0.20665726859E+03  0.20694475359E+03  0.00000000000E+00 0. -1.
        -14    1    5    5    0    0  0.24370386182E+02 -0.10247568772E+02  0.11096144174E+02  0.28671463233E+02  0.00000000000E+00 0.  1.
          5    1    4    4  501    0  0.13475025698E+02 -0.16650096012E+02 -0.32626196946E+02  0.39252301104E+02  0.41800000000E+01 0. -1.
         -5    1    4    4    0  501 -0.60323169498E+02  0.68094085043E+02  0.52905117172E+02  0.10531910092E+03  0.41800000000E+01 0. -1.
</event>
<event>
11    1  0.7882745E-009  0.1324566E+03  0.7561462E-02  0.1116287E+00
         22   -1    0    0    0    0  0.00000000000E+00  0.00000000000E+00  0.31666855031E+03  0.31666855031E+03  0.00000000000E+00 0. -1.
         22   -1    0    0    0    0 -0.00000000000E+00 -0.00000000000E+00 -0.18828543852E+04  0.18828543852E+04  0.00000000000E+00 0.  1.
         24    2    1    2    0    0 -0.44802846019E+02  0.17900488573E+01 -0.86468917925E+03  0.86947166066E+03  0.79265961778E+02 0.  0.
         25    2    1    2    0    0  0.37648836653E+02  0.32832071419E+02 -0.10052565605E+04  0.10142412486E+04  0.12509667525E+03 0.  0.
        -24    2    1    2    0    0  0.71540093658E+01 -0.34622120276E+02  0.30375990478E+03  0.31581002630E+03  0.78841752219E+02 0.  0.
        -11    1    3    3    0    0 -0.45041061589E+02  0.22555806507E+02 -0.79881171027E+03  0.80039840710E+03  0.00000000000E+00 0.  1.
         12    1    3    3    0    0  0.23821557008E+00 -0.20765757650E+02 -0.65877468984E+02  0.69073253558E+02  0.00000000000E+00 0. -1.
         13    1    5    5    0    0  0.69018487839E+01 -0.57864324993E+02  0.25783093618E+03  0.26433446101E+03  0.00000000000E+00 0. -1.
        -14    1    5    5    0    0  0.25216058184E+00  0.23242204717E+02  0.45928968601E+02  0.51475565289E+02  0.00000000000E+00 0.  1.
          5    1    4    4  501    0  0.62482714119E+02 -0.15583391939E+02 -0.77170221948E+03  0.77439571255E+03  0.41800000000E+01 0. -1.
         -5    1    4    4    0  501 -0.24833877466E+02  0.48415463358E+02 -0.23355434097E+03  0.23984553602E+03  0.41800000000E+01 0. -1.
</event>
<event>
11    1  0.7882745E-009  0.1351591E+03  0.7561462E-02  0.1113088E+00
         22   -1    0    0    0    0  0.00000000000E+00  0.00000000000E+00  0.42658484330E+03  0.42658484330E+03  0.00000000000E+00 0.  1.
         22   -1    0    0    0    0 -0.00000000000E+00 -0.00000000000E+00 -0.28930815536E+04  0.28930815536E+04  0.00000000000E+00 0. -1.
        -24    2    1    2    0    0  0.51872294018E+00 -0.34565830318E+02 -0.25184251017E+04  0.25199951765E+04  0.81948953699E+02 0.  0.
         25    2    1    2    0    0 -0.43181069782E+02  0.62449563843E+02 -0.35378776479E+03  0.38284615052E+03  0.12506334249E+03 0.  0.
         24    2    1    2    0    0  0.42662346842E+02 -0.27883733525E+02  0.40571615620E+03  0.41682506988E+03  0.80870025614E+02 0.  0.
        -13    1    5    5    0    0  0.57010356258E+02 -0.23966809605E+02  0.39114496163E+03  0.39600374959E+03  0.00000000000E+00 0.  1.
         14    1    5    5    0    0 -0.14348009416E+02 -0.39169239199E+01  0.14571194574E+02  0.20821320288E+02  0.00000000000E+00 0. -1.
         13    1    3    3    0    0  0.39657593064E+02 -0.25832741439E+02 -0.15903439816E+04  0.15910480932E+04  0.00000000000E+00 0. -1.
        -14    1    3    3    0    0 -0.39138870124E+02 -0.87330888794E+01 -0.92808112008E+03  0.92894708323E+03  0.00000000000E+00 0.  1.
          5    1    4    4  501    0 -0.68904274542E+02  0.80917411655E+02 -0.31571301536E+03  0.33314802570E+03  0.41800000000E+01 0.  1.
         -5    1    4    4    0  501  0.25723204760E+02 -0.18467847811E+02 -0.38074749435E+02  0.49698124818E+02  0.41800000000E+01 0.  1.
</event>
<event>
11    1  0.7882745E-009  0.2228545E+03  0.7561462E-02  0.1039444E+00
         22   -1    0    0    0    0  0.00000000000E+00  0.00000000000E+00  0.35765551828E+03  0.35765551828E+03  0.00000000000E+00 0.  1.
         22   -1    0    0    0    0 -0.00000000000E+00 -0.00000000000E+00 -0.25139624462E+04  0.25139624462E+04  0.00000000000E+00 0. -1.
         24    2    1    2    0    0 -0.99056212849E+02  0.15556996536E+03 -0.23454778111E+04  0.23538634157E+04  0.73434799709E+02 0.  0.
         25    2    1    2    0    0  0.96337920497E+02 -0.15711246585E+03 -0.79932211336E+02  0.23665886594E+03  0.12511170436E+03 0.  0.
        -24    2    1    2    0    0  0.27182923519E+01  0.15425004871E+01  0.26910309459E+03  0.28109568280E+03  0.81169815489E+02 0.  0.
        -11    1    3    3    0    0  0.15780230416E+01  0.37281016689E+02 -0.72527668573E+03  0.72623593634E+03  0.00000000000E+00 0.  1.
         12    1    3    3    0    0 -0.10063423589E+03  0.11828894867E+03 -0.16202011254E+04  0.16276274794E+04  0.00000000000E+00 0. -1.
         11    1    5    5    0    0  0.19592731980E+02  0.35769726283E+02  0.10569069794E+03  0.11328668102E+03  0.00000000000E+00 0. -1.
        -12    1    5    5    0    0 -0.16874439628E+02 -0.34227225796E+02  0.16341239665E+03  0.16780900177E+03  0.00000000000E+00 0.  1.
          5    1    4    4  501    0  0.41860965092E+02 -0.15945856886E+03 -0.42233432620E+02  0.17023663181E+03  0.41800000000E+01 0.  1.
         -5    1    4    4    0  501  0.54476955405E+02  0.23461030089E+01 -0.37698778716E+02  0.66422234125E+02  0.41800000000E+01 0.  1.
</event>
<event>
11    1  0.7882745E-009  0.1328544E+03  0.7561462E-02  0.1115811E+00
         22   -1    0    0    0    0  0.00000000000E+00  0.00000000000E+00  0.73427091439E+03  0.73427091439E+03  0.00000000000E+00 0. -1.
         22   -1    0    0    0    0 -0.00000000000E+00 -0.00000000000E+00 -0.31653837521E+03  0.31653837521E+03  0.00000000000E+00 0.  1.
         24    2    1    2    0    0  0.49890585033E+01  0.41105817415E+01 -0.24359932964E+03  0.25647715345E+03  0.79988181971E+02 0.  0.
         25    2    1    2    0    0 -0.28579678236E+02  0.33971762688E+02  0.61333906521E+01  0.13287428049E+03  0.12508827789E+03 0.  0.
        -24    2    1    2    0    0  0.23590619733E+02 -0.38082344430E+02  0.65519847817E+03  0.66145785565E+03  0.78959905771E+02 0.  0.
        -11    1    3    3    0    0 -0.30552715902E+02  0.17765464106E+02 -0.16975359050E+03  0.17339366093E+03  0.00000000000E+00 0.  1.
         12    1    3    3    0    0  0.35541774405E+02 -0.13654882365E+02 -0.73845739145E+02  0.83083492525E+02  0.00000000000E+00 0. -1.
         11    1    5    5    0    0  0.13244132808E+02 -0.59816203482E+02  0.55669355635E+03  0.56005455175E+03  0.00000000000E+00 0. -1.
        -12    1    5    5    0    0  0.10346486924E+02  0.21733859053E+02  0.98504921812E+02  0.10140330390E+03  0.00000000000E+00 0.  1.
          5    1    4    4  501    0  0.36400768844E+02  0.50860821049E+02  0.16478708834E+02  0.64814036559E+02  0.41800000000E+01 0.  1.
         -5    1    4    4    0  501 -0.64980447080E+02 -0.16889058361E+02 -0.10345318182E+02  0.68060243926E+02  0.41800000000E+01 0.  1.
</event>
<event>
11    1  0.7882745E-009  0.1387074E+03  0.7561462E-02  0.1109010E+00
         22   -1    0    0    0    0  0.00000000000E+00  0.00000000000E+00  0.15609135868E+04  0.15609135868E+04  0.00000000000E+00 0.  1.
         22   -1    0    0    0    0 -0.00000000000E+00 -0.00000000000E+00 -0.17751408456E+03  0.17751408456E+03  0.00000000000E+00 0.  1.
         24    2    1    2    0    0 -0.35971585890E+02 -0.54974608666E+02 -0.12143873935E+03  0.17339300619E+03  0.10488853413E+03 0.  0.
         25    2    1    2    0    0  0.58276094546E+02 -0.16915429915E+02  0.14591520111E+03  0.20154558242E+03  0.12508853230E+03 0.  0.
        -24    2    1    2    0    0 -0.22304508656E+02  0.71890038582E+02  0.13589230405E+04  0.13634890828E+04  0.82249499078E+02 0.  0.
        -13    1    3    3    0    0  0.19832501159E+02 -0.29151404203E+02 -0.10349963898E+03  0.10934032988E+03  0.00000000000E+00 0.  1.
         14    1    3    3    0    0 -0.55804087049E+02 -0.25823204463E+02 -0.17939100367E+02  0.64052676307E+02  0.00000000000E+00 0. -1.
         11    1    5    5    0    0 -0.80237205996E+00 -0.14587258312E+02  0.71026361128E+02  0.72513280722E+02  0.00000000000E+00 0. -1.
        -12    1    5    5    0    0 -0.21502136596E+02  0.86477296893E+02  0.12878966793E+04  0.12909758020E+04  0.00000000000E+00 0.  1.
          5    1    4    4  501    0  0.45896575263E+02 -0.10860567700E+02  0.16835260971E+03  0.17488430790E+03  0.41800000000E+01 0. -1.
         -5    1    4    4    0  501  0.12379519283E+02 -0.60548622148E+01 -0.22437408604E+02  0.26661274519E+02  0.41800000000E+01 0. -1.
</event>
<event>
11    1  0.7882745E-009  0.1900609E+03  0.7561462E-02  0.1061783E+00
         22   -1    0    0    0    0  0.00000000000E+00  0.00000000000E+00  0.79307046084E+02  0.79307046084E+02  0.00000000000E+00 0. -1.
         22   -1    0    0    0    0 -0.00000000000E+00 -0.00000000000E+00 -0.34323065202E+04  0.34323065202E+04  0.00000000000E+00 0. -1.
        -24    2    1    2    0    0 -0.49070048878E+02  0.12720955927E+02 -0.24013652464E+04  0.24031868232E+04  0.78626766926E+02 0.  0.
         25    2    1    2    0    0  0.88495609312E+01 -0.15011311582E+03 -0.91965557795E+03  0.94022716289E+03  0.12509385882E+03 0.  0.
         24    2    1    2    0    0  0.40220487947E+02  0.13739215989E+03 -0.31978649745E+02  0.16819958011E+03  0.82305354981E+02 0.  0.
        -11    1    5    5    0    0  0.14086068709E+02 -0.21118927926E+01 -0.21621258010E+02  0.25891238301E+02  0.00000000000E+00 0.  1.
         12    1    5    5    0    0  0.26134419237E+02  0.13950405268E+03 -0.10357391735E+02  0.14230834181E+03  0.00000000000E+00 0. -1.
         13    1    3    3    0    0 -0.39782925743E+02 -0.14272848807E+02 -0.55722406468E+03  0.55882470745E+03  0.00000000000E+00 0. -1.
        -14    1    3    3    0    0 -0.92871231352E+01  0.26993804734E+02 -0.18441411817E+04  0.18443621158E+04  0.00000000000E+00 0.  1.
          5    1    4    4  501    0  0.33781262840E+02 -0.58380330581E+02 -0.66414322541E+03  0.66757256758E+03  0.41800000000E+01 0. -1.
         -5    1    4    4    0  501 -0.24931701909E+02 -0.91732785238E+02 -0.25551235254E+03  0.27265459532E+03  0.41800000000E+01 0. -1.
</event>
<event>
11    1  0.7882745E-009  0.3335017E+03  0.7561462E-02  0.9869316E-01
         22   -1    0    0    0    0  0.00000000000E+00  0.00000000000E+00  0.53522152099E+03  0.53522152099E+03  0.00000000000E+00 0.  1.
         22   -1    0    0    0    0 -0.00000000000E+00 -0.00000000000E+00 -0.20585316326E+03  0.20585316326E+03  0.00000000000E+00 0.  1.
        -24    2    1    2    0    0 -0.88068079755E+02  0.10702885740E+03 -0.94527406116E+02  0.18716579993E+03  0.82972544670E+02 0.  0.
         25    2    1    2    0    0 -0.24515944251E+02  0.30822126172E+02  0.67380507366E+02  0.14743891467E+03  0.12508823206E+03 0.  0.
         24    2    1    2    0    0  0.11258402401E+03 -0.13785098357E+03  0.35651525648E+03  0.40646996965E+03  0.80228747941E+02 0.  0.
        -11    1    5    5    0    0  0.39383275225E+02 -0.11012255759E+03  0.21391339542E+03  0.24379696634E+03  0.00000000000E+00 0.  1.
         12    1    5    5    0    0  0.73200748782E+02 -0.27728425983E+02  0.14260186106E+03  0.16267300331E+03  0.00000000000E+00 0. -1.
         13    1    3    3    0    0  0.12246897102E+02  0.32899942912E+02 -0.10040304838E+02  0.36513017589E+02  0.00000000000E+00 0. -1.
        -14    1    3    3    0    0 -0.10031497686E+03  0.74128914484E+02 -0.84487101278E+02  0.15065278234E+03  0.00000000000E+00 0.  1.
          5    1    4    4  501    0 -0.49176640608E+02 -0.29737896633E+02  0.64783637128E+01  0.57983843215E+02  0.41800000000E+01 0.  1.
         -5    1    4    4    0  501  0.24660696357E+02  0.60560022805E+02  0.60902143653E+02  0.89455071452E+02  0.41800000000E+01 0.  1.
</event>
<event>
11    1  0.7882745E-009  0.1545640E+03  0.7561462E-02  0.1092304E+00
         22   -1    0    0    0    0  0.00000000000E+00  0.00000000000E+00  0.32443746673E+04  0.32443746673E+04  0.00000000000E+00 0.  1.
         22   -1    0    0    0    0 -0.00000000000E+00 -0.00000000000E+00 -0.53777138952E+02  0.53777138952E+02  0.00000000000E+00 0. -1.
         24    2    1    2    0    0  0.28278625584E+02  0.83146103308E+02  0.33468270425E+02  0.12420525826E+03  0.81202622458E+02 0.  0.
         25    2    1    2    0    0 -0.66986941344E+02 -0.12002138535E+03  0.11778531912E+04  0.11924250306E+04  0.12508769036E+03 0.  0.
        -24    2    1    2    0    0  0.38708315760E+02  0.36875282046E+02  0.19792760667E+04  0.19815215174E+04  0.77689481485E+02 0.  0.
        -11    1    3    3    0    0  0.64411501685E+00  0.43941502389E+01  0.40227782071E+02  0.40472186633E+02  0.00000000000E+00 0.  1.
         12    1    3    3    0    0  0.27634510568E+02  0.78751953069E+02 -0.67595116459E+01  0.83733071627E+02  0.00000000000E+00 0. -1.
         13    1    5    5    0    0  0.32652068464E+02 -0.76419513244E+00  0.29303464755E+03  0.29484919236E+03  0.00000000000E+00 0. -1.
        -14    1    5    5    0    0  0.60562472965E+01  0.37639477178E+02  0.16862414191E+04  0.16866723250E+04  0.00000000000E+00 0.  1.
          5    1    4    4  501    0 -0.61524877801E+00  0.18096777662E+02  0.37899417980E+02  0.42210308883E+02  0.41800000000E+01 0.  1.
         -5    1    4    4    0  501 -0.66371692566E+02 -0.13811816302E+03  0.11399537732E+04  0.11502147217E+04  0.41800000000E+01 0.  1.
</event>
<event>
11    1  0.7882745E-009  0.3251692E+03  0.7561462E-02  0.9900680E-01
         22   -1    0    0    0    0  0.00000000000E+00  0.00000000000E+00  0.79406552181E+03  0.79406552181E+03  0.00000000000E+00 0. -1.
         22   -1    0    0    0    0 -0.00000000000E+00 -0.00000000000E+00 -0.74376413725E+03  0.74376413725E+03  0.00000000000E+00 0. -1.
         24    2    1    2    0    0 -0.54793926982E+02  0.18617124394E+02 -0.50547874342E+03  0.51485678238E+03  0.78865547356E+02 0.  0.
         25    2    1    2    0    0  0.16167132121E+03  0.26133629638E+03 -0.56306654025E+02  0.33653099056E+03  0.12509353465E+03 0.  0.
        -24    2    1    2    0    0 -0.10687739423E+03 -0.27995342078E+03  0.61208678200E+03  0.68644188612E+03  0.82192086734E+02 0.  0.
        -11    1    3    3    0    0 -0.28600845913E+02  0.10426475224E+02 -0.49904246514E+02  0.58456424734E+02  0.00000000000E+00 0.  1.
         12    1    3    3    0    0 -0.26193081070E+02  0.81906491692E+01 -0.45557449690E+03  0.45640035764E+03  0.00000000000E+00 0. -1.
         11    1    5    5    0    0 -0.14030086750E+02 -0.15113278597E+03  0.30988815240E+03  0.34506322512E+03  0.00000000000E+00 0. -1.
        -12    1    5    5    0    0 -0.92847307481E+02 -0.12882063481E+03  0.30219862960E+03  0.34137866100E+03  0.00000000000E+00 0.  1.
          5    1    4    4  501    0  0.27878813974E+02  0.13090779428E+03 -0.66192491139E+02  0.14937535659E+03  0.41800000000E+01 0. -1.
         -5    1    4    4    0  501  0.13379250724E+03  0.13042850210E+03  0.98858371139E+01  0.18715563398E+03  0.41800000000E+01 0. -1.
</event>
<event>
11    1  0.7882745E-009  0.1383141E+03  0.7561462E-02  0.1109456E+00
         22   -1    0    0    0    0  0.00000000000E+00  0.00000000000E+00  0.21802555517E+04  0.21802555517E+04  0.00000000000E+00 0.  1.
         22   -1    0    0    0    0 -0.00000000000E+00 -0.00000000000E+00 -0.27185230789E+03  0.27185230789E+03  0.00000000000E+00 0.  1.
         24    2    1    2    0    0  0.58265406704E+02 -0.12316497979E+02 -0.25237492231E+03  0.27154514670E+03  0.80604662062E+02 0.  0.
         25    2    1    2    0    0 -0.17065520756E+02  0.53072329482E+02  0.54624151642E+03  0.56314782818E+03  0.12509107871E+03 0.  0.
        -24    2    1    2    0    0 -0.41199885949E+02 -0.40755831502E+02  0.16145366497E+04  0.16174148847E+04  0.77096353290E+02 0.  0.
        -13    1    3    3    0    0  0.37557120335E+02 -0.37603563059E+02 -0.21686839968E+03  0.22328561983E+03  0.00000000000E+00 0.  1.
         14    1    3    3    0    0  0.20708286369E+02  0.25287065080E+02 -0.35506522621E+02  0.48259526866E+02  0.00000000000E+00 0. -1.
         11    1    5    5    0    0 -0.32418329852E+02  0.11024927145E+02  0.10164735618E+04  0.10170501458E+04  0.00000000000E+00 0. -1.
        -12    1    5    5    0    0 -0.87815560965E+01 -0.51780758647E+02  0.59806308791E+03  0.60036473899E+03  0.00000000000E+00 0.  1.
          5    1    4    4  501    0 -0.58141718438E+02  0.70295096534E+02  0.33519269603E+03  0.34740966580E+03  0.41800000000E+01 0.  1.
         -5    1    4    4    0  501  0.41076197683E+02 -0.17222767052E+02  0.21104882039E+03  0.21573816239E+03  0.41800000000E+01 0.  1.
</event>
<event>
11    1  0.7882745E-009  0.1614850E+03  0.7561462E-02  0.1085689E+00
         22   -1    0    0    0    0  0.00000000000E+00  0.00000000000E+00  0.23476091427E+03  0.23476091427E+03  0.00000000000E+00 0. -1.
         22   -1    0    0    0    0 -0.00000000000E+00 -0.00000000000E+00 -0.31743220711E+03  0.31743220711E+03  0.00000000000E+00 0.  1.
        -24    2    1    2    0    0 -0.33352274719E+02 -0.91767427490E+01 -0.12737695932E+03  0.15488557610E+03  0.81043599889E+02 0.  0.
         25    2    1    2    0    0  0.82431422563E+02  0.94878002406E+02 -0.10109674489E+03  0.20412845962E+03  0.12510436216E+03 0.  0.
         24    2    1    2    0    0 -0.49079147844E+02 -0.85701259657E+02  0.14580241137E+03  0.19317908566E+03  0.79412513595E+02 0.  0.
        -13    1    5    5    0    0 -0.42500157680E+02 -0.86548374865E+02  0.75232356268E+02  0.12229796410E+03  0.00000000000E+00 0.  1.
         14    1    5    5    0    0 -0.65789901648E+01  0.84711520803E+00  0.70570055106E+02  0.70881121559E+02  0.00000000000E+00 0. -1.
         11    1    3    3    0    0 -0.30403347574E+02 -0.69099061833E+01 -0.39789828360E+01  0.31431555029E+02  0.00000000000E+00 0. -1.
        -12    1    3    3    0    0 -0.29489271450E+01 -0.22668365657E+01 -0.12339797648E+03  0.12345402107E+03  0.00000000000E+00 0.  1.
          5    1    4    4  501    0  0.10524086472E+03  0.10653307842E+03 -0.95249935631E+02  0.17752453082E+03  0.41800000000E+01 0.  1.
         -5    1    4    4    0  501 -0.22809442160E+02 -0.11655076019E+02 -0.58468092595E+01  0.26603928792E+02  0.41800000000E+01 0.  1.
</event>
<event>
11    1  0.7882745E-009  0.1359224E+03  0.7561462E-02  0.1112199E+00
         22   -1    0    0    0    0  0.00000000000E+00  0.00000000000E+00  0.19507251941E+03  0.19507251941E+03  0.00000000000E+00 0. -1.
         22   -1    0    0    0    0 -0.00000000000E+00 -0.00000000000E+00 -0.22914970838E+03  0.22914970838E+03  0.00000000000E+00 0. -1.
        -24    2    1    2    0    0  0.77817322401E+01  0.24481213851E+02 -0.14007424168E+03  0.16312650351E+03  0.79558643641E+02 0.  0.
         25    2    1    2    0    0  0.47131885612E+02  0.36794586126E+01  0.82387632595E+02  0.15706590008E+03  0.12508805661E+03 0.  0.
         24    2    1    2    0    0 -0.54913617852E+02 -0.28160672463E+02  0.23609420116E+02  0.10402982420E+03  0.80350922245E+02 0.  0.
        -13    1    5    5    0    0 -0.16932032335E+02  0.14507400648E+02 -0.21703561346E+02  0.31115960015E+02  0.00000000000E+00 0.  1.
         14    1    5    5    0    0 -0.37981585517E+02 -0.42668073111E+02  0.45312981462E+02  0.72913864185E+02  0.00000000000E+00 0. -1.
         13    1    3    3    0    0  0.77859523177E+01  0.34034525763E+02 -0.14715188847E+03  0.15123705986E+03  0.00000000000E+00 0. -1.
        -14    1    3    3    0    0 -0.42200775522E-02 -0.95533119127E+01  0.70776467842E+01  0.11889443650E+02  0.00000000000E+00 0.  1.
          5    1    4    4  501    0 -0.19394260192E+02  0.43298227283E+02  0.59503913707E+02  0.76217202525E+02  0.41800000000E+01 0. -1.
         -5    1    4    4    0  501  0.66526145804E+02 -0.39618768670E+02  0.22883718888E+02  0.80848697557E+02  0.41800000000E+01 0. -1.
</event>
<event>
11    1  0.7882745E-009  0.1253165E+03  0.7561462E-02  0.1125161E+00
         22   -1    0    0    0    0  0.00000000000E+00  0.00000000000E+00  0.76013047937E+03  0.76013047937E+03  0.00000000000E+00 0. -1.
         22   -1    0    0    0    0 -0.00000000000E+00 -0.00000000000E+00 -0.32660634130E+03  0.32660634130E+03  0.00000000000E+00 0.  1.
        -24    2    1    2    0    0 -0.30332705396E+01  0.68459655606E+01 -0.28867854580E+03  0.30201234620E+03  0.88431252836E+02 0.  0.
         25    2    1    2    0    0  0.72406119612E+00 -0.86503148260E+01  0.10915160716E+03  0.16624404627E+03  0.12509059662E+03 0.  0.
         24    2    1    2    0    0  0.23092093434E+01  0.18043492654E+01  0.61305107671E+03  0.61848042820E+03  0.81717986346E+02 0.  0.
        -13    1    5    5    0    0  0.14480905049E+02  0.35488649202E+02  0.18473273222E+03  0.18866722871E+03  0.00000000000E+00 0.  1.
         14    1    5    5    0    0 -0.12171695706E+02 -0.33684299936E+02  0.42831834448E+03  0.42981319949E+03  0.00000000000E+00 0. -1.
         11    1    3    3    0    0  0.34558988340E+02  0.12438763415E+02 -0.61160841361E+02  0.71342098556E+02  0.00000000000E+00 0. -1.
        -12    1    3    3    0    0 -0.37592258880E+02 -0.55927978541E+01 -0.22751770444E+03  0.23067024764E+03  0.00000000000E+00 0.  1.
          5    1    4    4  501    0 -0.21376326491E+02 -0.26703378453E+02 -0.15870111616E+02  0.37938774331E+02  0.41800000000E+01 0. -1.
         -5    1    4    4    0  501  0.22100387687E+02  0.18053063627E+02  0.12502171877E+03  0.12830527194E+03  0.41800000000E+01 0. -1.
</event>
<event>
11    1  0.7882745E-009  0.2238599E+03  0.7561462E-02  0.1038826E+00
         22   -1    0    0    0    0  0.00000000000E+00  0.00000000000E+00  0.11097068375E+03  0.11097068375E+03  0.00000000000E+00 0. -1.
         22   -1    0    0    0    0 -0.00000000000E+00 -0.00000000000E+00 -0.21296967689E+04  0.21296967689E+04  0.00000000000E+00 0.  1.
        -24    2    1    2    0    0  0.18866800845E+03 -0.35519263825E+02 -0.14804805952E+04  0.14951275218E+04  0.82013890836E+02 0.  0.
         25    2    1    2    0    0 -0.16763124231E+03  0.29181613001E+02 -0.60369172031E+03  0.63956458438E+03  0.12508942595E+03 0.  0.
         24    2    1    2    0    0 -0.21036766144E+02  0.63376508239E+01  0.65446230372E+02  0.10597534642E+03  0.80404313514E+02 0.  0.
        -13    1    5    5    0    0  0.21016520152E+02  0.34047209242E+01 -0.67825183890E+01  0.22344771190E+02  0.00000000000E+00 0.  1.
         14    1    5    5    0    0 -0.42053286295E+02  0.29329298997E+01  0.72228748761E+02  0.83630575232E+02  0.00000000000E+00 0. -1.
         11    1    3    3    0    0  0.57356950951E+01 -0.11526727887E+02 -0.30359350586E+03  0.30386638586E+03  0.00000000000E+00 0. -1.
        -12    1    3    3    0    0  0.18293231336E+03 -0.23992535939E+02 -0.11768870893E+04  0.11912611360E+04  0.00000000000E+00 0.  1.
          5    1    4    4  501    0  0.15138919335E+02 -0.16263383702E+02 -0.73631185153E+02  0.77024076464E+02  0.41800000000E+01 0.  1.
         -5    1    4    4    0  501 -0.18277016165E+03  0.45444996704E+02 -0.53006053516E+03  0.56254050792E+03  0.41800000000E+01 0.  1.
</event>
<event>
11    1  0.7882745E-009  0.1435127E+03  0.7561462E-02  0.1103698E+00
         22   -1    0    0    0    0  0.00000000000E+00  0.00000000000E+00  0.47077704516E+03  0.47077704516E+03  0.00000000000E+00 0. -1.
         22   -1    0    0    0    0 -0.00000000000E+00 -0.00000000000E+00 -0.13748261435E+04  0.13748261435E+04  0.00000000000E+00 0. -1.
        -24    2    1    2    0    0  0.31435797107E+02  0.28768360097E+02 -0.11588772549E+04  0.11625603650E+04  0.82062674047E+02 0.  0.
         25    2    1    2    0    0 -0.58770689708E+01  0.38014348096E+02 -0.18693432259E+03  0.22819213126E+03  0.12509027624E+03 0.  0.
         24    2    1    2    0    0 -0.25558728136E+02 -0.66782708194E+02  0.44176247917E+03  0.45485069238E+03  0.81374969485E+02 0.  0.
        -13    1    5    5    0    0 -0.84648464639E+01 -0.37155865227E+02  0.56966835080E+02  0.68537816170E+02  0.00000000000E+00 0.  1.
         14    1    5    5    0    0 -0.17093881672E+02 -0.29626842967E+02  0.38479564409E+03  0.38631287621E+03  0.00000000000E+00 0. -1.
         13    1    3    3    0    0 -0.38229181510E+01  0.48774965007E+02 -0.77660575142E+03  0.77814529816E+03  0.00000000000E+00 0. -1.
        -14    1    3    3    0    0  0.35258715258E+02 -0.20006604910E+02 -0.38227150348E+03  0.38441506684E+03  0.00000000000E+00 0.  1.
          5    1    4    4  501    0  0.27825618070E+02  0.89699867172E+01  0.60118995398E+01  0.30138696368E+02  0.41800000000E+01 0. -1.
         -5    1    4    4    0  501 -0.33702687040E+02  0.29044361379E+02 -0.19294622213E+03  0.19805343490E+03  0.41800000000E+01 0. -1.
</event>
<event>
11    1  0.7882745E-009  0.2283602E+03  0.7561462E-02  0.1036103E+00
         22   -1    0    0    0    0  0.00000000000E+00  0.00000000000E+00  0.49260129351E+03  0.49260129351E+03  0.00000000000E+00 0.  1.
         22   -1    0    0    0    0 -0.00000000000E+00 -0.00000000000E+00 -0.30024186215E+03  0.30024186215E+03  0.00000000000E+00 0. -1.
        -24    2    1    2    0    0  0.14851936200E+03 -0.13194072445E+03 -0.16675062250E+03  0.27205776064E+03  0.82117594731E+02 0.  0.
         25    2    1    2    0    0 -0.31719760194E+02  0.18308495915E+03  0.23268167369E+03  0.32297624501E+03  0.12508656247E+03 0.  0.
         24    2    1    2    0    0 -0.11679960180E+03 -0.51144234703E+02  0.12642838016E+03  0.19780915002E+03  0.82984605792E+02 0.  0.
        -11    1    5    5    0    0 -0.33503716298E+02 -0.29717451839E+02  0.97114521715E+02  0.10694323858E+03  0.00000000000E+00 0.  1.
         12    1    5    5    0    0 -0.83295885504E+02 -0.21426782864E+02  0.29313858445E+02  0.90865911445E+02  0.00000000000E+00 0. -1.
         11    1    3    3    0    0  0.71213187848E+02 -0.88971781027E+02 -0.47206573764E+02  0.12335216475E+03  0.00000000000E+00 0. -1.
        -12    1    3    3    0    0  0.77306174148E+02 -0.42968943421E+02 -0.11954404873E+03  0.14870559588E+03  0.00000000000E+00 0.  1.
          5    1    4    4  501    0 -0.17431375487E+02 -0.10387890291E+02  0.96383459890E+00  0.20740359042E+02  0.41800000000E+01 0.  1.
         -5    1    4    4    0  501 -0.14288384706E+02  0.19347284944E+03  0.23171783910E+03  0.30223588596E+03  0.41800000000E+01 0.  1.
</event>
<event>
11    1  0.7882745E-009  0.1810119E+03  0.7561462E-02  0.1068827E+00
         22   -1    0    0    0    0  0.00000000000E+00  0.00000000000E+00  0.10229404380E+04  0.10229404380E+04  0.00000000000E+00 0. -1.
         22   -1    0    0    0    0 -0.00000000000E+00 -0.00000000000E+00 -0.10703786674E+04  0.10703786674E+04  0.00000000000E+00 0. -1.
         24    2    1    2    0    0 -0.58472972845E+02 -0.11680690562E+03 -0.91398520676E+03  0.92676124585E+03  0.80339945689E+02 0.  0.
         25    2    1    2    0    0  0.11699433561E+03  0.88386466964E+02 -0.84144545111E+02  0.21030434134E+03  0.12509104448E+03 0.  0.
        -24    2    1    2    0    0 -0.58521362764E+02  0.28420438653E+02  0.95069152241E+03  0.95625351823E+03  0.79837015945E+02 0.  0.
        -11    1    3    3    0    0  0.26485894763E+01 -0.94407924344E+01 -0.87728653088E+01  0.13157003980E+02  0.00000000000E+00 0.  1.
         12    1    3    3    0    0 -0.61121562322E+02 -0.10736611318E+03 -0.90521234145E+03  0.91360424187E+03  0.00000000000E+00 0. -1.
         11    1    5    5    0    0 -0.59943250450E+02 -0.67069502388E+01  0.75685304113E+03  0.75925272625E+03  0.00000000000E+00 0. -1.
        -12    1    5    5    0    0  0.14218876858E+01  0.35127388892E+02  0.19383848128E+03  0.19700079198E+03  0.00000000000E+00 0.  1.
          5    1    4    4  501    0  0.99884446852E+02  0.95233270018E+02 -0.15303861896E+02  0.13891709409E+03  0.41800000000E+01 0. -1.
         -5    1    4    4    0  501  0.17109888758E+02 -0.68468030539E+01 -0.68840683214E+02  0.71387247256E+02  0.41800000000E+01 0. -1.
</event>
<event>
11    1  0.7882745E-009  0.1746854E+03  0.7561462E-02  0.1074025E+00
         22   -1    0    0    0    0  0.00000000000E+00  0.00000000000E+00  0.18895963380E+03  0.18895963380E+03  0.00000000000E+00 0. -1.
         22   -1    0    0    0    0 -0.00000000000E+00 -0.00000000000E+00 -0.30482717492E+04  0.30482717492E+04  0.00000000000E+00 0.  1.
        -24    2    1    2    0    0 -0.37302739049E+02  0.40670607103E+02 -0.27924921242E+04  0.27941199984E+04  0.77773447786E+02 0.  0.
         25    2    1    2    0    0  0.84977674330E+02 -0.14454036575E+03 -0.16779272788E+03  0.26816990418E+03  0.12509026946E+03 0.  0.
         24    2    1    2    0    0 -0.47674935281E+02  0.10386975865E+03  0.10097273665E+03  0.17494148043E+03  0.85715820084E+02 0.  0.
        -11    1    5    5    0    0 -0.67767762658E+02  0.81297605757E+02  0.53310510179E+02  0.11850645912E+03  0.00000000000E+00 0.  1.
         12    1    5    5    0    0  0.20092827376E+02  0.22572152894E+02  0.47662226473E+02  0.56435021313E+02  0.00000000000E+00 0. -1.
         11    1    3    3    0    0 -0.12815499329E+01 -0.19670685080E+02 -0.30557378286E+03  0.30620894009E+03  0.00000000000E+00 0. -1.
        -12    1    3    3    0    0 -0.36021189116E+02  0.60341292182E+02 -0.24869183413E+04  0.24879110583E+04  0.00000000000E+00 0.  1.
          5    1    4    4  501    0 -0.30979583641E+02 -0.47276457815E+02 -0.58391563004E+02  0.81374720253E+02  0.41800000000E+01 0.  1.
         -5    1    4    4    0  501  0.11595725797E+03 -0.97263907938E+02 -0.10940116488E+03  0.18679518393E+03  0.41800000000E+01 0.  1.
</event>
<event>
11    1  0.7882745E-009  0.2264241E+03  0.7561462E-02  0.1037266E+00
         22   -1    0    0    0    0  0.00000000000E+00  0.00000000000E+00  0.60804458669E+03  0.60804458669E+03  0.00000000000E+00 0. -1.
         22   -1    0    0    0    0 -0.00000000000E+00 -0.00000000000E+00 -0.74038332418E+03  0.74038332418E+03  0.00000000000E+00 0.  1.
         24    2    1    2    0    0 -0.24312573902E+02  0.18856168184E+03 -0.67604705041E+03  0.70690428357E+03  0.80792590351E+02 0.  0.
         25    2    1    2    0    0 -0.98740682297E+00 -0.16816084213E+03  0.20196838758E+03  0.29105581849E+03  0.12507284318E+03 0.  0.
        -24    2    1    2    0    0  0.25299980725E+02 -0.20400839710E+02  0.34173992534E+03  0.35046780881E+03  0.70606126881E+02 0.  0.
        -13    1    3    3    0    0 -0.91875165590E+01  0.17733504150E+03 -0.51489076070E+03  0.54465091835E+03  0.00000000000E+00 0.  1.
         14    1    3    3    0    0 -0.15125057343E+02  0.11226640341E+02 -0.16115628971E+03  0.16225336522E+03  0.00000000000E+00 0. -1.
         11    1    5    5    0    0 -0.14785149247E+02 -0.22481557623E+02  0.23313691982E+03  0.23468456374E+03  0.00000000000E+00 0. -1.
        -12    1    5    5    0    0  0.40085129972E+02  0.20807179133E+01  0.10860300552E+03  0.11578324507E+03  0.00000000000E+00 0.  1.
          5    1    4    4  501    0  0.32672397178E+02 -0.53664697821E+01  0.74162566416E+02  0.81325538379E+02  0.41800000000E+01 0. -1.
         -5    1    4    4    0  501 -0.33659804001E+02 -0.16279437235E+03  0.12780582116E+03  0.20973028012E+03  0.41800000000E+01 0. -1.
</event>
<event>
11    1  0.7882745E-009  0.1255702E+03  0.7561462E-02  0.1124835E+00
         22   -1    0    0    0    0  0.00000000000E+00  0.00000000000E+00  0.63705903786E+02  0.63705903786E+02  0.00000000000E+00 0.  1.
         22   -1    0    0    0    0 -0.00000000000E+00 -0.00000000000E+00 -0.75452783738E+03  0.75452783738E+03  0.00000000000E+00 0.  1.
        -24    2    1    2    0    0  0.12698542370E+02 -0.75490038869E+01 -0.39555559838E+03  0.40402540548E+03  0.80957127078E+02 0.  0.
         25    2    1    2    0    0 -0.38221785576E-01  0.25108147775E+00 -0.30683253666E+03  0.33134979646E+03  0.12508564090E+03 0.  0.
         24    2    1    2    0    0 -0.12660320585E+02  0.72979224092E+01  0.11566201443E+02  0.82858539229E+02  0.80735476208E+02 0.  0.
        -11    1    5    5    0    0  0.28335665107E+02  0.23462758580E+02  0.12282404979E+02  0.38784899501E+02  0.00000000000E+00 0.  1.
         12    1    5    5    0    0 -0.40995985692E+02 -0.16164836171E+02 -0.71620353578E+00  0.44073639727E+02  0.00000000000E+00 0. -1.
         11    1    3    3    0    0  0.20398445341E+02 -0.41833963280E+02 -0.20060974084E+03  0.20593796438E+03  0.00000000000E+00 0. -1.
        -12    1    3    3    0    0 -0.76999029704E+01  0.34284959393E+02 -0.19494585754E+03  0.19808744109E+03  0.00000000000E+00 0.  1.
          5    1    4    4  501    0 -0.35801402373E+01  0.51933497031E+02 -0.24533776967E+03  0.25083460516E+03  0.41800000000E+01 0. -1.
         -5    1    4    4    0  501  0.35419184517E+01 -0.51682415553E+02 -0.61494766993E+02  0.80515191308E+02  0.41800000000E+01 0. -1.
</event>
<event>
11    1  0.7882745E-009  0.1386977E+03  0.7561462E-02  0.1109021E+00
         22   -1    0    0    0    0  0.00000000000E+00  0.00000000000E+00  0.16903630254E+04  0.16903630254E+04  0.00000000000E+00 0. -1.
         22   -1    0    0    0    0 -0.00000000000E+00 -0.00000000000E+00 -0.12209345322E+04  0.12209345322E+04  0.00000000000E+00 0. -1.
        -24    2    1    2    0    0  0.48901447934E+02  0.23295105658E+02 -0.95903923325E+03  0.96415028680E+03  0.83039213966E+02 0.  0.
         25    2    1    2    0    0 -0.59526623962E+02  0.35750457530E+02 -0.23798212317E+03  0.27767726371E+03  0.12509059781E+03 0.  0.
         24    2    1    2    0    0  0.10625176028E+02 -0.59045563188E+02  0.16664498496E+04  0.16694700071E+04  0.80471924639E+02 0.  0.
        -11    1    5    5    0    0  0.35913215619E+01 -0.98023973146E+01  0.22897232100E+02  0.25164813163E+02  0.00000000000E+00 0.  1.
         12    1    5    5    0    0  0.70338544658E+01 -0.49243165873E+02  0.16435526175E+04  0.16443051939E+04  0.00000000000E+00 0. -1.
         13    1    3    3    0    0  0.54852007026E+02  0.28074712273E+02 -0.95125457890E+03  0.95324823945E+03  0.00000000000E+00 0. -1.
        -14    1    3    3    0    0 -0.59505590916E+01 -0.47796066147E+01 -0.77846543535E+01  0.10902047344E+02  0.00000000000E+00 0.  1.
          5    1    4    4  501    0 -0.75569388880E+02 -0.23455027152E+02 -0.10863747988E+03  0.13446354624E+03  0.41800000000E+01 0. -1.
         -5    1    4    4    0  501  0.16042764918E+02  0.59205484682E+02 -0.12934464329E+03  0.14321371747E+03  0.41800000000E+01 0. -1.
</event>
<event>
11    1  0.7882745E-009  0.1450784E+03  0.7561462E-02  0.1102016E+00
         22   -1    0    0    0    0  0.00000000000E+00  0.00000000000E+00  0.65587926805E+03  0.65587926805E+03  0.00000000000E+00 0.  1.
         22   -1    0    0    0    0 -0.00000000000E+00 -0.00000000000E+00 -0.11740260939E+04  0.11740260939E+04  0.00000000000E+00 0.  1.
        -24    2    1    2    0    0  0.66316679335E+02 -0.32381066111E+02 -0.10617025195E+04  0.10673173460E+04  0.80669955464E+02 0.  0.
         25    2    1    2    0    0 -0.39259781354E+02  0.71948444480E+02 -0.53632424054E+02  0.15887643655E+03  0.12508947232E+03 0.  0.
         24    2    1    2    0    0 -0.27056897981E+02 -0.39567378369E+02  0.59718811769E+03  0.60371157943E+03  0.74406787738E+02 0.  0.
        -13    1    5    5    0    0 -0.33304641871E+02 -0.48645433074E+02  0.58182785174E+03  0.58480699927E+03  0.00000000000E+00 0.  1.
         14    1    5    5    0    0  0.62477438905E+01  0.90780547050E+01  0.15360265951E+02  0.18904580160E+02  0.00000000000E+00 0. -1.
         13    1    3    3    0    0  0.16627449775E+02  0.20593106786E+02 -0.12333054791E+03  0.12613870216E+03  0.00000000000E+00 0. -1.
        -14    1    3    3    0    0  0.49689229560E+02 -0.52974172896E+02 -0.93837197160E+03  0.94117864384E+03  0.00000000000E+00 0.  1.
          5    1    4    4  501    0  0.13248241291E+02 -0.30724581967E+02 -0.17282998627E+02  0.37890503769E+02  0.41800000000E+01 0.  1.
         -5    1    4    4    0  501 -0.52508022646E+02  0.10267302645E+03 -0.36349425427E+02  0.12098593278E+03  0.41800000000E+01 0.  1.
</event>
<event>
11    1  0.7882745E-009  0.1477486E+03  0.7561462E-02  0.1099202E+00
         22   -1    0    0    0    0  0.00000000000E+00  0.00000000000E+00  0.82808615646E+03  0.82808615646E+03  0.00000000000E+00 0.  1.
         22   -1    0    0    0    0 -0.00000000000E+00 -0.00000000000E+00 -0.36884401270E+03  0.36884401270E+03  0.00000000000E+00 0.  1.
         24    2    1    2    0    0 -0.23900527891E+01  0.24192038027E+02 -0.33409024737E+03  0.34451371872E+03  0.80513613417E+02 0.  0.
         25    2    1    2    0    0 -0.52183746276E+02 -0.77005206973E+02  0.22430202399E+03  0.27315060729E+03  0.12508761338E+03 0.  0.
        -24    2    1    2    0    0  0.54573799065E+02  0.52813168946E+02  0.56903036713E+03  0.57926584315E+03  0.77368132737E+02 0.  0.
        -11    1    3    3    0    0 -0.18813300413E+02  0.38795521832E+02 -0.30511734793E+03  0.30814871214E+03  0.00000000000E+00 0.  1.
         12    1    3    3    0    0  0.16423247624E+02 -0.14603483805E+02 -0.28972899435E+02  0.36365006578E+02  0.00000000000E+00 0. -1.
         11    1    5    5    0    0  0.10990173278E+01 -0.17450961739E+02  0.15118763201E+03  0.15219541378E+03  0.00000000000E+00 0. -1.
        -12    1    5    5    0    0  0.53474781738E+02  0.70264130685E+02  0.41784273513E+03  0.42707042937E+03  0.00000000000E+00 0.  1.
          5    1    4    4  501    0  0.34550898929E+02 -0.13500630918E+02  0.20229589516E+02  0.42458689852E+02  0.41800000000E+01 0. -1.
         -5    1    4    4    0  501 -0.86734645205E+02 -0.63504576055E+02  0.20407243447E+03  0.23069191744E+03  0.41800000000E+01 0. -1.
</event>
<event>
11    1  0.7882745E-009  0.1311356E+03  0.7561462E-02  0.1117881E+00
         22   -1    0    0    0    0  0.00000000000E+00  0.00000000000E+00  0.20735917024E+04  0.20735917024E+04  0.00000000000E+00 0.  1.
         22   -1    0    0    0    0 -0.00000000000E+00 -0.00000000000E+00 -0.23027338534E+03  0.23027338534E+03  0.00000000000E+00 0.  1.
        -24    2    1    2    0    0 -0.17704932667E+02  0.36194568703E+02 -0.19541818602E+03  0.21444477926E+03  0.78579796888E+02 0.  0.
         25    2    1    2    0    0  0.36871421620E+02 -0.58455920423E+01  0.15090212772E+03  0.19953179249E+03  0.12509121226E+03 0.  0.
         24    2    1    2    0    0 -0.19166488953E+02 -0.30348976661E+02  0.18878343753E+04  0.18898885160E+04  0.80446002862E+02 0.  0.
        -11    1    5    5    0    0 -0.22407208348E+02 -0.16105060595E+02  0.18309658625E+04  0.18311737891E+04  0.00000000000E+00 0.  1.
         12    1    5    5    0    0  0.32407193942E+01 -0.14243916066E+02  0.56868512797E+02  0.58714726900E+02  0.00000000000E+00 0. -1.
         11    1    3    3    0    0  0.18264398710E+02 -0.35583333436E+01 -0.12268877006E+03  0.12409183815E+03  0.00000000000E+00 0. -1.
        -12    1    3    3    0    0 -0.35969331377E+02  0.39752902047E+02 -0.72729415959E+02  0.90352941107E+02  0.00000000000E+00 0.  1.
          5    1    4    4  501    0  0.55823371209E+02 -0.54264239487E+02  0.98117402461E+02  0.12532100193E+03  0.41800000000E+01 0.  1.
         -5    1    4    4    0  501 -0.18951949588E+02  0.48418647444E+02  0.52784725262E+02  0.74210790553E+02  0.41800000000E+01 0.  1.
</event>
<event>
11    1  0.7882745E-009  0.1538241E+03  0.7561462E-02  0.1093034E+00
         22   -1    0    0    0    0  0.00000000000E+00  0.00000000000E+00  0.78916616506E+03  0.78916616506E+03  0.00000000000E+00 0. -1.
         22   -1    0    0    0    0 -0.00000000000E+00 -0.00000000000E+00 -0.10805942273E+04  0.10805942273E+04  0.00000000000E+00 0.  1.
         24    2    1    2    0    0 -0.41592689871E+02  0.80554716976E+02 -0.96557220685E+03  0.97331442514E+03  0.82415224737E+02 0.  0.
         25    2    1    2    0    0  0.88131994708E+02 -0.34800564191E+02 -0.50087287659E+02  0.16472486947E+03  0.12508884234E+03 0.  0.
        -24    2    1    2    0    0 -0.46539304836E+02 -0.45754152785E+02  0.72423143230E+03  0.73172109772E+03  0.81518390080E+02 0.  0.
        -13    1    3    3    0    0  0.23965130612E+02  0.20162154773E+02 -0.33728479675E+03  0.33873569946E+03  0.00000000000E+00 0.  1.
         14    1    3    3    0    0 -0.65557820484E+02  0.60392562203E+02 -0.62828741010E+03  0.63457872568E+03  0.00000000000E+00 0. -1.
         11    1    5    5    0    0 -0.51955241975E+02 -0.64436759290E+02  0.63647093734E+03  0.64183073874E+03  0.00000000000E+00 0. -1.
        -12    1    5    5    0    0  0.54159371389E+01  0.18682606505E+02  0.87760494960E+02  0.89890358975E+02  0.00000000000E+00 0.  1.
          5    1    4    4  501    0  0.19794385836E+02 -0.70704661585E+02 -0.17781333511E+01  0.73563585004E+02  0.41800000000E+01 0.  1.
         -5    1    4    4    0  501  0.68337608872E+02  0.35904097394E+02 -0.48309154308E+02  0.91161284468E+02  0.41800000000E+01 0.  1.
</event>
<event>
11    1  0.7882745E-009  0.1841669E+03  0.7561462E-02  0.1066321E+00
         22   -1    0    0    0    0  0.00000000000E+00  0.00000000000E+00  0.18085995991E+03  0.18085995991E+03  0.00000000000E+00 0. -1.
         22   -1    0    0    0    0 -0.00000000000E+00 -0.00000000000E+00 -0.66099796173E+03  0.66099796173E+03  0.00000000000E+00 0.  1.
        -24    2    1    2    0    0 -0.12168325057E+03 -0.66065925556E+02 -0.49101405611E+03  0.51651078420E+03  0.80728352585E+02 0.  0.
         25    2    1    2    0    0  0.92856488184E+02  0.81448457913E+02 -0.86026200557E+02  0.19571517115E+03  0.12509093629E+03 0.  0.
         24    2    1    2    0    0  0.28826762390E+02 -0.15382532357E+02  0.96902254839E+02  0.12963196629E+03  0.79666775758E+02 0.  0.
        -13    1    5    5    0    0  0.54142404871E+02  0.28711239880E+00  0.47880836216E+02  0.72277637728E+02  0.00000000000E+00 0.  1.
         14    1    5    5    0    0 -0.25315642481E+02 -0.15669644756E+02  0.49021418623E+02  0.57354328562E+02  0.00000000000E+00 0. -1.
         11    1    3    3    0    0 -0.48680415510E+02 -0.41815537348E+01 -0.74137109837E+02  0.88789522472E+02  0.00000000000E+00 0. -1.
        -12    1    3    3    0    0 -0.73002835064E+02 -0.61884371821E+02 -0.41687694627E+03  0.42772126173E+03  0.00000000000E+00 0.  1.
          5    1    4    4  501    0 -0.25408630792E+00 -0.23608814738E+02  0.95788309983E+01  0.25819897298E+02  0.41800000000E+01 0.  1.
         -5    1    4    4    0  501  0.93110574491E+02  0.10505727265E+03 -0.95605031556E+02  0.16989527385E+03  0.41800000000E+01 0.  1.
</event>
<event>
11    1  0.7882745E-009  0.1445263E+03  0.7561462E-02  0.1102607E+00
         22   -1    0    0    0    0  0.00000000000E+00  0.00000000000E+00  0.12274928321E+03  0.12274928321E+03  0.00000000000E+00 0. -1.
         22   -1    0    0    0    0 -0.00000000000E+00 -0.00000000000E+00 -0.23136005197E+04  0.23136005197E+04  0.00000000000E+00 0. -1.
        -24    2    1    2    0    0 -0.71441006041E+02 -0.22176976535E+02 -0.19457061838E+04  0.19487131756E+04  0.78197516555E+02 0.  0.
         25    2    1    2    0    0  0.55052920263E+02 -0.70412866697E+01 -0.33564339800E+03  0.36246979979E+03  0.12508981329E+03 0.  0.
         24    2    1    2    0    0  0.16388085779E+02  0.29218263205E+02  0.90498345283E+02  0.12516682752E+03  0.79715167645E+02 0.  0.
        -11    1    5    5    0    0  0.36973353225E+02 -0.84226654138E+01  0.20606280755E+02  0.43157721765E+02  0.00000000000E+00 0.  1.
         12    1    5    5    0    0 -0.20585267446E+02  0.37640928619E+02  0.69892064527E+02  0.82009105756E+02  0.00000000000E+00 0. -1.
         11    1    3    3    0    0 -0.61071223779E+02 -0.45384156708E+02 -0.16985456213E+04  0.17002489947E+04  0.00000000000E+00 0. -1.
        -12    1    3    3    0    0 -0.10369782263E+02  0.23207180173E+02 -0.24716056245E+03  0.24846418098E+03  0.00000000000E+00 0.  1.
          5    1    4    4  501    0  0.81333718417E+02  0.10349164232E+02 -0.31261691856E+03  0.32321678347E+03  0.41800000000E+01 0.  1.
         -5    1    4    4    0  501 -0.26280798154E+02 -0.17390450902E+02 -0.23026479448E+02  0.39253016317E+02  0.41800000000E+01 0.  1.
</event>
<event>
11    1  0.7882745E-009  0.1768850E+03  0.7561462E-02  0.1072191E+00
         22   -1    0    0    0    0  0.00000000000E+00  0.00000000000E+00  0.17924116162E+03  0.17924116162E+03  0.00000000000E+00 0. -1.
         22   -1    0    0    0    0 -0.00000000000E+00 -0.00000000000E+00 -0.28079305690E+04  0.28079305690E+04  0.00000000000E+00 0. -1.
         24    2    1    2    0    0 -0.53801270859E+02  0.53018841626E+02 -0.26195377187E+04  0.26218226775E+04  0.79187865218E+02 0.  0.
         25    2    1    2    0    0  0.11881224229E+03  0.58347733956E+02 -0.52697426825E+02  0.18959294745E+03  0.12509060697E+03 0.  0.
        -24    2    1    2    0    0 -0.65010971431E+02 -0.11136657558E+03  0.43545738192E+02  0.17575610567E+03  0.11119818705E+03 0.  0.
        -11    1    3    3    0    0 -0.22142965255E+02  0.16798856575E+02 -0.21318908192E+03  0.21499324906E+03  0.00000000000E+00 0.  1.
         12    1    3    3    0    0 -0.31658305605E+02  0.36219985052E+02 -0.24063486368E+04  0.24068294284E+04  0.00000000000E+00 0. -1.
         11    1    5    5    0    0 -0.97492721133E+01 -0.44249313879E+02  0.71312343070E+02  0.84489646464E+02  0.00000000000E+00 0. -1.
        -12    1    5    5    0    0 -0.55261699318E+02 -0.67117261703E+02 -0.27766604878E+02  0.91266459209E+02  0.00000000000E+00 0.  1.
          5    1    4    4  501    0  0.14003205731E+03  0.70400204867E+02 -0.50572100152E+02  0.16474275594E+03  0.41800000000E+01 0.  1.
         -5    1    4    4    0  501 -0.21219815020E+02 -0.12052470911E+02 -0.21253266732E+01  0.24850191509E+02  0.41800000000E+01 0.  1.
</event>
<event>
11    1  0.7882745E-009  0.1624887E+03  0.7561462E-02  0.1084760E+00
         22   -1    0    0    0    0  0.00000000000E+00  0.00000000000E+00  0.28068241723E+03  0.28068241723E+03  0.00000000000E+00 0. -1.
         22   -1    0    0    0    0 -0.00000000000E+00 -0.00000000000E+00 -0.38905366155E+03  0.38905366155E+03  0.00000000000E+00 0. -1.
         24    2    1    2    0    0 -0.18897974924E+02 -0.22525268649E+02 -0.28756740233E+03  0.30018292420E+03  0.80933651334E+02 0.  0.
         25    2    1    2    0    0  0.22208656292E+02  0.12023570390E+03  0.36327392085E+02  0.17865184162E+03  0.12508777794E+03 0.  0.
        -24    2    1    2    0    0 -0.33106813686E+01 -0.97710435249E+02  0.14286876593E+03  0.19090131296E+03  0.80458295057E+02 0.  0.
        -13    1    3    3    0    0  0.11879640544E+02  0.32818616647E+01 -0.28545618427E+01  0.12650889248E+02  0.00000000000E+00 0.  1.
         14    1    3    3    0    0 -0.30777615468E+02 -0.25807130313E+02 -0.28471284048E+03  0.28753203495E+03  0.00000000000E+00 0. -1.
         11    1    5    5    0    0  0.27730806237E+02 -0.58135929008E+02  0.11881099695E+03  0.13514746336E+03  0.00000000000E+00 0. -1.
        -12    1    5    5    0    0 -0.31041487605E+02 -0.39574506241E+02  0.24057768980E+02  0.55753849600E+02  0.00000000000E+00 0.  1.
          5    1    4    4  501    0  0.40694755521E+02  0.89400163460E+02 -0.30256865119E+02  0.10286594500E+03  0.41800000000E+01 0. -1.
         -5    1    4    4    0  501 -0.18486099229E+02  0.30835540438E+02  0.66584257203E+02  0.75785896618E+02  0.41800000000E+01 0. -1.
</event>
<event>
11    1  0.7882745E-009  0.1751595E+03  0.7561462E-02  0.1073627E+00
         22   -1    0    0    0    0  0.00000000000E+00  0.00000000000E+00  0.11609300680E+04  0.11609300680E+04  0.00000000000E+00 0.  1.
         22   -1    0    0    0    0 -0.00000000000E+00 -0.00000000000E+00 -0.39112432530E+03  0.39112432530E+03  0.00000000000E+00 0. -1.
        -24    2    1    2    0    0 -0.98565022987E+02  0.81029792020E+02 -0.30903010896E+03  0.34382417169E+03  0.80215720699E+02 0.  0.
         25    2    1    2    0    0  0.75801803417E+02 -0.56675825979E+02  0.35324764860E+02  0.16078413946E+03  0.12508252412E+03 0.  0.
         24    2    1    2    0    0  0.22763219571E+02 -0.24353966041E+02  0.10435110868E+04  0.10474460822E+04  0.84360102516E+02 0.  0.
        -13    1    5    5    0    0  0.47577981691E+02 -0.36593823627E+02  0.82677758618E+03  0.82895352661E+03  0.00000000000E+00 0.  1.
         14    1    5    5    0    0 -0.24814762120E+02  0.12239857585E+02  0.21673350066E+03  0.21849255558E+03  0.00000000000E+00 0. -1.
         11    1    3    3    0    0 -0.48257031198E+02  0.62988551017E+02 -0.97817469970E+02  0.12595457932E+03  0.00000000000E+00 0. -1.
        -12    1    3    3    0    0 -0.50307991789E+02  0.18041241003E+02 -0.21121263899E+03  0.21786959238E+03  0.00000000000E+00 0.  1.
          5    1    4    4  501    0  0.22758111074E+02 -0.88098953102E+02  0.38543571891E+02  0.98906200470E+02  0.41800000000E+01 0.  1.
         -5    1    4    4    0  501  0.53043692342E+02  0.31423127123E+02 -0.32188070310E+01  0.61877938994E+02  0.41800000000E+01 0.  1.
</event>
<event>
11    1  0.7882745E-009  0.1426951E+03  0.7561462E-02  0.1104586E+00
         22   -1    0    0    0    0  0.00000000000E+00  0.00000000000E+00  0.27997340123E+03  0.27997340123E+03  0.00000000000E+00 0.  1.
         22   -1    0    0    0    0 -0.00000000000E+00 -0.00000000000E+00 -0.40492038805E+03  0.40492038805E+03  0.00000000000E+00 0. -1.
         24    2    1    2    0    0  0.12695530907E+02  0.68680010441E+02 -0.31255408801E+03  0.33647515994E+03  0.10318602129E+03 0.  0.
         25    2    1    2    0    0 -0.28623714301E+02 -0.57201531102E+02 -0.16566472953E+01  0.14050551141E+03  0.12509085528E+03 0.  0.
        -24    2    1    2    0    0  0.15928183394E+02 -0.11478479339E+02  0.18926374849E+03  0.20791311793E+03  0.83795200343E+02 0.  0.
        -11    1    3    3    0    0  0.30402132341E+02  0.62143856857E+02 -0.91971386019E+02  0.11508642162E+03  0.00000000000E+00 0.  1.
         12    1    3    3    0    0 -0.17706601435E+02  0.65361535843E+01 -0.22058270199E+03  0.22138873832E+03  0.00000000000E+00 0. -1.
         13    1    5    5    0    0  0.96105590740E+00 -0.29652611952E+01 -0.86795476488E+01  0.92223071843E+01  0.00000000000E+00 0. -1.
        -14    1    5    5    0    0  0.14967127487E+02 -0.85132181434E+01  0.19794329614E+03  0.19869081075E+03  0.00000000000E+00 0.  1.
          5    1    4    4  501    0 -0.15875159112E+02 -0.31684987259E+02  0.61487054168E+02  0.71092118584E+02  0.41800000000E+01 0.  1.
         -5    1    4    4    0  501 -0.12748555189E+02 -0.25516543843E+02 -0.63143701463E+02  0.69413392826E+02  0.41800000000E+01 0.  1.
</event>
<event>
11    1  0.7882745E-009  0.1623472E+03  0.7561462E-02  0.1084890E+00
         22   -1    0    0    0    0  0.00000000000E+00  0.00000000000E+00  0.28392527883E+03  0.28392527883E+03  0.00000000000E+00 0.  1.
         22   -1    0    0    0    0 -0.00000000000E+00 -0.00000000000E+00 -0.57600043226E+03  0.57600043226E+03  0.00000000000E+00 0. -1.
         24    2    1    2    0    0 -0.63898742357E+02 -0.10578401627E+03 -0.41139991345E+03  0.43700080989E+03  0.80290171813E+02 0.  0.
         25    2    1    2    0    0  0.19398597303E+02  0.49132585808E+02 -0.10753440730E+03  0.17316930732E+03  0.12503456993E+03 0.  0.
        -24    2    1    2    0    0  0.44500145054E+02  0.56651430460E+02  0.22685916733E+03  0.24975559388E+03  0.75651354192E+02 0.  0.
        -13    1    3    3    0    0 -0.76776586097E+01 -0.22726542664E+02 -0.15421179305E+02  0.28517625328E+02  0.00000000000E+00 0.  1.
         14    1    3    3    0    0 -0.56221083747E+02 -0.83057473604E+02 -0.39597873414E+03  0.40848318457E+03  0.00000000000E+00 0. -1.
         13    1    5    5    0    0  0.71315050713E+01 -0.14683586184E+02  0.85701350686E+02  0.87242120430E+02  0.00000000000E+00 0. -1.
        -14    1    5    5    0    0  0.37368639983E+02  0.71335016644E+02  0.14115781664E+03  0.16251347345E+03  0.00000000000E+00 0.  1.
          5    1    4    4  501    0  0.94131582865E+01 -0.42211934638E+02 -0.29203689278E+02  0.52352486495E+02  0.41800000000E+01 0. -1.
         -5    1    4    4    0  501  0.99854390166E+01  0.91344520445E+02 -0.78330718024E+02  0.12081682082E+03  0.41800000000E+01 0. -1.
</event>
<event>
11    1  0.7882745E-009  0.1429471E+03  0.7561462E-02  0.1104311E+00
         22   -1    0    0    0    0  0.00000000000E+00  0.00000000000E+00  0.13911083559E+04  0.13911083559E+04  0.00000000000E+00 0.  1.
         22   -1    0    0    0    0 -0.00000000000E+00 -0.00000000000E+00 -0.90268131822E+03  0.90268131822E+03  0.00000000000E+00 0. -1.
        -24    2    1    2    0    0  0.65904357823E+02 -0.16679382366E+02 -0.81470525913E+03  0.82154490954E+03  0.81054259424E+02 0.  0.
         25    2    1    2    0    0 -0.94159329437E+02  0.16125559845E+02 -0.88408875881E+01  0.15764538604E+03  0.12509154027E+03 0.  0.
         24    2    1    2    0    0  0.28254971614E+02  0.55382252082E+00  0.13119731844E+04  0.13145993786E+04  0.78097626845E+02 0.  0.
        -13    1    5    5    0    0  0.55473275232E+02  0.16038516303E+01  0.93240221232E+03  0.93405232302E+03  0.00000000000E+00 0.  1.
         14    1    5    5    0    0 -0.27218303619E+02 -0.10500291094E+01  0.37957097212E+03  0.38054705555E+03  0.00000000000E+00 0. -1.
         11    1    3    3    0    0  0.65459345196E+02  0.18888944259E+02 -0.60751853675E+03  0.61132682796E+03  0.00000000000E+00 0. -1.
        -12    1    3    3    0    0  0.44501262678E+00 -0.35568326625E+02 -0.20718672238E+03  0.21021808158E+03  0.00000000000E+00 0.  1.
          5    1    4    4  501    0 -0.49965227375E+02 -0.54387564731E+02 -0.69830358171E+01  0.74301859555E+02  0.41800000000E+01 0.  1.
         -5    1    4    4    0  501 -0.44194102062E+02  0.70513124577E+02 -0.18578517709E+01  0.83343526490E+02  0.41800000000E+01 0.  1.
</event>
<event>
11    1  0.7882745E-009  0.3138408E+03  0.7561462E-02  0.9944979E-01
         22   -1    0    0    0    0  0.00000000000E+00  0.00000000000E+00  0.61109599048E+03  0.61109599048E+03  0.00000000000E+00 0.  1.
         22   -1    0    0    0    0 -0.00000000000E+00 -0.00000000000E+00 -0.49451008079E+03  0.49451008079E+03  0.00000000000E+00 0. -1.
         24    2    1    2    0    0  0.93954755007E+02  0.27128492322E+03 -0.30199928725E+03  0.42424765943E+03  0.79746482537E+02 0.  0.
         25    2    1    2    0    0 -0.77246219453E+02 -0.28023431758E+03  0.71314913607E+02  0.32439497945E+03  0.12509210455E+03 0.  0.
        -24    2    1    2    0    0 -0.16708535554E+02  0.89493943583E+01  0.34727028333E+03  0.35696343239E+03  0.80417507803E+02 0.  0.
        -13    1    3    3    0    0  0.10409617418E+02  0.27326118229E+02 -0.29764078045E+01  0.29392786116E+02  0.00000000000E+00 0.  1.
         14    1    3    3    0    0  0.83545137589E+02  0.24395880499E+03 -0.29902287945E+03  0.39485487331E+03  0.00000000000E+00 0. -1.
         13    1    5    5    0    0 -0.75148809105E+01 -0.27671948548E+02  0.52812125936E+02  0.60094349297E+02  0.00000000000E+00 0. -1.
        -14    1    5    5    0    0 -0.91936546433E+01  0.36621342906E+02  0.29445815739E+03  0.29686908309E+03  0.00000000000E+00 0.  1.
          5    1    4    4  501    0  0.96319746121E+01 -0.18375817266E+03  0.21643933239E+02  0.18532612660E+03  0.41800000000E+01 0.  1.
         -5    1    4    4    0  501 -0.86878194065E+02 -0.96476144916E+02  0.49670980368E+02  0.13906885285E+03  0.41800000000E+01 0.  1.
</event>
<event>
11    1  0.7882745E-009  0.1665701E+03  0.7561462E-02  0.1081056E+00
         22   -1    0    0    0    0  0.00000000000E+00  0.00000000000E+00  0.55437483521E+02  0.55437483521E+02  0.00000000000E+00 0. -1.
         22   -1    0    0    0    0 -0.00000000000E+00 -0.00000000000E+00 -0.14160193650E+04  0.14160193650E+04  0.00000000000E+00 0. -1.
         24    2    1    2    0    0 -0.10620514054E+03 -0.66433367097E+02 -0.90810220383E+03  0.92035293879E+03  0.81896246508E+02 0.  0.
         25    2    1    2    0    0  0.73556236736E+02  0.30612772706E+02 -0.42724188465E+03  0.45224703093E+03  0.12507632537E+03 0.  0.
        -24    2    1    2    0    0  0.32648903808E+02  0.35820594392E+02 -0.25237792993E+02  0.98856878798E+02  0.82381250222E+02 0.  0.
        -13    1    3    3    0    0 -0.71057403041E+01 -0.47225044612E+02 -0.24495331977E+03  0.24956527253E+03  0.00000000000E+00 0.  1.
         14    1    3    3    0    0 -0.99099400240E+02 -0.19208322485E+02 -0.66314888406E+03  0.67078766626E+03  0.00000000000E+00 0. -1.
         11    1    5    5    0    0  0.10535462722E+02  0.54741978166E+02  0.61116554059E+01  0.56080589156E+02  0.00000000000E+00 0. -1.
        -12    1    5    5    0    0  0.22113441087E+02 -0.18921383775E+02 -0.31349448399E+02  0.42776289642E+02  0.00000000000E+00 0.  1.
          5    1    4    4  501    0  0.51175393744E+02  0.77454146818E+02 -0.22564177098E+03  0.24402816845E+03  0.41800000000E+01 0. -1.
         -5    1    4    4    0  501  0.22380842993E+02 -0.46841374113E+02 -0.20160011367E+03  0.20821886248E+03  0.41800000000E+01 0. -1.
</event>
<event>
11    1  0.7882745E-009  0.1275995E+03  0.7561462E-02  0.1122254E+00
         22   -1    0    0    0    0  0.00000000000E+00  0.00000000000E+00  0.95131265504E+03  0.95131265504E+03  0.00000000000E+00 0. -1.
         22   -1    0    0    0    0 -0.00000000000E+00 -0.00000000000E+00 -0.44301716933E+03  0.44301716933E+03  0.00000000000E+00 0.  1.
         24    2    1    2    0    0 -0.98175293625E+01 -0.22152369290E+02 -0.39661284184E+03  0.40574860332E+03  0.82116206887E+02 0.  0.
         25    2    1    2    0    0  0.22976748367E+02  0.41865981293E+02  0.72998823337E+02  0.15250941209E+03  0.12509836614E+03 0.  0.
        -24    2    1    2    0    0 -0.13159219005E+02 -0.19713612003E+02  0.83190950421E+03  0.83607180896E+03  0.79880254149E+02 0.  0.
        -13    1    3    3    0    0  0.17221061908E+02 -0.26647625663E+01 -0.33700715530E+03  0.33745738791E+03  0.00000000000E+00 0.  1.
         14    1    3    3    0    0 -0.27038591271E+02 -0.19487606723E+02 -0.59605686542E+02  0.68291215408E+02  0.00000000000E+00 0. -1.
         13    1    5    5    0    0 -0.41204996250E+02 -0.17860784187E+02  0.29220901964E+03  0.29563993385E+03  0.00000000000E+00 0. -1.
        -14    1    5    5    0    0  0.28045777245E+02 -0.18528278164E+01  0.53970048456E+03  0.54043187511E+03  0.00000000000E+00 0.  1.
          5    1    4    4  501    0 -0.10300332794E+01 -0.52791608089E+01  0.94866172366E+02  0.95110428275E+02  0.41800000000E+01 0. -1.
         -5    1    4    4    0  501  0.24006781647E+02  0.47145142102E+02 -0.21867349029E+02  0.57398983810E+02  0.41800000000E+01 0. -1.
</event>
<event>
11    1  0.7882745E-009  0.1342493E+03  0.7561462E-02  0.1114155E+00
         22   -1    0    0    0    0  0.00000000000E+00  0.00000000000E+00  0.17142378843E+04  0.17142378843E+04  0.00000000000E+00 0. -1.
         22   -1    0    0    0    0 -0.00000000000E+00 -0.00000000000E+00 -0.10278198028E+03  0.10278198028E+03  0.00000000000E+00 0.  1.
        -24    2    1    2    0    0 -0.21523321401E+02 -0.36751546460E+02 -0.28375370368E+01  0.91802414575E+02  0.81275470925E+02 0.  0.
         25    2    1    2    0    0  0.26378001227E+02  0.55237752329E+02  0.34840926843E+02  0.14355384940E+03  0.12508720663E+03 0.  0.
         24    2    1    2    0    0 -0.48546798261E+01 -0.18486205868E+02  0.15794525142E+04  0.15816636006E+04  0.81389146033E+02 0.  0.
        -11    1    5    5    0    0  0.20060273154E+02  0.18810474879E+02  0.26026861073E+03  0.26171740152E+03  0.00000000000E+00 0.  1.
         12    1    5    5    0    0 -0.24914952980E+02 -0.37296680747E+02  0.13191839035E+04  0.13199461991E+04  0.00000000000E+00 0. -1.
         11    1    3    3    0    0  0.26940932732E+01  0.18161135728E+02  0.20399775332E+02  0.27445142067E+02  0.00000000000E+00 0. -1.
        -12    1    3    3    0    0 -0.24217414674E+02 -0.54912682188E+02 -0.23237312369E+02  0.64357272508E+02  0.00000000000E+00 0.  1.
          5    1    4    4  501    0 -0.43310432802E+02 -0.56590621189E+01 -0.18363135359E+01  0.43916546096E+02  0.41800000000E+01 0.  1.
         -5    1    4    4    0  501  0.69688434029E+02  0.60896814447E+02  0.36677240379E+02  0.99637303301E+02  0.41800000000E+01 0.  1.
</event>
<event>
11    1  0.7882745E-009  0.1893969E+03  0.7561462E-02  0.1062286E+00
         22   -1    0    0    0    0  0.00000000000E+00  0.00000000000E+00  0.92693717952E+03  0.92693717952E+03  0.00000000000E+00 0.  1.
         22   -1    0    0    0    0 -0.00000000000E+00 -0.00000000000E+00 -0.19432319496E+03  0.19432319496E+03  0.00000000000E+00 0. -1.
        -24    2    1    2    0    0 -0.98732347968E+02 -0.12291485043E+03 -0.46148444858E+02  0.18164890114E+03  0.77527461786E+02 0.  0.
         25    2    1    2    0    0  0.13141984132E+03  0.32198075185E+02  0.37959185216E+02  0.18813880731E+03  0.12508964919E+03 0.  0.
         24    2    1    2    0    0 -0.32687493357E+02  0.90716775246E+02  0.74080324420E+03  0.75147266604E+03  0.81386212862E+02 0.  0.
        -11    1    5    5    0    0  0.14875214529E+02  0.11660465103E+02  0.32534063796E+03  0.32588919767E+03  0.00000000000E+00 0.  1.
         12    1    5    5    0    0 -0.47562707886E+02  0.79056310143E+02  0.41546260625E+03  0.42558346836E+03  0.00000000000E+00 0. -1.
         11    1    3    3    0    0 -0.91124164711E+02 -0.84621678788E+02 -0.62670348528E+02  0.13925521355E+03  0.00000000000E+00 0. -1.
        -12    1    3    3    0    0 -0.76081832569E+01 -0.38293171642E+02  0.16521903670E+02  0.42393687593E+02  0.00000000000E+00 0.  1.
          5    1    4    4  501    0  0.11372552165E+03  0.14659023121E+02  0.79448759623E+02  0.13956345883E+03  0.41800000000E+01 0. -1.
         -5    1    4    4    0  501  0.17694319673E+02  0.17539052063E+02 -0.41489574407E+02  0.48575348485E+02  0.41800000000E+01 0. -1.
</event>
<event>
11    1  0.7882745E-009  0.2423371E+03  0.7561462E-02  0.1028062E+00
         22   -1    0    0    0    0  0.00000000000E+00  0.00000000000E+00  0.67863990526E+03  0.67863990526E+03  0.00000000000E+00 0.  1.
         22   -1    0    0    0    0 -0.00000000000E+00 -0.00000000000E+00 -0.83314509404E+03  0.83314509404E+03  0.00000000000E+00 0.  1.
        -24    2    1    2    0    0  0.12395844666E+03  0.18809978480E+02 -0.71538599147E+03  0.73091736325E+03  0.82119201893E+02 0.  0.
         25    2    1    2    0    0 -0.29692207596E+03  0.26575102473E+02  0.23238290869E+03  0.39814232528E+03  0.12508612898E+03 0.  0.
         24    2    1    2    0    0  0.17296362930E+03 -0.45385080953E+02  0.32849789400E+03  0.38272531077E+03  0.81188512170E+02 0.  0.
        -11    1    5    5    0    0  0.17122080237E+03 -0.52722784651E+02  0.27182953738E+03  0.32555729539E+03  0.00000000000E+00 0.  1.
         12    1    5    5    0    0  0.17428269309E+01  0.73377036976E+01  0.56668356620E+02  0.57168015387E+02  0.00000000000E+00 0. -1.
         11    1    3    3    0    0  0.63311604810E+02  0.50779775593E+02 -0.37093988504E+03  0.37971481829E+03  0.00000000000E+00 0. -1.
        -12    1    3    3    0    0  0.60646841846E+02 -0.31969797113E+02 -0.34444610643E+03  0.35120254496E+03  0.00000000000E+00 0.  1.
          5    1    4    4  501    0 -0.21610787100E+03  0.74207048012E+02  0.17761847280E+03  0.28943927198E+03  0.41800000000E+01 0.  1.
         -5    1    4    4    0  501 -0.80814204959E+02 -0.47631945539E+02  0.54764435893E+02  0.10870305330E+03  0.41800000000E+01 0.  1.
</event>
<event>
11    1  0.7882745E-009  0.2683064E+03  0.7561462E-02  0.1014575E+00
         22   -1    0    0    0    0  0.00000000000E+00  0.00000000000E+00  0.14878297155E+03  0.14878297155E+03  0.00000000000E+00 0. -1.
         22   -1    0    0    0    0 -0.00000000000E+00 -0.00000000000E+00 -0.36439176910E+03  0.36439176910E+03  0.00000000000E+00 0.  1.
         24    2    1    2    0    0  0.12319374395E+03 -0.60070021914E+02 -0.18419748420E+03  0.24303590203E+03  0.79703390217E+02 0.  0.
         25    2    1    2    0    0 -0.40953907032E+02 -0.14444504796E+02 -0.17042705669E+02  0.13351041875E+03  0.12509481156E+03 0.  0.
        -24    2    1    2    0    0 -0.82239836918E+02  0.74514526710E+02 -0.14368607686E+02  0.13662841987E+03  0.78390450711E+02 0.  0.
        -13    1    3    3    0    0  0.40662442923E+02 -0.62346257093E+02 -0.10436052948E+03  0.12818584224E+03  0.00000000000E+00 0.  1.
         14    1    3    3    0    0  0.82531301027E+02  0.22762351793E+01 -0.79836954717E+02  0.11485005979E+03  0.00000000000E+00 0. -1.
         13    1    5    5    0    0 -0.45658264249E+02 -0.72588211136E+01 -0.30305857524E+01  0.46330897122E+02  0.00000000000E+00 0. -1.
        -14    1    5    5    0    0 -0.36581572669E+02  0.81773347824E+02 -0.11338021934E+02  0.90297522749E+02  0.00000000000E+00 0.  1.
          5    1    4    4  501    0 -0.81655040052E+02  0.49904543997E-01  0.99964748681E+01  0.82370807730E+02  0.41800000000E+01 0. -1.
         -5    1    4    4    0  501  0.40701133020E+02 -0.14494409340E+02 -0.27039180538E+02  0.51139611021E+02  0.41800000000E+01 0. -1.
</event>
<event>
11    1  0.7882745E-009  0.1530962E+03  0.7561462E-02  0.1093756E+00
         22   -1    0    0    0    0  0.00000000000E+00  0.00000000000E+00  0.86800564338E+03  0.86800564338E+03  0.00000000000E+00 0.  1.
         22   -1    0    0    0    0 -0.00000000000E+00 -0.00000000000E+00 -0.13480299162E+03  0.13480299162E+03  0.00000000000E+00 0.  1.
        -24    2    1    2    0    0 -0.25310508595E+02  0.49226791545E+01 -0.90862060001E+02  0.12399717834E+03  0.80340100034E+02 0.  0.
         25    2    1    2    0    0  0.52255035008E+02 -0.85726911705E+02  0.28474895978E+03  0.32681640834E+03  0.12508917854E+03 0.  0.
         24    2    1    2    0    0 -0.26944526413E+02  0.80804232551E+02  0.53931575199E+03  0.55199504832E+03  0.81127809842E+02 0.  0.
        -13    1    5    5    0    0 -0.23006441066E+02  0.57363379494E+02  0.15389238401E+03  0.16583943890E+03  0.00000000000E+00 0.  1.
         14    1    5    5    0    0 -0.39380853476E+01  0.23440853057E+02  0.38542336797E+03  0.38615560942E+03  0.00000000000E+00 0. -1.
         11    1    3    3    0    0 -0.39476694744E+02  0.33451854811E+02 -0.64214686464E+02  0.82467945142E+02  0.00000000000E+00 0. -1.
        -12    1    3    3    0    0  0.14166186149E+02 -0.28529175657E+02 -0.26647373537E+02  0.41529233199E+02  0.00000000000E+00 0.  1.
          5    1    4    4  501    0  0.33733558226E+02 -0.26013395847E+02  0.86140291884E+01  0.43661465996E+02  0.41800000000E+01 0. -1.
         -5    1    4    4    0  501  0.18521476782E+02 -0.59713515858E+02  0.27613493059E+03  0.28315494234E+03  0.41800000000E+01 0. -1.
</event>
<event>
11    1  0.7882745E-009  0.1333288E+03  0.7561462E-02  0.1115245E+00
         22   -1    0    0    0    0  0.00000000000E+00  0.00000000000E+00  0.36993677274E+03  0.36993677274E+03  0.00000000000E+00 0.  1.
         22   -1    0    0    0    0 -0.00000000000E+00 -0.00000000000E+00 -0.10841634793E+04  0.10841634793E+04  0.00000000000E+00 0. -1.
        -24    2    1    2    0    0 -0.48031492365E+02  0.34450749800E+02 -0.63492664670E+03  0.64189139173E+03  0.73476755961E+02 0.  0.
         25    2    1    2    0    0  0.45217423637E+01 -0.14735183991E+02 -0.43057454699E+03  0.44864124675E+03  0.12508779305E+03 0.  0.
         24    2    1    2    0    0  0.43509750001E+02 -0.19715565809E+02  0.35127448715E+03  0.36356761354E+03  0.80658802468E+02 0.  0.
        -13    1    5    5    0    0  0.33711018832E+02 -0.13134301958E+02  0.34980703807E+03  0.35167301085E+03  0.00000000000E+00 0.  1.
         14    1    5    5    0    0  0.97987311694E+01 -0.65812638518E+01  0.14674490806E+01  0.11894602693E+02  0.00000000000E+00 0. -1.
         13    1    3    3    0    0 -0.19787429562E+02  0.37607102301E+02 -0.56228015940E+03  0.56388368851E+03  0.00000000000E+00 0. -1.
        -14    1    3    3    0    0 -0.28244062803E+02 -0.31563525011E+01 -0.72646487307E+02  0.78007703227E+02  0.00000000000E+00 0.  1.
          5    1    4    4  501    0  0.48585766266E+01 -0.66106745198E+02 -0.16061820606E+03  0.17380848094E+03  0.41800000000E+01 0. -1.
         -5    1    4    4    0  501 -0.33683426293E+00  0.51371561207E+02 -0.26995634093E+03  0.27483276582E+03  0.41800000000E+01 0. -1.
</event>
<event>
11    1  0.7882745E-009  0.1324035E+03  0.7561462E-02  0.1116351E+00
         22   -1    0    0    0    0  0.00000000000E+00  0.00000000000E+00  0.15242771668E+03  0.15242771668E+03  0.00000000000E+00 0.  1.
         22   -1    0    0    0    0 -0.00000000000E+00 -0.00000000000E+00 -0.10694490079E+04  0.10694490079E+04  0.00000000000E+00 0. -1.
        -24    2    1    2    0    0 -0.15935040443E+02 -0.13077387423E+02 -0.98334703235E+03  0.98684097009E+03  0.80366477067E+02 0.  0.
         25    2    1    2    0    0 -0.29422287415E+02  0.25772004987E+02  0.22907479324E+02  0.13304961837E+03  0.12509029180E+03 0.  0.
         24    2    1    2    0    0  0.45357327858E+02 -0.12694617564E+02  0.43418261844E+02  0.10198613608E+03  0.79357331008E+02 0.  0.
        -13    1    5    5    0    0  0.58892419457E+02 -0.29236387885E+02  0.16825905071E+02  0.67868951131E+02  0.00000000000E+00 0.  1.
         14    1    5    5    0    0 -0.13535091599E+02  0.16541770321E+02  0.26592356772E+02  0.34117184946E+02  0.00000000000E+00 0. -1.
         13    1    3    3    0    0 -0.44388407116E+02 -0.25256883488E+02 -0.68165493486E+03  0.68356542560E+03  0.00000000000E+00 0. -1.
        -14    1    3    3    0    0  0.28453366673E+02  0.12179496065E+02 -0.30169209749E+03  0.30327554449E+03  0.00000000000E+00 0.  1.
          5    1    4    4  501    0 -0.28515639057E+02  0.74856567613E+02  0.24130232435E+02  0.83763881852E+02  0.41800000000E+01 0.  1.
         -5    1    4    4    0  501 -0.90664835870E+00 -0.49084562626E+02 -0.12227531108E+01  0.49285736522E+02  0.41800000000E+01 0.  1.
</event>
<event>
11    1  0.7882745E-009  0.1275960E+03  0.7561462E-02  0.1122259E+00
         22   -1    0    0    0    0  0.00000000000E+00  0.00000000000E+00  0.12902030027E+04  0.12902030027E+04  0.00000000000E+00 0.  1.
         22   -1    0    0    0    0 -0.00000000000E+00 -0.00000000000E+00 -0.15426651023E+03  0.15426651023E+03  0.00000000000E+00 0. -1.
        -24    2    1    2    0    0 -0.27528858973E+01 -0.13665979367E+02 -0.12961736647E+03  0.15317930256E+03  0.80429470150E+02 0.  0.
         25    2    1    2    0    0 -0.21803465036E+02  0.18719277541E+02  0.36366078449E+03  0.38564568800E+03  0.12509047950E+03 0.  0.
         24    2    1    2    0    0  0.24556350933E+02 -0.50532981736E+01  0.90189307443E+03  0.90564452234E+03  0.78436808635E+02 0.  0.
        -13    1    5    5    0    0 -0.12940531621E+02 -0.71235166348E+01  0.70766917133E+03  0.70782332393E+03  0.00000000000E+00 0.  1.
         14    1    5    5    0    0  0.37496882554E+02  0.20702184612E+01  0.19422390310E+03  0.19782119842E+03  0.00000000000E+00 0. -1.
         11    1    3    3    0    0 -0.29032839760E+02 -0.35961367777E+02 -0.85545053660E+02  0.97232103560E+02  0.00000000000E+00 0. -1.
        -12    1    3    3    0    0  0.26279953862E+02  0.22295388410E+02 -0.44072312812E+02  0.55947199000E+02  0.00000000000E+00 0.  1.
          5    1    4    4  501    0  0.43644070962E+02 -0.16088080730E+02  0.20808801626E+03  0.21326445129E+03  0.41800000000E+01 0.  1.
         -5    1    4    4    0  501 -0.65447535997E+02  0.34807358271E+02  0.15557276823E+03  0.17238123672E+03  0.41800000000E+01 0.  1.
</event>
<event>
11    1  0.7882745E-009  0.1494589E+03  0.7561462E-02  0.1097433E+00
         22   -1    0    0    0    0  0.00000000000E+00  0.00000000000E+00  0.34093976039E+03  0.34093976039E+03  0.00000000000E+00 0.  1.
         22   -1    0    0    0    0 -0.00000000000E+00 -0.00000000000E+00 -0.10888926281E+04  0.10888926281E+04  0.00000000000E+00 0. -1.
         24    2    1    2    0    0  0.36465982516E+02  0.36946397828E+02 -0.69638668075E+03  0.70285746494E+03  0.79745863193E+02 0.  0.
         25    2    1    2    0    0  0.31306343272E+02 -0.83120761193E+02 -0.36346107815E+03  0.39451800253E+03  0.12510535928E+03 0.  0.
        -24    2    1    2    0    0 -0.67772325788E+02  0.46174363364E+02  0.31189489121E+03  0.33245692101E+03  0.80771413209E+02 0.  0.
        -13    1    3    3    0    0 -0.18135374440E+02  0.34797198165E+02 -0.23609695033E+03  0.23933555265E+03  0.00000000000E+00 0.  1.
         14    1    3    3    0    0  0.54601356956E+02  0.21491996634E+01 -0.46028973042E+03  0.46352191229E+03  0.00000000000E+00 0. -1.
         13    1    5    5    0    0 -0.10226255907E+01  0.23568228804E+02  0.16541154421E+02  0.28811750409E+02  0.00000000000E+00 0. -1.
        -14    1    5    5    0    0 -0.66749700197E+02  0.22606134561E+02  0.29535373678E+03  0.30364517060E+03  0.00000000000E+00 0.  1.
          5    1    4    4  501    0 -0.47486203355E+02 -0.31746438413E+02 -0.10779134258E+03  0.12206236847E+03  0.41800000000E+01 0. -1.
         -5    1    4    4    0  501  0.78792546627E+02 -0.51374322779E+02 -0.25566973557E+03  0.27245563406E+03  0.41800000000E+01 0. -1.
</event>
<event>
11    1  0.7882745E-009  0.2056520E+03  0.7561462E-02  0.1050597E+00
         22   -1    0    0    0    0  0.00000000000E+00  0.00000000000E+00  0.41260553680E+03  0.41260553680E+03  0.00000000000E+00 0.  1.
         22   -1    0    0    0    0 -0.00000000000E+00 -0.00000000000E+00 -0.48896865158E+03  0.48896865158E+03  0.00000000000E+00 0. -1.
        -24    2    1    2    0    0 -0.14874855786E+03  0.81904852527E+01 -0.28212270528E+03  0.32961114249E+03  0.82807408515E+02 0.  0.
         25    2    1    2    0    0  0.21670581380E+03 -0.27865692990E+02 -0.82136351829E+02  0.26482686320E+03  0.12509588563E+03 0.  0.
         24    2    1    2    0    0 -0.67957255943E+02  0.19675207737E+02  0.28789594232E+03  0.30713618269E+03  0.80269911413E+02 0.  0.
        -11    1    5    5    0    0 -0.21901290790E+02  0.45974336292E+02  0.17751334178E+03  0.18467347575E+03  0.00000000000E+00 0.  1.
         12    1    5    5    0    0 -0.46055965153E+02 -0.26299128555E+02  0.11038260054E+03  0.12246270694E+03  0.00000000000E+00 0. -1.
         13    1    3    3    0    0 -0.10558335308E+03 -0.29099511002E+02 -0.15024063834E+03  0.18592169157E+03  0.00000000000E+00 0. -1.
        -14    1    3    3    0    0 -0.43165204773E+02  0.37289996255E+02 -0.13188206694E+03  0.14368945091E+03  0.00000000000E+00 0.  1.
          5    1    4    4  501    0  0.18746078172E+03  0.19729442295E+02 -0.35322044598E+02  0.19182261288E+03  0.41800000000E+01 0. -1.
         -5    1    4    4    0  501  0.29245032076E+02 -0.47595135284E+02 -0.46814307231E+02  0.73004250324E+02  0.41800000000E+01 0. -1.
</event>
<event>
11    1  0.7882745E-009  0.1377924E+03  0.7561462E-02  0.1110049E+00
         22   -1    0    0    0    0  0.00000000000E+00  0.00000000000E+00  0.76292838942E+02  0.76292838942E+02  0.00000000000E+00 0.  1.
         22   -1    0    0    0    0 -0.00000000000E+00 -0.00000000000E+00 -0.15509752269E+04  0.15509752269E+04  0.00000000000E+00 0. -1.
         24    2    1    2    0    0  0.36789792800E+02  0.35376428863E+02 -0.11538046674E+04  0.11578387209E+04  0.81977511985E+02 0.  0.
         25    2    1    2    0    0 -0.39350322166E+02 -0.88978688986E+02 -0.33480268665E+03  0.37041419994E+03  0.12509270794E+03 0.  0.
        -24    2    1    2    0    0  0.25605293663E+01  0.53602260123E+02  0.13924966042E+02  0.99015145080E+02  0.82038623069E+02 0.  0.
        -13    1    3    3    0    0  0.18393535370E+02  0.11144343472E+02 -0.62253098675E+02  0.65863243387E+02  0.00000000000E+00 0.  1.
         14    1    3    3    0    0  0.18396257430E+02  0.24232085390E+02 -0.10915515687E+04  0.10919754775E+04  0.00000000000E+00 0. -1.
         11    1    5    5    0    0  0.24046075705E+02  0.54171052258E+02 -0.16722637942E+02  0.61582166893E+02  0.00000000000E+00 0. -1.
        -12    1    5    5    0    0 -0.21485546338E+02 -0.56879213544E+00  0.30647603984E+02  0.37432978187E+02  0.00000000000E+00 0.  1.
          5    1    4    4  501    0 -0.84708133498E+02 -0.61686513912E+02 -0.23582187946E+03  0.25808937427E+03  0.41800000000E+01 0.  1.
         -5    1    4    4    0  501  0.45357811332E+02 -0.27292175073E+02 -0.98980807196E+02  0.11232482567E+03  0.41800000000E+01 0.  1.
</event>
<event>
11    1  0.7882745E-009  0.1702740E+03  0.7561462E-02  0.1077793E+00
         22   -1    0    0    0    0  0.00000000000E+00  0.00000000000E+00  0.54518016105E+03  0.54518016105E+03  0.00000000000E+00 0.  1.
         22   -1    0    0    0    0 -0.00000000000E+00 -0.00000000000E+00 -0.49147186145E+03  0.49147186145E+03  0.00000000000E+00 0.  1.
        -24    2    1    2    0    0 -0.88976279589E+02  0.70694532684E+02 -0.39245382177E+03  0.41807369897E+03  0.88606547549E+02 0.  0.
         25    2    1    2    0    0  0.12010218602E+03 -0.57939411026E+02  0.20424693278E+02  0.18397643388E+03  0.12509456299E+03 0.  0.
         24    2    1    2    0    0 -0.31125906428E+02 -0.12755121659E+02  0.42573742810E+03  0.43460188966E+03  0.80591126252E+02 0.  0.
        -11    1    5    5    0    0 -0.27025287150E+02 -0.44460594918E+02  0.20205623321E+03  0.20864762646E+03  0.00000000000E+00 0.  1.
         12    1    5    5    0    0 -0.41006192781E+01  0.31705473259E+02  0.22368119488E+03  0.22595426320E+03  0.00000000000E+00 0. -1.
         11    1    3    3    0    0 -0.62052512345E+02 -0.42597036662E+01 -0.13623105112E+03  0.14975833417E+03  0.00000000000E+00 0. -1.
        -12    1    3    3    0    0 -0.26923767243E+02  0.74954236351E+02 -0.25622277065E+03  0.26831536481E+03  0.00000000000E+00 0.  1.
          5    1    4    4  501    0  0.13287770518E+03 -0.33137159452E+02  0.47366347548E+02  0.14496757965E+03  0.41800000000E+01 0.  1.
         -5    1    4    4    0  501 -0.12775519162E+02 -0.24802251574E+02 -0.26941654270E+02  0.39008854223E+02  0.41800000000E+01 0.  1.
</event>
<event>
11    1  0.7882745E-009  0.1379916E+03  0.7561462E-02  0.1109822E+00
         22   -1    0    0    0    0  0.00000000000E+00  0.00000000000E+00  0.16272331318E+04  0.16272331318E+04  0.00000000000E+00 0.  1.
         22   -1    0    0    0    0 -0.00000000000E+00 -0.00000000000E+00 -0.10529562567E+04  0.10529562567E+04  0.00000000000E+00 0. -1.
         24    2    1    2    0    0 -0.32690631711E+02 -0.61626553176E+01 -0.73194078756E+03  0.73707553204E+03  0.80226976229E+02 0.  0.
         25    2    1    2    0    0 -0.25685607472E+02  0.82973785979E+01 -0.30399081154E+03  0.32982819416E+03  0.12509047622E+03 0.  0.
        -24    2    1    2    0    0  0.58376239183E+02 -0.21347232803E+01  0.16102084742E+04  0.16132856622E+04  0.80665700622E+02 0.  0.
        -11    1    3    3    0    0  0.21770977895E+02 -0.11752193151E+02 -0.11089300046E+03  0.11361930766E+03  0.00000000000E+00 0.  1.
         12    1    3    3    0    0 -0.54461609607E+02  0.55895378336E+01 -0.62104778710E+03  0.62345622438E+03  0.00000000000E+00 0. -1.
         11    1    5    5    0    0  0.36077618266E+02  0.11783419649E+02  0.25375814272E+03  0.25658066668E+03  0.00000000000E+00 0. -1.
        -12    1    5    5    0    0  0.22298620917E+02 -0.13918142929E+02  0.13564503315E+04  0.13567049955E+04  0.00000000000E+00 0.  1.
          5    1    4    4  501    0 -0.20019474393E+02 -0.46125272373E+02 -0.24127154883E+03  0.24649087769E+03  0.41800000000E+01 0. -1.
         -5    1    4    4    0  501 -0.56661330781E+01  0.54422650971E+02 -0.62719262705E+02  0.83337316474E+02  0.41800000000E+01 0. -1.
</event>
<event>
11    1  0.9341007E-009  0.1586427E+03  0.7561462E-02  0.1088361E+00
         22   -1    0    0    0    0  0.00000000000E+00  0.00000000000E+00  0.11013083218E+04  0.11013083218E+04  0.00000000000E+00 0. -1.
         22   -1    0    0    0    0 -0.00000000000E+00 -0.00000000000E+00 -0.25561615546E+03  0.25561615546E+03  0.00000000000E+00 0. -1.
        -24    2    1    2    0    0 -0.64320477026E+01 -0.42766423087E+02 -0.16232150566E+03  0.18632651237E+03  0.80616126375E+02 0.  0.
         25    2    1    2    0    0  0.70190876443E+02  0.11424228834E+03  0.31492510654E+02  0.18605574669E+03  0.12508758159E+03 0.  0.
         24    2    1    2    0    0 -0.63758828741E+02 -0.71475865251E+02  0.97652116136E+03  0.98454221821E+03  0.80967976997E+02 0.  0.
        -11    1    5    5    0    0 -0.21810259740E+02 -0.23390541667E+02  0.86271720567E+02  0.92008774793E+02  0.00000000000E+00 0.  1.
         12    1    5    5    0    0 -0.41948569000E+02 -0.48085323584E+02  0.89024944080E+03  0.89253344342E+03  0.00000000000E+00 0. -1.
         13    1    3    3    0    0 -0.33722049679E+02 -0.18611714170E+02 -0.13605751064E+03  0.14140445092E+03  0.00000000000E+00 0. -1.
        -14    1    3    3    0    0  0.27290001976E+02 -0.24154708917E+02 -0.26263995025E+02  0.44922061455E+02  0.00000000000E+00 0.  1.
          5    1    4    4  501    0  0.95551460230E+02  0.10339307411E+03  0.53352743470E+02  0.15061273838E+03  0.41800000000E+01 0. -1.
         -5    1    4    4    0  501 -0.25360583787E+02  0.10849214228E+02 -0.21860232816E+02  0.35443008311E+02  0.41800000000E+01 0. -1.
</event>
<event>
11    1  0.7882745E-009  0.1305586E+03  0.7561462E-02  0.1118585E+00
         22   -1    0    0    0    0  0.00000000000E+00  0.00000000000E+00  0.80426867386E+02  0.80426867386E+02  0.00000000000E+00 0.  1.
         22   -1    0    0    0    0 -0.00000000000E+00 -0.00000000000E+00 -0.63132787075E+03  0.63132787075E+03  0.00000000000E+00 0.  1.
         24    2    1    2    0    0 -0.40036063461E+02 -0.93254920490E+01 -0.45434025188E+03  0.46368993235E+03  0.83026728852E+02 0.  0.
         25    2    1    2    0    0  0.16602540929E+01  0.30685436641E+02 -0.86559505313E+02  0.15519503768E+03  0.12509436157E+03 0.  0.
        -24    2    1    2    0    0  0.38375809368E+02 -0.21359944592E+02 -0.10001246163E+02  0.92869768096E+02  0.81214647224E+02 0.  0.
        -11    1    3    3    0    0 -0.33621437694E+02 -0.44848161885E+02 -0.29926579041E+03  0.30446965696E+03  0.00000000000E+00 0.  1.
         12    1    3    3    0    0 -0.64146257671E+01  0.35522669836E+02 -0.15507446147E+03  0.15922027539E+03  0.00000000000E+00 0. -1.
         13    1    5    5    0    0  0.24840234236E+02 -0.34354137996E+02 -0.39477295861E+02  0.57928412052E+02  0.00000000000E+00 0. -1.
        -14    1    5    5    0    0  0.13535575132E+02  0.12994193404E+02  0.29476049698E+02  0.34941356044E+02  0.00000000000E+00 0.  1.
          5    1    4    4  501    0 -0.17727208950E+02 -0.22061615867E+02 -0.94088663483E+02  0.98341841694E+02  0.41800000000E+01 0.  1.
         -5    1    4    4    0  501  0.19387463043E+02  0.52747052508E+02  0.75291581704E+01  0.56853195990E+02  0.41800000000E+01 0.  1.
</event>
<event>
11    1  0.7882745E-009  0.1335843E+03  0.7561462E-02  0.1114942E+00
         22   -1    0    0    0    0  0.00000000000E+00  0.00000000000E+00  0.85810783950E+02  0.85810783950E+02  0.00000000000E+00 0.  1.
         22   -1    0    0    0    0 -0.00000000000E+00 -0.00000000000E+00 -0.75380179677E+03  0.75380179677E+03  0.00000000000E+00 0. -1.
         24    2    1    2    0    0  0.29011815340E+02 -0.36147864483E+02 -0.43540686792E+03  0.44531713332E+03  0.81116305725E+02 0.  0.
         25    2    1    2    0    0  0.23733454225E+01  0.59625960130E+02 -0.26545109099E+03  0.29945158864E+03  0.12508430894E+03 0.  0.
        -24    2    1    2    0    0 -0.31385160763E+02 -0.23478095648E+02  0.32866946090E+02  0.94843858761E+02  0.79867841514E+02 0.  0.
        -13    1    3    3    0    0  0.22531592278E+02 -0.33462773518E+01 -0.26080627397E+02  0.34627580743E+02  0.00000000000E+00 0.  1.
         14    1    3    3    0    0  0.64802230617E+01 -0.32801587131E+02 -0.40932624053E+03  0.41068955257E+03  0.00000000000E+00 0. -1.
         13    1    5    5    0    0  0.25998946018E+01  0.26809983475E+02  0.17867196032E+02  0.32322923133E+02  0.00000000000E+00 0. -1.
        -14    1    5    5    0    0 -0.33985055365E+02 -0.50288079122E+02  0.14999750059E+02  0.62520935628E+02  0.00000000000E+00 0.  1.
          5    1    4    4  501    0  0.24313331189E+02 -0.33569392642E+02 -0.98546048936E+02  0.10698989839E+03  0.41800000000E+01 0.  1.
         -5    1    4    4    0  501 -0.21939985767E+02  0.93195352773E+02 -0.16690504205E+03  0.19246169026E+03  0.41800000000E+01 0.  1.
</event>
<event>
11    1  0.7882745E-009  0.1356210E+03  0.7561462E-02  0.1112549E+00
         22   -1    0    0    0    0  0.00000000000E+00  0.00000000000E+00  0.28101235630E+03  0.28101235630E+03  0.00000000000E+00 0. -1.
         22   -1    0    0    0    0 -0.00000000000E+00 -0.00000000000E+00 -0.98145063817E+03  0.98145063817E+03  0.00000000000E+00 0.  1.
         24    2    1    2    0    0 -0.10199136424E+02  0.45037404568E+02 -0.62516534211E+03  0.63204463012E+03  0.80723722015E+02 0.  0.
         25    2    1    2    0    0  0.10308076610E+02 -0.81713736453E+02 -0.32912564181E+03  0.36159179005E+03  0.12506615597E+03 0.  0.
        -24    2    1    2    0    0 -0.10894018607E+00  0.36676331885E+02  0.25385270205E+03  0.26882657430E+03  0.80506940851E+02 0.  0.
        -11    1    3    3    0    0 -0.29934674024E+02  0.86160385751E+01 -0.48203031979E+03  0.48303576475E+03  0.00000000000E+00 0.  1.
         12    1    3    3    0    0  0.19735537599E+02  0.36421365993E+02 -0.14313502232E+03  0.14900886538E+03  0.00000000000E+00 0. -1.
         11    1    5    5    0    0  0.29919490001E+02  0.38958453149E+02  0.92966326889E+02  0.10514596944E+03  0.00000000000E+00 0. -1.
        -12    1    5    5    0    0 -0.30028430187E+02 -0.22821212646E+01  0.16088637516E+03  0.16368060486E+03  0.00000000000E+00 0.  1.
          5    1    4    4  501    0  0.34414871780E+02  0.21513328329E+02 -0.62529809292E+02  0.74663619960E+02  0.41800000000E+01 0. -1.
         -5    1    4    4    0  501 -0.24106795170E+02 -0.10322706478E+03 -0.26659583252E+03  0.28692817009E+03  0.41800000000E+01 0. -1.
</event>
<event>
11    1  0.7882745E-009  0.1423168E+03  0.7561462E-02  0.1104999E+00
         22   -1    0    0    0    0  0.00000000000E+00  0.00000000000E+00  0.63063547878E+03  0.63063547878E+03  0.00000000000E+00 0. -1.
         22   -1    0    0    0    0 -0.00000000000E+00 -0.00000000000E+00 -0.12813803583E+04  0.12813803583E+04  0.00000000000E+00 0.  1.
        -24    2    1    2    0    0 -0.65075953176E+02 -0.18975483001E+02 -0.12451320153E+04  0.12496593292E+04  0.81852030492E+02 0.  0.
         25    2    1    2    0    0  0.64248301478E+02  0.48198741978E+02  0.15463367220E+03  0.21449799157E+03  0.12508738082E+03 0.  0.
         24    2    1    2    0    0  0.82765169797E+00 -0.29223258976E+02  0.43975346357E+03  0.44785851631E+03  0.79620713602E+02 0.  0.
        -11    1    5    5    0    0  0.14528960664E+02 -0.34783912118E+02  0.87250731490E+02  0.95045785733E+02  0.00000000000E+00 0.  1.
         12    1    5    5    0    0 -0.13701308966E+02  0.55606531417E+01  0.35250273208E+03  0.35281273058E+03  0.00000000000E+00 0. -1.
         13    1    3    3    0    0 -0.75416584339E+02 -0.20015964383E+02 -0.68480584242E+03  0.68923678213E+03  0.00000000000E+00 0. -1.
        -14    1    3    3    0    0  0.10340631162E+02  0.10404813817E+01 -0.56032617291E+03  0.56042254710E+03  0.00000000000E+00 0.  1.
          5    1    4    4  501    0  0.56673567453E+01  0.42257241871E+02 -0.60959076570E+01  0.43271536987E+02  0.41800000000E+01 0.  1.
         -5    1    4    4    0  501  0.58580944733E+02  0.59415001066E+01  0.16072957986E+03  0.17122645459E+03  0.41800000000E+01 0.  1.
</event>
<event>
11    1  0.7882745E-009  0.1672317E+03  0.7561462E-02  0.1080466E+00
         22   -1    0    0    0    0  0.00000000000E+00  0.00000000000E+00  0.97138387166E+02  0.97138387166E+02  0.00000000000E+00 0.  1.
         22   -1    0    0    0    0 -0.00000000000E+00 -0.00000000000E+00 -0.75888126509E+03  0.75888126509E+03  0.00000000000E+00 0.  1.
         24    2    1    2    0    0 -0.23092495931E+01  0.12593057117E+02 -0.35814661518E+03  0.36750243516E+03  0.81394865726E+02 0.  0.
         25    2    1    2    0    0  0.96914731733E+02 -0.67883099219E+02 -0.30714818029E+03  0.35211987235E+03  0.12509124455E+03 0.  0.
        -24    2    1    2    0    0 -0.94605482139E+02  0.55290042102E+02  0.35519175354E+01  0.13639734475E+03  0.81144522488E+02 0.  0.
        -13    1    3    3    0    0 -0.25453365862E+01  0.45676445472E+02 -0.25822777222E+03  0.26224873451E+03  0.00000000000E+00 0.  1.
         14    1    3    3    0    0  0.23608699310E+00 -0.33083388354E+02 -0.99918842960E+02  0.10525370065E+03  0.00000000000E+00 0. -1.
         13    1    5    5    0    0 -0.10237514583E+03  0.25451397133E+02  0.38630847107E+01  0.10556215005E+03  0.00000000000E+00 0. -1.
        -14    1    5    5    0    0  0.77696636859E+01  0.29838644969E+02 -0.31116717531E+00  0.30835194703E+02  0.00000000000E+00 0.  1.
          5    1    4    4  501    0  0.85526176038E+01 -0.23909851175E+02  0.36561795210E+01  0.25993620367E+02  0.41800000000E+01 0. -1.
         -5    1    4    4    0  501  0.88362114129E+02 -0.43973248044E+02 -0.31080435981E+03  0.32612625198E+03  0.41800000000E+01 0. -1.
</event>
<event>
11    1  0.7882745E-009  0.1442217E+03  0.7561462E-02  0.1102934E+00
         22   -1    0    0    0    0  0.00000000000E+00  0.00000000000E+00  0.11624632338E+04  0.11624632338E+04  0.00000000000E+00 0.  1.
         22   -1    0    0    0    0 -0.00000000000E+00 -0.00000000000E+00 -0.16026818542E+04  0.16026818542E+04  0.00000000000E+00 0.  1.
         24    2    1    2    0    0 -0.70193847260E+02  0.14627371153E+02 -0.15679542444E+04  0.15717699699E+04  0.82699391763E+02 0.  0.
         25    2    1    2    0    0  0.78974237049E+02 -0.63541204806E+01  0.14456322353E+03  0.20693944362E+03  0.12509237693E+03 0.  0.
        -24    2    1    2    0    0 -0.87803897885E+01 -0.82732506722E+01  0.98317240051E+03  0.98643567452E+03  0.79257989626E+02 0.  0.
        -11    1    3    3    0    0 -0.23483106990E+02  0.71491239143E+01 -0.12568514479E+04  0.12570911376E+04  0.00000000000E+00 0.  1.
         12    1    3    3    0    0 -0.46710740271E+02  0.74782472384E+01 -0.31110279657E+03  0.31467883225E+03  0.00000000000E+00 0. -1.
         11    1    5    5    0    0 -0.27936229723E+02  0.88171130602E+01  0.14813816019E+03  0.15100691679E+03  0.00000000000E+00 0. -1.
        -12    1    5    5    0    0  0.19155839934E+02 -0.17090363732E+02  0.83503424032E+03  0.83542875773E+03  0.00000000000E+00 0.  1.
          5    1    4    4  501    0  0.42192588797E+02  0.40738786024E+02  0.99965492750E+01  0.59642825499E+02  0.41800000000E+01 0. -1.
         -5    1    4    4    0  501  0.36781648251E+02 -0.47092906505E+02  0.13456667425E+03  0.14729661812E+03  0.41800000000E+01 0. -1.
</event>
<event>
11    1  0.7882745E-009  0.1324136E+03  0.7561462E-02  0.1116338E+00
         22   -1    0    0    0    0  0.00000000000E+00  0.00000000000E+00  0.82886482510E+03  0.82886482510E+03  0.00000000000E+00 0. -1.
         22   -1    0    0    0    0 -0.00000000000E+00 -0.00000000000E+00 -0.19161665238E+03  0.19161665238E+03  0.00000000000E+00 0. -1.
         24    2    1    2    0    0 -0.24980831393E+02  0.40360048906E+02 -0.12180880596E+03  0.15343660932E+03  0.80327033972E+02 0.  0.
         25    2    1    2    0    0 -0.19782840256E+02 -0.41619509752E+02  0.36722586933E+02  0.13827272585E+03  0.12508898418E+03 0.  0.
        -24    2    1    2    0    0  0.44763671649E+02  0.12594608456E+01  0.72233439174E+03  0.72877214230E+03  0.85653309123E+02 0.  0.
        -11    1    3    3    0    0  0.44716214831E+01  0.21165700414E+02  0.46970466814E+01  0.22136949208E+02  0.00000000000E+00 0.  1.
         12    1    3    3    0    0 -0.29452452876E+02  0.19194348492E+02 -0.12650585264E+03  0.13129966011E+03  0.00000000000E+00 0. -1.
         11    1    5    5    0    0  0.43134667281E+02  0.38939681813E+02  0.48321706284E+03  0.48669870368E+03  0.00000000000E+00 0. -1.
        -12    1    5    5    0    0  0.16290043689E+01 -0.37680220968E+02  0.23911732890E+03  0.24207343863E+03  0.00000000000E+00 0.  1.
          5    1    4    4  501    0  0.39697266870E+02  0.12122594006E+02  0.40188661000E+02  0.57926083550E+02  0.41800000000E+01 0.  1.
         -5    1    4    4    0  501 -0.59480107127E+02 -0.53742103758E+02 -0.34660740676E+01  0.80346642304E+02  0.41800000000E+01 0.  1.
</event>
<event>
11    1  0.7882745E-009  0.1320420E+03  0.7561462E-02  0.1116785E+00
         22   -1    0    0    0    0  0.00000000000E+00  0.00000000000E+00  0.19592992173E+04  0.19592992173E+04  0.00000000000E+00 0. -1.
         22   -1    0    0    0    0 -0.00000000000E+00 -0.00000000000E+00 -0.54890911737E+03  0.54890911737E+03  0.00000000000E+00 0. -1.
         24    2    1    2    0    0 -0.10299971745E+02  0.36694769508E+02 -0.53483887155E+03  0.54279893705E+03  0.84412510985E+02 0.  0.
         25    2    1    2    0    0 -0.22264306902E+02 -0.23452413777E+01  0.46326017530E+03  0.48037241159E+03  0.12508582767E+03 0.  0.
        -24    2    1    2    0    0  0.32564278647E+02 -0.34349528130E+02  0.14819687962E+04  0.14850369861E+04  0.82843313856E+02 0.  0.
        -13    1    3    3    0    0 -0.39287287346E+02  0.18901628687E+01 -0.14164225212E+03  0.14700201104E+03  0.00000000000E+00 0.  1.
         14    1    3    3    0    0  0.28987315601E+02  0.34804606639E+02 -0.39319661943E+03  0.39579692602E+03  0.00000000000E+00 0. -1.
         11    1    5    5    0    0  0.45738981438E+02 -0.41173931430E+02  0.14193813267E+04  0.14207148544E+04  0.00000000000E+00 0. -1.
        -12    1    5    5    0    0 -0.13174702792E+02  0.68244032997E+01  0.62587469560E+02  0.64322131649E+02  0.00000000000E+00 0.  1.
          5    1    4    4  501    0 -0.60521575086E+02  0.27659205031E-01  0.11533229042E+03  0.13031450967E+03  0.41800000000E+01 0.  1.
         -5    1    4    4    0  501  0.38257268185E+02 -0.23729005828E+01  0.34792788488E+03  0.35005790193E+03  0.41800000000E+01 0.  1.
</event>
<event>
11    1  0.7882745E-009  0.1644136E+03  0.7561462E-02  0.1082998E+00
         22   -1    0    0    0    0  0.00000000000E+00  0.00000000000E+00  0.23377207637E+03  0.23377207637E+03  0.00000000000E+00 0. -1.
         22   -1    0    0    0    0 -0.00000000000E+00 -0.00000000000E+00 -0.74483619747E+03  0.74483619747E+03  0.00000000000E+00 0. -1.
        -24    2    1    2    0    0 -0.88774366770E+02 -0.57163126736E+02 -0.64564593856E+03  0.65905069817E+03  0.79628095077E+02 0.  0.
         25    2    1    2    0    0  0.10008231972E+03  0.71713094706E+02  0.19669953652E+02  0.17661654335E+03  0.12508899885E+03 0.  0.
         24    2    1    2    0    0 -0.11307952949E+02 -0.14549967970E+02  0.11491186380E+03  0.14294103233E+03  0.82992957007E+02 0.  0.
        -11    1    5    5    0    0  0.15031297452E+02  0.19339881556E+02  0.50735679899E+01  0.25014236223E+02  0.00000000000E+00 0.  1.
         12    1    5    5    0    0 -0.26339250402E+02 -0.33889849526E+02  0.10983829581E+03  0.11792679611E+03  0.00000000000E+00 0. -1.
         11    1    3    3    0    0 -0.57314604934E+02 -0.75381921837E+02 -0.50363064811E+03  0.51245607401E+03  0.00000000000E+00 0. -1.
        -12    1    3    3    0    0 -0.31459761836E+02  0.18218795101E+02 -0.14201529045E+03  0.14659462416E+03  0.00000000000E+00 0.  1.
          5    1    4    4  501    0  0.93959699671E+02  0.70194042899E+02  0.62609529308E+02  0.13301524116E+03  0.41800000000E+01 0. -1.
         -5    1    4    4    0  501  0.61226200481E+01  0.15190518073E+01 -0.42939575656E+02  0.43601302185E+02  0.41800000000E+01 0. -1.
</event>
<event>
11    1  0.7882745E-009  0.1811486E+03  0.7561462E-02  0.1068718E+00
         22   -1    0    0    0    0  0.00000000000E+00  0.00000000000E+00  0.63492884634E+03  0.63492884634E+03  0.00000000000E+00 0. -1.
         22   -1    0    0    0    0 -0.00000000000E+00 -0.00000000000E+00 -0.24714053020E+03  0.24714053020E+03  0.00000000000E+00 0. -1.
         24    2    1    2    0    0 -0.31996949735E+01  0.13854312746E+03 -0.18921271093E+03  0.24865161895E+03  0.82593834003E+02 0.  0.
         25    2    1    2    0    0  0.13978155233E+02 -0.66102229020E+02  0.23400623554E+03  0.27380890700E+03  0.12508999070E+03 0.  0.
        -24    2    1    2    0    0 -0.10778460259E+02 -0.72440898438E+02  0.34299479154E+03  0.35960885059E+03  0.79430720937E+02 0.  0.
        -11    1    3    3    0    0  0.38371724478E+01  0.11209222213E+03 -0.84516079036E+02  0.14043631215E+03  0.00000000000E+00 0.  1.
         12    1    3    3    0    0 -0.70368674213E+01  0.26450905327E+02 -0.10469663190E+03  0.10821530680E+03  0.00000000000E+00 0. -1.
         13    1    5    5    0    0  0.28700951749E+02 -0.10629599284E+02  0.15125025388E+03  0.15431582003E+03  0.00000000000E+00 0. -1.
        -14    1    5    5    0    0 -0.39479412009E+02 -0.61811299154E+02  0.19174453766E+03  0.20529303056E+03  0.00000000000E+00 0.  1.
          5    1    4    4  501    0 -0.18599592056E+02 -0.10031584785E+02  0.19868135071E+03  0.19984576312E+03  0.41800000000E+01 0. -1.
         -5    1    4    4    0  501  0.32577747289E+02 -0.56070644235E+02  0.35324884826E+02  0.73963143871E+02  0.41800000000E+01 0. -1.
</event>
<event>
11    1  0.7882745E-009  0.1463043E+03  0.7561462E-02  0.1100716E+00
         22   -1    0    0    0    0  0.00000000000E+00  0.00000000000E+00  0.63911738971E+03  0.63911738971E+03  0.00000000000E+00 0.  1.
         22   -1    0    0    0    0 -0.00000000000E+00 -0.00000000000E+00 -0.16968462346E+04  0.16968462346E+04  0.00000000000E+00 0. -1.
         24    2    1    2    0    0  0.15471367399E+02  0.41522882911E+01 -0.16076820377E+04  0.16098071897E+04  0.81123664416E+02 0.  0.
         25    2    1    2    0    0 -0.77032269295E+01  0.71666600406E+02 -0.19811608158E+02  0.14572501009E+03  0.12509131637E+03 0.  0.
        -24    2    1    2    0    0 -0.77681404695E+01 -0.75818888697E+02  0.56976480092E+03  0.58043142457E+03  0.80373269012E+02 0.  0.
        -13    1    3    3    0    0  0.59751607353E+01 -0.29832441548E+02 -0.27852156692E+03  0.28017840808E+03  0.00000000000E+00 0.  1.
         14    1    3    3    0    0  0.94962066638E+01  0.33984729839E+02 -0.13291604708E+04  0.13296287816E+04  0.00000000000E+00 0. -1.
         11    1    5    5    0    0 -0.14755632061E+02 -0.49564339135E+02  0.13117313954E+03  0.14099909549E+03  0.00000000000E+00 0. -1.
        -12    1    5    5    0    0  0.69874915911E+01 -0.26254549562E+02  0.43859166138E+03  0.43943232909E+03  0.00000000000E+00 0.  1.
          5    1    4    4  501    0 -0.49905510669E+02  0.82616692674E+01 -0.42436611670E+02  0.66160060340E+02  0.41800000000E+01 0.  1.
         -5    1    4    4    0  501  0.42202283739E+02  0.63404931138E+02  0.22625003512E+02  0.79564949754E+02  0.41800000000E+01 0.  1.
</event>
<event>
11    1  0.7882745E-009  0.1524203E+03  0.7561462E-02  0.1094431E+00
         22   -1    0    0    0    0  0.00000000000E+00  0.00000000000E+00  0.15048457333E+03  0.15048457333E+03  0.00000000000E+00 0. -1.
         22   -1    0    0    0    0 -0.00000000000E+00 -0.00000000000E+00 -0.18523742076E+04  0.18523742076E+04  0.00000000000E+00 0. -1.
         24    2    1    2    0    0  0.29439574689E+02 -0.72845820019E+02 -0.12398958471E+04  0.12451301872E+04  0.82669639716E+02 0.  0.
         25    2    1    2    0    0 -0.45248054534E+02  0.12517319937E+03 -0.57695554959E+03  0.60517823897E+03  0.12508908202E+03 0.  0.
        -24    2    1    2    0    0  0.15808479845E+02 -0.52327379346E+02  0.11496176243E+03  0.15255035478E+03  0.84067480382E+02 0.  0.
        -13    1    3    3    0    0  0.11343930525E+02  0.44652275473E+01 -0.26844769832E+02  0.29483295002E+02  0.00000000000E+00 0.  1.
         14    1    3    3    0    0  0.18095644164E+02 -0.77311047566E+02 -0.12130510773E+04  0.12156468922E+04  0.00000000000E+00 0. -1.
         13    1    5    5    0    0  0.48610917151E+02 -0.44962150407E+02  0.69326203161E+02  0.95868340344E+02  0.00000000000E+00 0. -1.
        -14    1    5    5    0    0 -0.32802437306E+02 -0.73652289387E+01  0.45635559267E+02  0.56682014433E+02  0.00000000000E+00 0.  1.
          5    1    4    4  501    0 -0.14278089360E+02  0.11103963549E+03 -0.22295147521E+03  0.24951652687E+03  0.41800000000E+01 0. -1.
         -5    1    4    4    0  501 -0.30969965174E+02  0.14133563873E+02 -0.35400407438E+03  0.35566171209E+03  0.41800000000E+01 0. -1.
</event>
<event>
11    1  0.7882745E-009  0.1279729E+03  0.7561462E-02  0.1121785E+00
         22   -1    0    0    0    0  0.00000000000E+00  0.00000000000E+00  0.54049627313E+03  0.54049627313E+03  0.00000000000E+00 0.  1.
         22   -1    0    0    0    0 -0.00000000000E+00 -0.00000000000E+00 -0.92964955410E+03  0.92964955410E+03  0.00000000000E+00 0.  1.
         24    2    1    2    0    0 -0.15000672793E+02  0.16425018578E+02 -0.33358630356E+03  0.34371812777E+03  0.79796792032E+02 0.  0.
         25    2    1    2    0    0  0.14026485954E+02 -0.43239361499E+02 -0.57857456029E+03  0.59368760581E+03  0.12510022693E+03 0.  0.
        -24    2    1    2    0    0  0.97418683913E+00  0.26814342921E+02  0.52300758287E+03  0.53274009366E+03  0.97750281936E+02 0.  0.
        -13    1    3    3    0    0 -0.37502193706E+02  0.98632470936E+01 -0.30149570617E+03  0.30397920820E+03  0.00000000000E+00 0.  1.
         14    1    3    3    0    0  0.22501520913E+02  0.65617714847E+01 -0.32090597383E+02  0.39738919573E+02  0.00000000000E+00 0. -1.
         11    1    5    5    0    0  0.37036458105E+02  0.38090242093E+02  0.18054723854E+03  0.18820167671E+03  0.00000000000E+00 0. -1.
        -12    1    5    5    0    0 -0.36062271265E+02 -0.11275899172E+02  0.34246034434E+03  0.34453841695E+03  0.00000000000E+00 0.  1.
          5    1    4    4  501    0  0.61830317545E+02 -0.53373929937E+01 -0.17987342655E+03  0.19032445431E+03  0.41800000000E+01 0. -1.
         -5    1    4    4    0  501 -0.47803831591E+02 -0.37901968505E+02 -0.39870113375E+03  0.40336315149E+03  0.41800000000E+01 0. -1.
</event>
<event>
11    1  0.7882745E-009  0.1613424E+03  0.7561462E-02  0.1085821E+00
         22   -1    0    0    0    0  0.00000000000E+00  0.00000000000E+00  0.26716197713E+04  0.26716197713E+04  0.00000000000E+00 0.  1.
         22   -1    0    0    0    0 -0.00000000000E+00 -0.00000000000E+00 -0.78669506867E+03  0.78669506867E+03  0.00000000000E+00 0. -1.
        -24    2    1    2    0    0  0.41290263887E+01 -0.30254513944E+02 -0.77423054429E+03  0.77902674097E+03  0.80730062316E+02 0.  0.
         25    2    1    2    0    0  0.90928435641E+02  0.62373591104E+02  0.88941466839E+03  0.90491131391E+03  0.12509032102E+03 0.  0.
         24    2    1    2    0    0 -0.95057462029E+02 -0.32119077160E+02  0.17697405785E+04  0.17743767851E+04  0.79772827447E+02 0.  0.
        -13    1    5    5    0    0 -0.58787638323E+02 -0.33768022264E+02  0.15631889341E+04  0.15646584002E+04  0.00000000000E+00 0.  1.
         14    1    5    5    0    0 -0.36269823706E+02  0.16489451038E+01  0.20655164445E+03  0.20971838488E+03  0.00000000000E+00 0. -1.
         13    1    3    3    0    0 -0.67638531064E+01  0.12507021433E+01 -0.65989304547E+03  0.65992889422E+03  0.00000000000E+00 0. -1.
        -14    1    3    3    0    0  0.10892879495E+02 -0.31505216087E+02 -0.11433749882E+03  0.11909784675E+03  0.00000000000E+00 0.  1.
          5    1    4    4  501    0  0.10602800354E+03  0.20589756737E+02  0.76774047617E+03  0.77531205767E+03  0.41800000000E+01 0.  1.
         -5    1    4    4    0  501 -0.15099567897E+02  0.41783834367E+02  0.12167419222E+03  0.12959925624E+03  0.41800000000E+01 0.  1.
</event>
<event>
11    1  0.7882745E-009  0.1402728E+03  0.7561462E-02  0.1107254E+00
         22   -1    0    0    0    0  0.00000000000E+00  0.00000000000E+00  0.17152139046E+04  0.17152139046E+04  0.00000000000E+00 0.  1.
         22   -1    0    0    0    0 -0.00000000000E+00 -0.00000000000E+00 -0.29010312192E+03  0.29010312192E+03  0.00000000000E+00 0.  1.
        -24    2    1    2    0    0 -0.41410801658E+02  0.38727369920E+02 -0.18869102600E+03  0.21282012411E+03  0.80457679908E+02 0.  0.
         25    2    1    2    0    0  0.64563707923E+02 -0.87549327463E+02 -0.96954379199E+01  0.16605749998E+03  0.12509090560E+03 0.  0.
         24    2    1    2    0    0 -0.23152906266E+02  0.48821957543E+02  0.16234972466E+04  0.16264394025E+04  0.81499567253E+02 0.  0.
        -11    1    5    5    0    0 -0.37882336229E+02  0.65407814097E+02  0.12674648127E+04  0.12697166239E+04  0.00000000000E+00 0.  1.
         12    1    5    5    0    0  0.14729429964E+02 -0.16585856554E+02  0.35603243392E+03  0.35672277857E+03  0.00000000000E+00 0. -1.
         11    1    3    3    0    0 -0.37185832984E+02  0.17405426923E+02 -0.25812553841E+02  0.48497659705E+02  0.00000000000E+00 0. -1.
        -12    1    3    3    0    0 -0.42249686736E+01  0.21321942997E+02 -0.16287847216E+03  0.16432246440E+03  0.00000000000E+00 0.  1.
          5    1    4    4  501    0  0.65825452400E+02 -0.28359986611E+02  0.45506786244E+02  0.85003641208E+02  0.41800000000E+01 0.  1.
         -5    1    4    4    0  501 -0.12617444769E+01 -0.59189340853E+02 -0.55202224164E+02  0.81053858775E+02  0.41800000000E+01 0.  1.
</event>
<event>
11    1  0.7882745E-009  0.2294102E+03  0.7561462E-02  0.1035478E+00
         22   -1    0    0    0    0  0.00000000000E+00  0.00000000000E+00  0.18470546124E+03  0.18470546124E+03  0.00000000000E+00 0. -1.
         22   -1    0    0    0    0 -0.00000000000E+00 -0.00000000000E+00 -0.37421328143E+04  0.37421328143E+04  0.00000000000E+00 0. -1.
         24    2    1    2    0    0 -0.17793448383E+03  0.58479853670E+02 -0.30107838776E+04  0.30176632392E+04  0.79945568395E+02 0.  0.
         25    2    1    2    0    0  0.26705109899E+03  0.57028566083E+02 -0.64826295914E+03  0.71446460645E+03  0.12508502254E+03 0.  0.
        -24    2    1    2    0    0 -0.89116615158E+02 -0.11550841975E+03  0.10161948364E+03  0.19471042991E+03  0.79383033004E+02 0.  0.
        -11    1    3    3    0    0 -0.23857791337E+02  0.34901280191E+02 -0.39929461515E+03  0.40152644153E+03  0.00000000000E+00 0.  1.
         12    1    3    3    0    0 -0.15407669249E+03  0.23578573479E+02 -0.26114892624E+04  0.26161367977E+04  0.00000000000E+00 0. -1.
         13    1    5    5    0    0 -0.89750883177E+02 -0.91956454632E+02  0.11055744468E+03  0.16951153103E+03  0.00000000000E+00 0. -1.
        -14    1    5    5    0    0  0.63426801877E+00 -0.23551965121E+02 -0.89379610384E+01  0.25198898875E+02  0.00000000000E+00 0.  1.
          5    1    4    4  501    0  0.14556611868E+02 -0.23538006270E+00 -0.16939467332E+03  0.17007050921E+03  0.41800000000E+01 0.  1.
         -5    1    4    4    0  501  0.25249448712E+03  0.57263946146E+02 -0.47886828582E+03  0.54439409724E+03  0.41800000000E+01 0.  1.
</event>
<event>
11    1  0.7882745E-009  0.2458967E+03  0.7561462E-02  0.1026108E+00
         22   -1    0    0    0    0  0.00000000000E+00  0.00000000000E+00  0.64154704465E+03  0.64154704465E+03  0.00000000000E+00 0. -1.
         22   -1    0    0    0    0 -0.00000000000E+00 -0.00000000000E+00 -0.28310037958E+04  0.28310037958E+04  0.00000000000E+00 0. -1.
         24    2    1    2    0    0  0.72716745680E+01 -0.47413295734E+02 -0.22387573622E+04  0.22407643949E+04  0.81790272718E+02 0.  0.
         25    2    1    2    0    0  0.13888880141E+03 -0.10765712337E+03 -0.54990772721E+03  0.59070066908E+03  0.12509443088E+03 0.  0.
        -24    2    1    2    0    0 -0.14616047597E+03  0.15507041911E+03  0.59920833827E+03  0.64108577648E+03  0.80812254794E+02 0.  0.
        -11    1    3    3    0    0  0.29612326349E+02 -0.37054610363E+02 -0.61718246551E+03  0.61900252807E+03  0.00000000000E+00 0.  1.
         12    1    3    3    0    0 -0.22340651781E+02 -0.10358685371E+02 -0.16215748967E+04  0.16217618668E+04  0.00000000000E+00 0. -1.
         13    1    5    5    0    0 -0.81488397368E+02  0.80457491917E+02  0.43180532986E+03  0.44673214548E+03  0.00000000000E+00 0. -1.
        -14    1    5    5    0    0 -0.64672078605E+02  0.74612927190E+02  0.16740300842E+03  0.19435363100E+03  0.00000000000E+00 0.  1.
          5    1    4    4  501    0  0.93282836019E+00 -0.47437166851E+02 -0.25673723963E+03  0.26111805296E+03  0.41800000000E+01 0. -1.
         -5    1    4    4    0  501  0.13795597304E+03 -0.60219956522E+02 -0.29317048758E+03  0.32958261612E+03  0.41800000000E+01 0. -1.
</event>
<event>
11    1  0.7882745E-009  0.1403925E+03  0.7561462E-02  0.1107121E+00
         22   -1    0    0    0    0  0.00000000000E+00  0.00000000000E+00  0.49522607361E+03  0.49522607361E+03  0.00000000000E+00 0. -1.
         22   -1    0    0    0    0 -0.00000000000E+00 -0.00000000000E+00 -0.18553055643E+03  0.18553055643E+03  0.00000000000E+00 0.  1.
         24    2    1    2    0    0 -0.55614478099E+02  0.30145829426E+02 -0.13054827882E+03  0.16507620243E+03  0.78775366065E+02 0.  0.
         25    2    1    2    0    0  0.37126901809E+02 -0.72837682901E+02  0.15259992869E+03  0.21358396154E+03  0.12509050925E+03 0.  0.
        -24    2    1    2    0    0  0.18487576290E+02  0.42691853475E+02  0.28764386731E+03  0.30209646607E+03  0.79742683527E+02 0.  0.
        -11    1    3    3    0    0 -0.26602861367E+02  0.49685736826E+01 -0.12298268035E+03  0.12592513102E+03  0.00000000000E+00 0.  1.
         12    1    3    3    0    0 -0.29011616733E+02  0.25177255744E+02 -0.75655984783E+01  0.39151071410E+02  0.00000000000E+00 0. -1.
         11    1    5    5    0    0  0.47326150449E+01  0.36565229390E+02  0.28428851343E+03  0.28666944817E+03  0.00000000000E+00 0. -1.
        -12    1    5    5    0    0  0.13754961245E+02  0.61266240853E+01  0.33553538854E+01  0.15427017898E+02  0.00000000000E+00 0.  1.
          5    1    4    4  501    0 -0.15262683590E+01 -0.95220586136E+02  0.13528840013E+03  0.16549837803E+03  0.41800000000E+01 0.  1.
         -5    1    4    4    0  501  0.38653170168E+02  0.22382903234E+02  0.17311528554E+02  0.48085583517E+02  0.41800000000E+01 0.  1.
</event>
<event>
11    1  0.7882745E-009  0.1405315E+03  0.7561462E-02  0.1106966E+00
         22   -1    0    0    0    0  0.00000000000E+00  0.00000000000E+00  0.86046554437E+03  0.86046554437E+03  0.00000000000E+00 0.  1.
         22   -1    0    0    0    0 -0.00000000000E+00 -0.00000000000E+00 -0.32616420190E+03  0.32616420190E+03  0.00000000000E+00 0.  1.
         24    2    1    2    0    0  0.24067054473E+01 -0.23056366068E+02 -0.28394454239E+03  0.29892691573E+03  0.90528501314E+02 0.  0.
         25    2    1    2    0    0 -0.66029577657E+02  0.16076507221E+02  0.13296150714E+03  0.19479446068E+03  0.12509100815E+03 0.  0.
        -24    2    1    2    0    0  0.63622872210E+02  0.69798588468E+01  0.68528437772E+03  0.69290836986E+03  0.80067111675E+02 0.  0.
        -13    1    3    3    0    0 -0.69982367849E+01 -0.42156999295E+02 -0.27026007381E+03  0.27361779073E+03  0.00000000000E+00 0.  1.
         14    1    3    3    0    0  0.94049422321E+01  0.19100633227E+02 -0.13684468572E+02  0.25309124998E+02  0.00000000000E+00 0. -1.
         13    1    5    5    0    0  0.48125384147E+02  0.29585772636E+02  0.23135395242E+03  0.23815125833E+03  0.00000000000E+00 0. -1.
        -14    1    5    5    0    0  0.15497488062E+02 -0.22605913789E+02  0.45393042530E+03  0.45475711153E+03  0.00000000000E+00 0.  1.
          5    1    4    4  501    0 -0.23444262520E+02  0.49404134069E+02  0.12927993119E+03  0.14043210074E+03  0.41800000000E+01 0.  1.
         -5    1    4    4    0  501 -0.42585315137E+02 -0.33327626847E+02  0.36815759439E+01  0.54362359938E+02  0.41800000000E+01 0.  1.
</event>
<event>
11    1  0.7882745E-009  0.1487162E+03  0.7561462E-02  0.1098198E+00
         22   -1    0    0    0    0  0.00000000000E+00  0.00000000000E+00  0.23690826393E+03  0.23690826393E+03  0.00000000000E+00 0. -1.
         22   -1    0    0    0    0 -0.00000000000E+00 -0.00000000000E+00 -0.37834282762E+03  0.37834282762E+03  0.00000000000E+00 0.  1.
         24    2    1    2    0    0 -0.14411720418E+02 -0.69924835391E+02 -0.19164676179E+03  0.21962194060E+03  0.80050828835E+02 0.  0.
         25    2    1    2    0    0  0.42599835253E+02  0.13741054611E+03 -0.96056175308E+02  0.21347325552E+03  0.12509051867E+03 0.  0.
        -24    2    1    2    0    0 -0.28188114835E+02 -0.67485710721E+02  0.14626837341E+03  0.18215589542E+03  0.80233672531E+02 0.  0.
        -11    1    3    3    0    0 -0.79836479852E+00 -0.23900416773E+02 -0.16080010317E+03  0.16256857165E+03  0.00000000000E+00 0.  1.
         12    1    3    3    0    0 -0.13613355619E+02 -0.46024418618E+02 -0.30846658620E+02  0.57053368948E+02  0.00000000000E+00 0. -1.
         13    1    5    5    0    0  0.16887343824E+02 -0.57440963090E+02  0.10146651417E+03  0.11781383671E+03  0.00000000000E+00 0. -1.
        -14    1    5    5    0    0 -0.45075458660E+02 -0.10044747631E+02  0.44801859244E+02  0.64342058718E+02  0.00000000000E+00 0.  1.
          5    1    4    4  501    0  0.58138998198E+02  0.73986597619E+02  0.35969356654E+01  0.94257997458E+02  0.41800000000E+01 0.  1.
         -5    1    4    4    0  501 -0.15539162945E+02  0.63423948493E+02 -0.99653110974E+02  0.11921525806E+03  0.41800000000E+01 0.  1.
</event>
<event>
11    1  0.7882745E-009  0.2054697E+03  0.7561462E-02  0.1050722E+00
         22   -1    0    0    0    0  0.00000000000E+00  0.00000000000E+00  0.13424151708E+04  0.13424151708E+04  0.00000000000E+00 0.  1.
         22   -1    0    0    0    0 -0.00000000000E+00 -0.00000000000E+00 -0.17470049132E+03  0.17470049132E+03  0.00000000000E+00 0.  1.
         24    2    1    2    0    0 -0.80681114900E+02  0.48384119198E+02 -0.10435331840E+03  0.16440893237E+03  0.85382765762E+02 0.  0.
         25    2    1    2    0    0  0.13156144799E+03  0.11011262349E+03  0.32693155613E+03  0.38982684195E+03  0.12509004703E+03 0.  0.
        -24    2    1    2    0    0 -0.50880333088E+02 -0.15849674269E+03  0.94513644178E+03  0.96287988781E+03  0.78388513422E+02 0.  0.
        -13    1    3    3    0    0 -0.72291740119E+02  0.66683941964E+02 -0.10551562865E+03  0.14424420853E+03  0.00000000000E+00 0.  1.
         14    1    3    3    0    0 -0.83893747804E+01 -0.18299822766E+02  0.11623102442E+01  0.20164723841E+02  0.00000000000E+00 0. -1.
         13    1    5    5    0    0 -0.16087509700E+02 -0.39744333540E+02  0.46793214767E+03  0.46989245029E+03  0.00000000000E+00 0. -1.
        -14    1    5    5    0    0 -0.34792823388E+02 -0.11875240915E+03  0.47720429410E+03  0.49298743752E+03  0.00000000000E+00 0.  1.
          5    1    4    4  501    0  0.15464136240E+01  0.60950787703E+02  0.46443526391E+02  0.76758474844E+02  0.41800000000E+01 0. -1.
         -5    1    4    4    0  501  0.13001503436E+03  0.49161835790E+02  0.28048802973E+03  0.31306836711E+03  0.41800000000E+01 0. -1.
</event>
<event>
11    1  0.7882745E-009  0.1395044E+03  0.7561462E-02  0.1108113E+00
         22   -1    0    0    0    0  0.00000000000E+00  0.00000000000E+00  0.51710699785E+03  0.51710699785E+03  0.00000000000E+00 0. -1.
         22   -1    0    0    0    0 -0.00000000000E+00 -0.00000000000E+00 -0.37276757256E+03  0.37276757256E+03  0.00000000000E+00 0. -1.
         24    2    1    2    0    0  0.13034372137E+02 -0.57738019271E+02 -0.27734815134E+03  0.29521869437E+03  0.82027475466E+02 0.  0.
         25    2    1    2    0    0 -0.57325177286E+01  0.81746583491E+02 -0.15070266174E+02  0.15030106737E+03  0.12509169540E+03 0.  0.
        -24    2    1    2    0    0 -0.73018544083E+01 -0.24008564220E+02  0.43675784281E+03  0.44435480867E+03  0.77872039273E+02 0.  0.
        -11    1    3    3    0    0 -0.32298754172E+02 -0.31840365043E+02 -0.16849879543E+03  0.17449602410E+03  0.00000000000E+00 0.  1.
         12    1    3    3    0    0  0.45333126309E+02 -0.25897654229E+02 -0.10884935591E+03  0.12072267027E+03  0.00000000000E+00 0. -1.
         11    1    5    5    0    0 -0.24878562603E+02 -0.34915742479E+02  0.12972406794E+03  0.13662498217E+03  0.00000000000E+00 0. -1.
        -12    1    5    5    0    0  0.17576708195E+02  0.10907178258E+02  0.30703377486E+03  0.30772982650E+03  0.00000000000E+00 0.  1.
          5    1    4    4  501    0  0.54059115372E+02  0.91280508665E+01 -0.10873629131E+02  0.56048349467E+02  0.41800000000E+01 0.  1.
         -5    1    4    4    0  501 -0.59791633101E+02  0.72618532625E+02 -0.41966370434E+01  0.94252717902E+02  0.41800000000E+01 0.  1.
</event>
<event>
11    1  0.7882745E-009  0.1786355E+03  0.7561462E-02  0.1070752E+00
         22   -1    0    0    0    0  0.00000000000E+00  0.00000000000E+00  0.67212220482E+03  0.67212220482E+03  0.00000000000E+00 0.  1.
         22   -1    0    0    0    0 -0.00000000000E+00 -0.00000000000E+00 -0.56822143740E+03  0.56822143740E+03  0.00000000000E+00 0.  1.
         24    2    1    2    0    0  0.68686003445E+01  0.12805130140E+03 -0.50678003154E+03  0.52898563690E+03  0.80965981875E+02 0.  0.
         25    2    1    2    0    0  0.19547842400E+02 -0.11803333662E+03  0.11447240611E+03  0.20753277822E+03  0.12510769592E+03 0.  0.
        -24    2    1    2    0    0 -0.26416442744E+02 -0.10017964777E+02  0.49620839285E+03  0.50382522710E+03  0.82576644800E+02 0.  0.
        -11    1    3    3    0    0 -0.14588959566E+02  0.56576879047E+02 -0.35584535390E+03  0.36061017301E+03  0.00000000000E+00 0.  1.
         12    1    3    3    0    0  0.21457559910E+02  0.71474422349E+02 -0.15093467763E+03  0.16837546389E+03  0.00000000000E+00 0. -1.
         13    1    5    5    0    0  0.15758538216E+02  0.18544383363E+02  0.61453286295E+02  0.66096384754E+02  0.00000000000E+00 0. -1.
        -14    1    5    5    0    0 -0.42174980960E+02 -0.28562348141E+02  0.43475510655E+03  0.43772884235E+03  0.00000000000E+00 0.  1.
          5    1    4    4  501    0 -0.43258737087E+02 -0.53667389172E+02  0.10256282514E+02  0.69815261411E+02  0.41800000000E+01 0.  1.
         -5    1    4    4    0  501  0.62806579487E+02 -0.64365947447E+02  0.10421612359E+03  0.13771751680E+03  0.41800000000E+01 0.  1.
</event>
<event>
11    1  0.7882745E-009  0.2299911E+03  0.7561462E-02  0.1035133E+00
         22   -1    0    0    0    0  0.00000000000E+00  0.00000000000E+00  0.35581641446E+03  0.35581641446E+03  0.00000000000E+00 0.  1.
         22   -1    0    0    0    0 -0.00000000000E+00 -0.00000000000E+00 -0.60975630574E+03  0.60975630574E+03  0.00000000000E+00 0. -1.
         24    2    1    2    0    0 -0.53870479318E+02 -0.10047489719E+03 -0.29114824825E+03  0.32287850804E+03  0.80535675244E+02 0.  0.
         25    2    1    2    0    0  0.16442885052E+03  0.24084963027E+03 -0.16887841538E+03  0.35945795983E+03  0.12507883282E+03 0.  0.
        -24    2    1    2    0    0 -0.11055837120E+03 -0.14037473308E+03  0.20608677235E+03  0.28323625233E+03  0.76307258939E+02 0.  0.
        -11    1    3    3    0    0 -0.89376847762E+01 -0.21736785358E+02 -0.68568255327E+01  0.24482363106E+02  0.00000000000E+00 0.  1.
         12    1    3    3    0    0 -0.44932794542E+02 -0.78738111830E+02 -0.28429142272E+03  0.29839614493E+03  0.00000000000E+00 0. -1.
         13    1    5    5    0    0 -0.72082258939E+01  0.75574727230E+01  0.16950818982E+01  0.10580511195E+02  0.00000000000E+00 0. -1.
        -14    1    5    5    0    0 -0.10335014531E+03 -0.14793220580E+03  0.20439169045E+03  0.27265574114E+03  0.00000000000E+00 0.  1.
          5    1    4    4  501    0  0.26216235293E+01  0.47287320909E+02 -0.77850361920E+02  0.91220145142E+02  0.41800000000E+01 0. -1.
         -5    1    4    4    0  501  0.16180722699E+03  0.19356230936E+03 -0.91028053462E+02  0.26823781469E+03  0.41800000000E+01 0. -1.
</event>
<event>
11    1  0.7882745E-009  0.1469987E+03  0.7561462E-02  0.1099986E+00
         22   -1    0    0    0    0  0.00000000000E+00  0.00000000000E+00  0.36931092126E+03  0.36931092126E+03  0.00000000000E+00 0. -1.
         22   -1    0    0    0    0 -0.00000000000E+00 -0.00000000000E+00 -0.87827929519E+03  0.87827929519E+03  0.00000000000E+00 0. -1.
         24    2    1    2    0    0  0.72939878240E+02  0.41178231402E+02 -0.69066123255E+03  0.70027068158E+03  0.79688247292E+02 0.  0.
         25    2    1    2    0    0 -0.30121171906E+02 -0.33813249479E+02 -0.15155371172E+03  0.20165768724E+03  0.12508666776E+03 0.  0.
        -24    2    1    2    0    0 -0.42818706334E+02 -0.73649819228E+01  0.33324657033E+03  0.34566184763E+03  0.80877386797E+02 0.  0.
        -13    1    3    3    0    0  0.16895034262E+02 -0.10580052315E+02 -0.35758784540E+02  0.40939838317E+02  0.00000000000E+00 0.  1.
         14    1    3    3    0    0  0.56044843978E+02  0.51758283717E+02 -0.65490244801E+03  0.65933084327E+03  0.00000000000E+00 0. -1.
         11    1    5    5    0    0  0.22314014028E+02 -0.11618087824E+02  0.68062990809E+02  0.72563530127E+02  0.00000000000E+00 0. -1.
        -12    1    5    5    0    0 -0.65132720362E+02  0.42531059016E+01  0.26518357953E+03  0.27309831750E+03  0.00000000000E+00 0.  1.
          5    1    4    4  501    0 -0.62508834106E+02 -0.51261390391E+02 -0.53980195410E+02  0.97295520876E+02  0.41800000000E+01 0. -1.
         -5    1    4    4    0  501  0.32387662200E+02  0.17448140912E+02 -0.97573516307E+02  0.10436216637E+03  0.41800000000E+01 0. -1.
</event>
<event>
11    1  0.7882745E-009  0.1996827E+03  0.7561462E-02  0.1054748E+00
         22   -1    0    0    0    0  0.00000000000E+00  0.00000000000E+00  0.28364703122E+03  0.28364703122E+03  0.00000000000E+00 0. -1.
         22   -1    0    0    0    0 -0.00000000000E+00 -0.00000000000E+00 -0.12142496801E+04  0.12142496801E+04  0.00000000000E+00 0.  1.
         24    2    1    2    0    0 -0.13414699329E+03 -0.81941724432E+02 -0.10970364825E+04  0.11111343666E+04  0.80129112352E+02 0.  0.
         25    2    1    2    0    0  0.12889036691E+03  0.51227335226E+02 -0.16077840204E+02  0.18746456992E+03  0.12508997351E+03 0.  0.
        -24    2    1    2    0    0  0.52566263724E+01  0.30714389206E+02  0.18251167380E+03  0.19929777484E+03  0.73743380411E+02 0.  0.
        -13    1    3    3    0    0 -0.14198432048E+03 -0.71684581681E+02 -0.10610000228E+04  0.10728556636E+04  0.00000000000E+00 0.  1.
         14    1    3    3    0    0  0.78373271914E+01 -0.10257142751E+02 -0.36036459698E+02  0.38278702989E+02  0.00000000000E+00 0. -1.
         13    1    5    5    0    0 -0.12189131136E+02  0.16161976585E+02  0.17378642494E+03  0.17496144118E+03  0.00000000000E+00 0. -1.
        -14    1    5    5    0    0  0.17445757508E+02  0.14552412621E+02  0.87252488606E+01  0.24336333656E+02  0.00000000000E+00 0.  1.
          5    1    4    4  501    0  0.20809360121E+02 -0.13818898411E+02 -0.50625672258E+02  0.56607618865E+02  0.41800000000E+01 0.  1.
         -5    1    4    4    0  501  0.10808100679E+03  0.65046233637E+02  0.34547832054E+02  0.13085695105E+03  0.41800000000E+01 0.  1.
</event>
<event>
11    1  0.7882745E-009  0.2547395E+03  0.7561462E-02  0.1021404E+00
         22   -1    0    0    0    0  0.00000000000E+00  0.00000000000E+00  0.14383310486E+04  0.14383310486E+04  0.00000000000E+00 0.  1.
         22   -1    0    0    0    0 -0.00000000000E+00 -0.00000000000E+00 -0.53694256926E+03  0.53694256926E+03  0.00000000000E+00 0.  1.
        -24    2    1    2    0    0 -0.14793652038E+03 -0.88847807785E+02 -0.39220419611E+03  0.43590494065E+03  0.80061469040E+02 0.  0.
         25    2    1    2    0    0  0.15698410928E+03  0.30128761119E+03  0.18266702833E+03  0.40550260914E+03  0.12508751959E+03 0.  0.
         24    2    1    2    0    0 -0.90475889010E+01 -0.21243980340E+03  0.11109256471E+04  0.11338660681E+04  0.79271293464E+02 0.  0.
        -11    1    5    5    0    0  0.37723350254E+00 -0.21652178854E+03  0.10518462308E+04  0.10739005170E+04  0.00000000000E+00 0.  1.
         12    1    5    5    0    0 -0.94248224035E+01  0.40819851372E+01  0.59079416358E+02  0.59965551087E+02  0.00000000000E+00 0. -1.
         13    1    3    3    0    0 -0.62532319660E+02 -0.13195604930E+01 -0.87323076531E+02  0.10741206607E+03  0.00000000000E+00 0. -1.
        -14    1    3    3    0    0 -0.85404200718E+02 -0.87528247292E+02 -0.30488111958E+03  0.32849287458E+03  0.00000000000E+00 0.  1.
          5    1    4    4  501    0  0.89797796612E+02  0.21329556959E+03  0.57801593373E+02  0.23857313528E+03  0.41800000000E+01 0. -1.
         -5    1    4    4    0  501  0.67186312666E+02  0.87992041603E+02  0.12486543495E+03  0.16692947385E+03  0.41800000000E+01 0. -1.
</event>
<event>
11    1  0.7882745E-009  0.2253620E+03  0.7561462E-02  0.1037910E+00
         22   -1    0    0    0    0  0.00000000000E+00  0.00000000000E+00  0.11567944974E+03  0.11567944974E+03  0.00000000000E+00 0.  1.
         22   -1    0    0    0    0 -0.00000000000E+00 -0.00000000000E+00 -0.28254925480E+04  0.28254925480E+04  0.00000000000E+00 0. -1.
        -24    2    1    2    0    0 -0.34411987613E+02  0.25364760304E+02 -0.23957266616E+04  0.23974412742E+04  0.79942917138E+02 0.  0.
         25    2    1    2    0    0  0.12194988595E+03 -0.17476169908E+03 -0.21808500743E+03  0.32957969362E+03  0.12509307666E+03 0.  0.
         24    2    1    2    0    0 -0.87537898334E+02  0.14939693878E+03 -0.96001429193E+02  0.21415102993E+03  0.81621444805E+02 0.  0.
        -13    1    5    5    0    0 -0.34492205865E+02  0.12136224448E+03 -0.40744522032E+02  0.13258439850E+03  0.00000000000E+00 0.  1.
         14    1    5    5    0    0 -0.53045692469E+02  0.28034694302E+02 -0.55256907160E+02  0.81566631431E+02  0.00000000000E+00 0. -1.
         11    1    3    3    0    0  0.16653346307E+02  0.31083814292E+02 -0.64743545765E+03  0.64839510276E+03  0.00000000000E+00 0. -1.
        -12    1    3    3    0    0 -0.51065333920E+02 -0.57190539872E+01 -0.17482912040E+04  0.17490461715E+04  0.00000000000E+00 0.  1.
          5    1    4    4  501    0 -0.10529423337E+02 -0.83978482497E+02 -0.57341325979E+02  0.10231693087E+03  0.41800000000E+01 0. -1.
         -5    1    4    4    0  501  0.13247930928E+03 -0.90783216585E+02 -0.16074368145E+03  0.22726276274E+03  0.41800000000E+01 0. -1.
</event>
<event>
11    1  0.7882745E-009  0.2800056E+03  0.7561462E-02  0.1009027E+00
         22   -1    0    0    0    0  0.00000000000E+00  0.00000000000E+00  0.25553503121E+04  0.25553503121E+04  0.00000000000E+00 0. -1.
         22   -1    0    0    0    0 -0.00000000000E+00 -0.00000000000E+00 -0.14949774599E+04  0.14949774599E+04  0.00000000000E+00 0. -1.
        -24    2    1    2    0    0  0.93238830538E+01 -0.48038744774E+02 -0.13625881708E+04  0.13669351396E+04  0.97316477560E+02 0.  0.
         25    2    1    2    0    0 -0.15948697100E+01 -0.20503724021E+03 -0.57000286675E+01  0.24025671795E+03  0.12509191305E+03 0.  0.
         24    2    1    2    0    0 -0.77290133438E+01  0.25307598498E+03  0.24286610517E+04  0.24431359145E+04  0.80071223296E+02 0.  0.
        -13    1    5    5    0    0 -0.12119479444E+02 -0.27762447043E+00  0.10245751591E+03  0.10317219307E+03  0.00000000000E+00 0.  1.
         14    1    5    5    0    0  0.43904660998E+01  0.25335360945E+03  0.23262035358E+04  0.23399637214E+04  0.00000000000E+00 0. -1.
         11    1    3    3    0    0  0.14787459359E+02 -0.33443878253E+01 -0.11259020281E+04  0.11260040989E+04  0.00000000000E+00 0. -1.
        -12    1    3    3    0    0 -0.54635763056E+01 -0.44694356949E+02 -0.23668614271E+03  0.24093104067E+03  0.00000000000E+00 0.  1.
          5    1    4    4  501    0  0.38761690000E+02 -0.19346114787E+03 -0.11413121508E+02  0.19768008521E+03  0.41800000000E+01 0. -1.
         -5    1    4    4    0  501 -0.40356559710E+02 -0.11576092345E+02  0.57130928408E+01  0.42576632740E+02  0.41800000000E+01 0. -1.
</event>
<event>
11    1  0.7882745E-009  0.1526500E+03  0.7561462E-02  0.1094201E+00
         22   -1    0    0    0    0  0.00000000000E+00  0.00000000000E+00  0.41046375509E+03  0.41046375509E+03  0.00000000000E+00 0. -1.
         22   -1    0    0    0    0 -0.00000000000E+00 -0.00000000000E+00 -0.53971242573E+03  0.53971242573E+03  0.00000000000E+00 0.  1.
        -24    2    1    2    0    0  0.74005644309E+02 -0.12396560564E+02 -0.40081837650E+03  0.41530799546E+03  0.78707369723E+02 0.  0.
         25    2    1    2    0    0 -0.83407907223E+02 -0.74732118518E+02 -0.63028275294E+02  0.17933781045E+03  0.12509083998E+03 0.  0.
         24    2    1    2    0    0  0.94022629140E+01  0.87128679082E+02  0.33459798116E+03  0.35553037491E+03  0.82257092207E+02 0.  0.
        -13    1    5    5    0    0  0.20302459536E+02 -0.76414693317E+01  0.99065455717E+02  0.10141275281E+03  0.00000000000E+00 0.  1.
         14    1    5    5    0    0 -0.10900196622E+02  0.94770148414E+02  0.23553252545E+03  0.25411762210E+03  0.00000000000E+00 0. -1.
         13    1    3    3    0    0  0.21352023324E+02  0.25704411252E+02 -0.63194968090E+02  0.71485870280E+02  0.00000000000E+00 0. -1.
        -14    1    3    3    0    0  0.52653620986E+02 -0.38100971816E+02 -0.33762340841E+03  0.34382212518E+03  0.00000000000E+00 0.  1.
          5    1    4    4  501    0 -0.20614325893E+02  0.35034823957E+02 -0.95037116270E+01  0.41954526054E+02  0.41800000000E+01 0. -1.
         -5    1    4    4    0  501 -0.62793581330E+02 -0.10976694247E+03 -0.53524563667E+02  0.13738328440E+03  0.41800000000E+01 0. -1.
</event>
<event>
11    1  0.7882745E-009  0.1726772E+03  0.7561462E-02  0.1075725E+00
         22   -1    0    0    0    0  0.00000000000E+00  0.00000000000E+00  0.60847914373E+03  0.60847914373E+03  0.00000000000E+00 0. -1.
         22   -1    0    0    0    0 -0.00000000000E+00 -0.00000000000E+00 -0.35056542116E+03  0.35056542116E+03  0.00000000000E+00 0. -1.
        -24    2    1    2    0    0 -0.48382141709E+02 -0.12118323651E+03 -0.27867523773E+03  0.31505730265E+03  0.67638800857E+02 0.  0.
         25    2    1    2    0    0  0.50480968781E+02  0.36215167516E+02  0.58369410581E+02  0.15137467258E+03  0.12508971516E+03 0.  0.
         24    2    1    2    0    0 -0.20988270725E+01  0.84968068994E+02  0.47821954972E+03  0.49261258968E+03  0.82153806691E+02 0.  0.
        -13    1    5    5    0    0  0.28356615139E+02  0.49306287355E+02  0.13931675197E+03  0.15048044715E+03  0.00000000000E+00 0.  1.
         14    1    5    5    0    0 -0.30455442211E+02  0.35661781639E+02  0.33890279775E+03  0.34213214253E+03  0.00000000000E+00 0. -1.
         13    1    3    3    0    0 -0.27560482812E+01 -0.84354111711E+02 -0.19877245237E+03  0.21594837297E+03  0.00000000000E+00 0. -1.
        -14    1    3    3    0    0 -0.45626093427E+02 -0.36829124800E+02 -0.79902785354E+02  0.99108929680E+02  0.00000000000E+00 0.  1.
          5    1    4    4  501    0  0.55623364496E+02  0.25667482475E+02 -0.25571653399E+02  0.66514360796E+02  0.41800000000E+01 0. -1.
         -5    1    4    4    0  501 -0.51423957153E+01  0.10547685041E+02  0.83941063980E+02  0.84860311781E+02  0.41800000000E+01 0. -1.
</event>
<event>
11    1  0.7882745E-009  0.1874996E+03  0.7561462E-02  0.1063733E+00
         22   -1    0    0    0    0  0.00000000000E+00  0.00000000000E+00  0.19359947207E+03  0.19359947207E+03  0.00000000000E+00 0. -1.
         22   -1    0    0    0    0 -0.00000000000E+00 -0.00000000000E+00 -0.11538832370E+04  0.11538832370E+04  0.00000000000E+00 0. -1.
        -24    2    1    2    0    0 -0.14386772036E+03  0.11834305673E+03 -0.72795836316E+03  0.75551231366E+03  0.78565116712E+02 0.  0.
         25    2    1    2    0    0 -0.97884646963E+01 -0.11011980368E+03 -0.34623078209E+03  0.38437610739E+03  0.12508817792E+03 0.  0.
         24    2    1    2    0    0  0.15365618505E+03 -0.82232530568E+01  0.11390538035E+03  0.20759428799E+03  0.80268970564E+02 0.  0.
        -13    1    5    5    0    0  0.12299088951E+02 -0.16389613478E+02 -0.67421845042E+01  0.21571835130E+02  0.00000000000E+00 0.  1.
         14    1    5    5    0    0  0.14135709610E+03  0.81663604210E+01  0.12064756486E+03  0.18602245286E+03  0.00000000000E+00 0. -1.
         13    1    3    3    0    0 -0.11873449558E+03  0.12442149718E+03 -0.56764043732E+03  0.59312246246E+03  0.00000000000E+00 0. -1.
        -14    1    3    3    0    0 -0.25133224780E+02 -0.60784404471E+01 -0.16031792585E+03  0.16238985120E+03  0.00000000000E+00 0.  1.
          5    1    4    4  501    0  0.11511008300E+02 -0.34622859935E+01  0.71605778343E+01  0.14602637135E+02  0.41800000000E+01 0. -1.
         -5    1    4    4    0  501 -0.21299472996E+02 -0.10665751768E+03 -0.35339135993E+03  0.36977347025E+03  0.41800000000E+01 0. -1.
</event>
<event>
11    1  0.7882745E-009  0.1373094E+03  0.7561462E-02  0.1110601E+00
         22   -1    0    0    0    0  0.00000000000E+00  0.00000000000E+00  0.94826912041E+02  0.94826912041E+02  0.00000000000E+00 0.  1.
         22   -1    0    0    0    0 -0.00000000000E+00 -0.00000000000E+00 -0.40881214267E+04  0.40881214267E+04  0.00000000000E+00 0. -1.
        -24    2    1    2    0    0 -0.97143202404E+01  0.31305951244E+02 -0.31969036427E+04  0.31980947196E+04  0.80885749318E+02 0.  0.
         25    2    1    2    0    0  0.55968026637E+02  0.18930122274E+01 -0.85809409840E+03  0.86896988782E+03  0.12508869149E+03 0.  0.
         24    2    1    2    0    0 -0.46253706397E+02 -0.33198963472E+02  0.61703226395E+02  0.11588373133E+03  0.79875994565E+02 0.  0.
        -11    1    5    5    0    0 -0.47601363521E+02 -0.53101238387E+02  0.63978589457E+02  0.95806530238E+02  0.00000000000E+00 0.  1.
         12    1    5    5    0    0  0.13476571239E+01  0.19902274916E+02 -0.22753630617E+01  0.20077201090E+02  0.00000000000E+00 0. -1.
         11    1    3    3    0    0  0.22313007778E+02  0.14951261922E+02 -0.25824299831E+04  0.25825696560E+04  0.00000000000E+00 0. -1.
        -12    1    3    3    0    0 -0.32027328018E+02  0.16354689323E+02 -0.61447365962E+03  0.61552506364E+03  0.00000000000E+00 0.  1.
          5    1    4    4  501    0 -0.95992297024E+01 -0.23230460565E+02 -0.62439192276E+03  0.62491162984E+03  0.41800000000E+01 0.  1.
         -5    1    4    4    0  501  0.65567256340E+02  0.25123472793E+02 -0.23370217564E+03  0.24405825798E+03  0.41800000000E+01 0.  1.
</event>
<event>
11    1  0.7882745E-009  0.1560256E+03  0.7561462E-02  0.1090876E+00
         22   -1    0    0    0    0  0.00000000000E+00  0.00000000000E+00  0.93850278095E+03  0.93850278095E+03  0.00000000000E+00 0.  1.
         22   -1    0    0    0    0 -0.00000000000E+00 -0.00000000000E+00 -0.13590856837E+03  0.13590856837E+03  0.00000000000E+00 0.  1.
        -24    2    1    2    0    0  0.88082743886E+02  0.33147164648E+02 -0.66229631053E+02  0.14074561200E+03  0.81028753991E+02 0.  0.
         25    2    1    2    0    0 -0.86172232813E+02 -0.22145156468E+02  0.16606887330E+03  0.22616062669E+03  0.12511473423E+03 0.  0.
         24    2    1    2    0    0 -0.19105110729E+01 -0.11002008180E+02  0.70275497034E+03  0.70750511063E+03  0.81081681040E+02 0.  0.
        -13    1    5    5    0    0  0.26354004825E+02  0.17742467653E+02  0.48572426671E+03  0.48676215137E+03  0.00000000000E+00 0.  1.
         14    1    5    5    0    0 -0.28264515898E+02 -0.28744475833E+02  0.21703070363E+03  0.22074295927E+03  0.00000000000E+00 0. -1.
         13    1    3    3    0    0  0.38899250804E+02  0.48661376811E+02 -0.77572483535E+01  0.62779425039E+02  0.00000000000E+00 0. -1.
        -14    1    3    3    0    0  0.49183493082E+02 -0.15514212162E+02 -0.58472382700E+02  0.77966186962E+02  0.00000000000E+00 0.  1.
          5    1    4    4  501    0 -0.11508211088E+03 -0.27300577783E+02  0.10476669561E+03  0.15805931386E+03  0.41800000000E+01 0. -1.
         -5    1    4    4    0  501  0.28909878063E+02  0.51554213151E+01  0.61302177693E+02  0.68101312825E+02  0.41800000000E+01 0. -1.
</event>
<event>
11    1  0.7882745E-009  0.1437210E+03  0.7561462E-02  0.1103473E+00
         22   -1    0    0    0    0  0.00000000000E+00  0.00000000000E+00  0.16251611008E+03  0.16251611008E+03  0.00000000000E+00 0. -1.
         22   -1    0    0    0    0 -0.00000000000E+00 -0.00000000000E+00 -0.15604981063E+04  0.15604981063E+04  0.00000000000E+00 0. -1.
         24    2    1    2    0    0 -0.22568364504E+02 -0.32095433541E+02 -0.71893441275E+03  0.72555885700E+03  0.89607573327E+02 0.  0.
         25    2    1    2    0    0 -0.47541609785E+02  0.18569353853E+02 -0.81389678181E+03  0.82503331672E+03  0.12508787589E+03 0.  0.
        -24    2    1    2    0    0  0.70109974289E+02  0.13526079688E+02  0.13484919835E+03  0.17242204265E+03  0.80291289501E+02 0.  0.
        -13    1    3    3    0    0  0.32116629151E+02 -0.15322429357E+02 -0.17205528759E+03  0.17569654719E+03  0.00000000000E+00 0.  1.
         14    1    3    3    0    0 -0.54684993655E+02 -0.16773004184E+02 -0.54687912517E+03  0.54986230980E+03  0.00000000000E+00 0. -1.
         13    1    5    5    0    0  0.14580042704E+01 -0.14727574095E+02  0.76716988903E+02  0.78131450784E+02  0.00000000000E+00 0. -1.
        -14    1    5    5    0    0  0.68651970019E+02  0.28253653783E+02  0.58132209446E+02  0.94290591867E+02  0.00000000000E+00 0.  1.
          5    1    4    4  501    0  0.40113315518E+02 -0.35226242853E+01 -0.16695659437E+03  0.17179483045E+03  0.41800000000E+01 0. -1.
         -5    1    4    4    0  501 -0.87654925303E+02  0.22091978138E+02 -0.64694018744E+03  0.65323848628E+03  0.41800000000E+01 0. -1.
</event>
<event>
11    1  0.7882745E-009  0.1362660E+03  0.7561462E-02  0.1111801E+00
         22   -1    0    0    0    0  0.00000000000E+00  0.00000000000E+00  0.22472381202E+04  0.22472381202E+04  0.00000000000E+00 0.  1.
         22   -1    0    0    0    0 -0.00000000000E+00 -0.00000000000E+00 -0.71688406100E+02  0.71688406100E+02  0.00000000000E+00 0. -1.
         24    2    1    2    0    0  0.54813337413E+02 -0.24294391524E+01 -0.56827592029E+01  0.11744578303E+03  0.10368613246E+03 0.  0.
         25    2    1    2    0    0 -0.47088287827E+02 -0.10942735876E+02  0.48284162260E+03  0.50112037887E+03  0.12509416965E+03 0.  0.
        -24    2    1    2    0    0 -0.77250495858E+01  0.13372175028E+02  0.16983908507E+04  0.17003603644E+04  0.80345476819E+02 0.  0.
        -11    1    3    3    0    0  0.74475565975E+02  0.11046421237E+02  0.24325255978E+02  0.79122382597E+02  0.00000000000E+00 0.  1.
         12    1    3    3    0    0 -0.19662228563E+02 -0.13475860389E+02 -0.30008015181E+02  0.38323400428E+02  0.00000000000E+00 0. -1.
         13    1    5    5    0    0  0.94239366435E+01 -0.26968154722E+02  0.31997288581E+03  0.32124560636E+03  0.00000000000E+00 0. -1.
        -14    1    5    5    0    0 -0.17148986229E+02  0.40340329751E+02  0.13784179649E+04  0.13791147581E+04  0.00000000000E+00 0.  1.
          5    1    4    4  501    0 -0.39368584391E+02 -0.85986457835E+01  0.48865629940E+03  0.49033281910E+03  0.41800000000E+01 0. -1.
         -5    1    4    4    0  501 -0.77197034357E+01 -0.23440900923E+01 -0.58146767948E+01  0.10787559767E+02  0.41800000000E+01 0. -1.
</event>
<event>
11    1  0.7882745E-009  0.1736322E+03  0.7561462E-02  0.1074913E+00
         22   -1    0    0    0    0  0.00000000000E+00  0.00000000000E+00  0.11974064074E+04  0.11974064074E+04  0.00000000000E+00 0. -1.
         22   -1    0    0    0    0 -0.00000000000E+00 -0.00000000000E+00 -0.38203275394E+03  0.38203275394E+03  0.00000000000E+00 0. -1.
        -24    2    1    2    0    0  0.35887330679E+01  0.12878980292E+03 -0.31195291502E+03  0.34695633571E+03  0.80401401482E+02 0.  0.
         25    2    1    2    0    0 -0.25271468112E+01 -0.70890724642E+02  0.52530129315E+02  0.15309901720E+03  0.12509201921E+03 0.  0.
         24    2    1    2    0    0 -0.10615862567E+01 -0.57899078280E+02  0.10747964391E+04  0.10793838084E+04  0.80799690698E+02 0.  0.
        -11    1    5    5    0    0 -0.13088320480E+02  0.15225003186E+02  0.11573995564E+03  0.11746847316E+03  0.00000000000E+00 0.  1.
         12    1    5    5    0    0  0.12026734223E+02 -0.73124081466E+02  0.95905648348E+03  0.96191533522E+03  0.00000000000E+00 0. -1.
         11    1    3    3    0    0  0.29977677167E+02  0.11879609512E+03 -0.26867016534E+03  0.29528770900E+03  0.00000000000E+00 0. -1.
        -12    1    3    3    0    0 -0.26388944099E+02  0.99937078001E+01 -0.43282749683E+02  0.51668626712E+02  0.00000000000E+00 0.  1.
          5    1    4    4  501    0  0.73595043601E+01 -0.10124699527E+03  0.62631333544E+02  0.11935356173E+03  0.41800000000E+01 0. -1.
         -5    1    4    4    0  501 -0.98866511713E+01  0.30356270631E+02 -0.10101204229E+02  0.33745455470E+02  0.41800000000E+01 0. -1.
</event>
<event>
11    1  0.7882745E-009  0.1383309E+03  0.7561462E-02  0.1109437E+00
         22   -1    0    0    0    0  0.00000000000E+00  0.00000000000E+00  0.57506381991E+03  0.57506381991E+03  0.00000000000E+00 0.  1.
         22   -1    0    0    0    0 -0.00000000000E+00 -0.00000000000E+00 -0.40617439736E+03  0.40617439736E+03  0.00000000000E+00 0. -1.
         24    2    1    2    0    0 -0.33888215820E+02  0.12818322131E+02 -0.37365086494E+03  0.38382791417E+03  0.79976110626E+02 0.  0.
         25    2    1    2    0    0  0.43231663853E+02  0.46757454316E+02  0.23176992743E+03  0.27096070153E+03  0.12508863345E+03 0.  0.
        -24    2    1    2    0    0 -0.93434480334E+01 -0.59575776447E+02  0.31077036006E+03  0.32644960157E+03  0.79715447164E+02 0.  0.
        -11    1    3    3    0    0  0.20036046754E+02 -0.99794666713E+01 -0.48081008842E+02  0.53035990948E+02  0.00000000000E+00 0.  1.
         12    1    3    3    0    0 -0.53924262573E+02  0.22797788802E+02 -0.32556985609E+03  0.33079192322E+03  0.00000000000E+00 0. -1.
         13    1    5    5    0    0  0.33850927662E+02 -0.14151827246E+02  0.98214975859E+02  0.10484436561E+03  0.00000000000E+00 0. -1.
        -14    1    5    5    0    0 -0.43194375696E+02 -0.45423949201E+02  0.21255538420E+03  0.22160523596E+03  0.00000000000E+00 0.  1.
          5    1    4    4  501    0 -0.36979979196E+02  0.43107191718E+02  0.69411237694E+02  0.89783858000E+02  0.41800000000E+01 0.  1.
         -5    1    4    4    0  501  0.80211643049E+02  0.36502625980E+01  0.16235868974E+03  0.18117684353E+03  0.41800000000E+01 0.  1.
</event>
<event>
11    1  0.7882745E-009  0.1459175E+03  0.7561462E-02  0.1101125E+00
         22   -1    0    0    0    0  0.00000000000E+00  0.00000000000E+00  0.17778361939E+03  0.17778361939E+03  0.00000000000E+00 0. -1.
         22   -1    0    0    0    0 -0.00000000000E+00 -0.00000000000E+00 -0.44572525941E+03  0.44572525941E+03  0.00000000000E+00 0. -1.
         24    2    1    2    0    0 -0.39897970467E+02 -0.66737309688E+02 -0.34235769929E+03  0.36034225932E+03  0.81191335943E+02 0.  0.
         25    2    1    2    0    0  0.39799102817E+01  0.62655180185E+02 -0.12791449014E+02  0.14054310292E+03  0.12508889367E+03 0.  0.
        -24    2    1    2    0    0  0.35918060186E+02  0.40821295032E+01  0.87207508295E+02  0.12262351657E+03  0.78259865089E+02 0.  0.
        -13    1    3    3    0    0  0.84738486341E+01  0.34241500839E+01 -0.18403283564E+01  0.93229674959E+01  0.00000000000E+00 0.  1.
         14    1    3    3    0    0 -0.48371819101E+02 -0.70161459772E+02 -0.34051737094E+03  0.35101929182E+03  0.00000000000E+00 0. -1.
         13    1    5    5    0    0  0.40438940708E+01 -0.26252535738E+02  0.70874096144E+02  0.75688085034E+02  0.00000000000E+00 0. -1.
        -14    1    5    5    0    0  0.31874166115E+02  0.30334665241E+02  0.16333412151E+02  0.46935431534E+02  0.00000000000E+00 0.  1.
          5    1    4    4  501    0 -0.50991090100E+01 -0.27063672478E+02 -0.37720068168E+02  0.46890502485E+02  0.41800000000E+01 0. -1.
         -5    1    4    4    0  501  0.90790192917E+01  0.89718852663E+02  0.24928619154E+02  0.93652600431E+02  0.41800000000E+01 0. -1.
</event>
<event>
11    1  0.7882745E-009  0.1561210E+03  0.7561462E-02  0.1090783E+00
         22   -1    0    0    0    0  0.00000000000E+00  0.00000000000E+00  0.24786469515E+04  0.24786469515E+04  0.00000000000E+00 0.  1.
         22   -1    0    0    0    0 -0.00000000000E+00 -0.00000000000E+00 -0.25184304245E+03  0.25184304245E+03  0.00000000000E+00 0. -1.
        -24    2    1    2    0    0 -0.24388472092E+02  0.60648122434E+02 -0.22504871053E+03  0.24804305609E+03  0.81273877946E+02 0.  0.
         25    2    1    2    0    0 -0.58786408438E+02 -0.10111004444E+03  0.53363819244E+03  0.56044302936E+03  0.12509031063E+03 0.  0.
         24    2    1    2    0    0  0.83174880530E+02  0.40461922009E+02  0.19182144271E+04  0.19220039085E+04  0.77441642361E+02 0.  0.
        -13    1    5    5    0    0  0.87556242643E+02  0.13111012012E+02  0.16472369277E+04  0.16496143459E+04  0.00000000000E+00 0.  1.
         14    1    5    5    0    0 -0.43813621131E+01  0.27350909997E+02  0.27097749950E+03  0.27238956266E+03  0.00000000000E+00 0. -1.
         13    1    3    3    0    0  0.49825705104E+01  0.71897998433E+02 -0.16994075281E+03  0.18459146148E+03  0.00000000000E+00 0. -1.
        -14    1    3    3    0    0 -0.29371042603E+02 -0.11249875999E+02 -0.55107957721E+02  0.63451594604E+02  0.00000000000E+00 0.  1.
          5    1    4    4  501    0 -0.56660289768E+01  0.20420638482E+02  0.18349930247E+02  0.28342524596E+02  0.41800000000E+01 0. -1.
         -5    1    4    4    0  501 -0.53120379461E+02 -0.12153068293E+03  0.51528826220E+03  0.53210050476E+03  0.41800000000E+01 0. -1.
</event>
<event>
11    1  0.7882745E-009  0.1465920E+03  0.7561462E-02  0.1100413E+00
         22   -1    0    0    0    0  0.00000000000E+00  0.00000000000E+00  0.22311140661E+03  0.22311140661E+03  0.00000000000E+00 0.  1.
         22   -1    0    0    0    0 -0.00000000000E+00 -0.00000000000E+00 -0.14338018304E+04  0.14338018304E+04  0.00000000000E+00 0. -1.
         24    2    1    2    0    0  0.43049861452E+02  0.43621550592E+02 -0.12505451481E+04  0.12546904390E+04  0.81417442630E+02 0.  0.
         25    2    1    2    0    0 -0.15614726169E+02 -0.11236229426E+03 -0.12138295561E+03  0.20797072684E+03  0.12509554934E+03 0.  0.
        -24    2    1    2    0    0 -0.27435135284E+02  0.68740743665E+02  0.16123767998E+03  0.19425207115E+03  0.79109425543E+02 0.  0.
        -13    1    3    3    0    0  0.35157153994E+02  0.41714085883E+02 -0.36015340977E+03  0.36426167656E+03  0.00000000000E+00 0.  1.
         14    1    3    3    0    0  0.78927074584E+01  0.19074647097E+01 -0.89039173834E+03  0.89042876243E+03  0.00000000000E+00 0. -1.
         11    1    5    5    0    0  0.21822430382E+02 -0.19646905966E+01  0.27581938983E+02  0.35225584948E+02  0.00000000000E+00 0. -1.
        -12    1    5    5    0    0 -0.49257565665E+02  0.70705434261E+02  0.13365574100E+03  0.15902648620E+03  0.00000000000E+00 0.  1.
          5    1    4    4  501    0 -0.52055449130E+02 -0.11916380827E+03 -0.82343097333E+02  0.15397285820E+03  0.41800000000E+01 0. -1.
         -5    1    4    4    0  501  0.36440722962E+02  0.68015140101E+01 -0.39039858277E+02  0.53997868634E+02  0.41800000000E+01 0. -1.
</event>
<event>
11    1  0.7882745E-009  0.1558682E+03  0.7561462E-02  0.1091029E+00
         22   -1    0    0    0    0  0.00000000000E+00  0.00000000000E+00  0.44578838557E+03  0.44578838557E+03  0.00000000000E+00 0.  1.
         22   -1    0    0    0    0 -0.00000000000E+00 -0.00000000000E+00 -0.12256834833E+04  0.12256834833E+04  0.00000000000E+00 0.  1.
        -24    2    1    2    0    0 -0.80088545430E+02  0.27013774611E+02 -0.82535836453E+03  0.83357712037E+03  0.80563431993E+02 0.  0.
         25    2    1    2    0    0  0.10579020066E+03 -0.11518947084E+03 -0.36134969325E+03  0.41314459425E+03  0.12511864048E+03 0.  0.
         24    2    1    2    0    0 -0.25701655230E+02  0.88175696228E+02  0.40681296004E+03  0.42475015426E+03  0.80500811166E+02 0.  0.
        -11    1    5    5    0    0  0.24102207007E+01  0.72205430289E+02  0.36400154200E+03  0.37110181340E+03  0.00000000000E+00 0.  1.
         12    1    5    5    0    0 -0.28111875931E+02  0.15970265939E+02  0.42811418034E+02  0.53648340856E+02  0.00000000000E+00 0. -1.
         13    1    3    3    0    0 -0.64075814238E+02 -0.18068879836E+02 -0.39543856109E+03  0.40100355358E+03  0.00000000000E+00 0. -1.
        -14    1    3    3    0    0 -0.16012731192E+02  0.45082654447E+02 -0.42991980344E+03  0.43257356679E+03  0.00000000000E+00 0.  1.
          5    1    4    4  501    0  0.12681601207E+03 -0.59478118850E+02 -0.26588407602E+03  0.30055242774E+03  0.41800000000E+01 0.  1.
         -5    1    4    4    0  501 -0.21025811408E+02 -0.55711351989E+02 -0.95465617232E+02  0.11259216651E+03  0.41800000000E+01 0.  1.
</event>
<event>
11    1  0.7882745E-009  0.1579841E+03  0.7561462E-02  0.1088989E+00
         22   -1    0    0    0    0  0.00000000000E+00  0.00000000000E+00  0.15108385986E+04  0.15108385986E+04  0.00000000000E+00 0. -1.
         22   -1    0    0    0    0 -0.00000000000E+00 -0.00000000000E+00 -0.15070647996E+04  0.15070647996E+04  0.00000000000E+00 0.  1.
        -24    2    1    2    0    0 -0.96380064292E+02  0.14216350561E+00 -0.14883103300E+04  0.14936124970E+04  0.80755902441E+02 0.  0.
         25    2    1    2    0    0  0.11795734799E+03 -0.83575096925E+01  0.50053593865E+03  0.52930947777E+03  0.12509401847E+03 0.  0.
         24    2    1    2    0    0 -0.21577283694E+02  0.82153461869E+01  0.99154819031E+03  0.99498142347E+03  0.79291539581E+02 0.  0.
        -11    1    5    5    0    0  0.16341096096E+02 -0.25489027232E+02  0.28164488203E+03  0.28326764994E+03  0.00000000000E+00 0.  1.
         12    1    5    5    0    0 -0.37918379790E+02  0.33704373419E+02  0.70990330828E+03  0.71171377352E+03  0.00000000000E+00 0. -1.
         13    1    3    3    0    0  0.87234450126E+01 -0.85854644609E+01 -0.51410358154E+02  0.52847266897E+02  0.00000000000E+00 0. -1.
        -14    1    3    3    0    0 -0.10510350930E+03  0.87276279665E+01 -0.14368999718E+04  0.14407652301E+04  0.00000000000E+00 0.  1.
          5    1    4    4  501    0  0.33068646008E+02  0.56219362516E+02  0.19573829805E+03  0.20636158992E+03  0.41800000000E+01 0. -1.
         -5    1    4    4    0  501  0.84888701979E+02 -0.64576872208E+02  0.30479764060E+03  0.32294788785E+03  0.41800000000E+01 0. -1.
</event>
<event>
11    1  0.7882745E-009  0.1689187E+03  0.7561462E-02  0.1078977E+00
         22   -1    0    0    0    0  0.00000000000E+00  0.00000000000E+00  0.12837650656E+04  0.12837650656E+04  0.00000000000E+00 0.  1.
         22   -1    0    0    0    0 -0.00000000000E+00 -0.00000000000E+00 -0.83027572725E+02  0.83027572725E+02  0.00000000000E+00 0. -1.
         24    2    1    2    0    0  0.21549314940E+02  0.20252683755E+02 -0.26737057361E+02  0.96792604074E+02  0.88200871841E+02 0.  0.
         25    2    1    2    0    0  0.58273244367E+02  0.72217577718E+02  0.38889469745E+03  0.41892409080E+03  0.12508860302E+03 0.  0.
        -24    2    1    2    0    0 -0.79822559307E+02 -0.92470261473E+02  0.83857985281E+03  0.85107594348E+03  0.78687367438E+02 0.  0.
        -11    1    3    3    0    0 -0.52346229025E+01  0.18598087853E+02  0.29049215282E+02  0.34887634732E+02  0.00000000000E+00 0.  1.
         12    1    3    3    0    0  0.26783937842E+02  0.16545959019E+01 -0.55786272642E+02  0.61904969342E+02  0.00000000000E+00 0. -1.
         11    1    5    5    0    0  0.72272079637E+01  0.34339621766E+01  0.16278279212E+03  0.16297933011E+03  0.00000000000E+00 0. -1.
        -12    1    5    5    0    0 -0.87049767270E+02 -0.95904223650E+02  0.67579706069E+03  0.68809661337E+03  0.00000000000E+00 0.  1.
          5    1    4    4  501    0  0.17831090738E+02 -0.10855939043E+01 -0.26234207637E+01  0.18533241690E+02  0.41800000000E+01 0.  1.
         -5    1    4    4    0  501  0.40442153629E+02  0.73303171622E+02  0.39151811821E+03  0.40039084911E+03  0.41800000000E+01 0.  1.
</event>
<event>
11    1  0.7882745E-009  0.1458985E+03  0.7561462E-02  0.1101145E+00
         22   -1    0    0    0    0  0.00000000000E+00  0.00000000000E+00  0.29724133339E+03  0.29724133339E+03  0.00000000000E+00 0. -1.
         22   -1    0    0    0    0 -0.00000000000E+00 -0.00000000000E+00 -0.75903894647E+03  0.75903894647E+03  0.00000000000E+00 0.  1.
         24    2    1    2    0    0  0.31732810433E+02  0.46594168753E+01 -0.67810310529E+03  0.68362198399E+03  0.80538898491E+02 0.  0.
         25    2    1    2    0    0  0.14973706218E+01  0.66104333600E+02  0.14545642240E+02  0.14223624610E+03  0.12509016331E+03 0.  0.
        -24    2    1    2    0    0 -0.33230181055E+02 -0.70763750475E+02  0.20175984997E+03  0.23042204977E+03  0.79218246928E+02 0.  0.
        -11    1    3    3    0    0  0.28531707599E+02  0.40587623539E+02 -0.34008888792E+03  0.34368861664E+03  0.00000000000E+00 0.  1.
         12    1    3    3    0    0  0.32011028345E+01 -0.35928206664E+02 -0.33801421737E+03  0.33993336735E+03  0.00000000000E+00 0. -1.
         13    1    5    5    0    0 -0.62715167080E+01 -0.78126337056E+02  0.11418578023E+03  0.13849710781E+03  0.00000000000E+00 0. -1.
        -14    1    5    5    0    0 -0.26958664347E+02  0.73625865814E+01  0.87574069741E+02  0.91924941967E+02  0.00000000000E+00 0.  1.
          5    1    4    4  501    0  0.33964150910E+02 -0.25829048030E+02  0.12376915288E+02  0.44624698332E+02  0.41800000000E+01 0.  1.
         -5    1    4    4    0  501 -0.32466780289E+02  0.91933381629E+02  0.21687269516E+01  0.97611547763E+02  0.41800000000E+01 0.  1.
</event>
<event>
11    1  0.7882745E-009  0.2337789E+03  0.7561462E-02  0.1032914E+00
         22   -1    0    0    0    0  0.00000000000E+00  0.00000000000E+00  0.17153040573E+04  0.17153040573E+04  0.00000000000E+00 0.  1.
         22   -1    0    0    0    0 -0.00000000000E+00 -0.00000000000E+00 -0.22808159046E+03  0.22808159046E+03  0.00000000000E+00 0.  1.
        -24    2    1    2    0    0 -0.75158649883E+01 -0.90540454689E+01 -0.16989739817E+03  0.18971329607E+03  0.83591535661E+02 0.  0.
         25    2    1    2    0    0 -0.11534088060E+03  0.16313979244E+03  0.30838431049E+03  0.38815878915E+03  0.12509297352E+03 0.  0.
         24    2    1    2    0    0  0.12285674558E+03 -0.15408574697E+03  0.13487355545E+04  0.13655135625E+04  0.81874880770E+02 0.  0.
        -11    1    5    5    0    0  0.11619190400E+03 -0.14879209849E+03  0.13403002795E+04  0.13535303788E+04  0.00000000000E+00 0.  1.
         12    1    5    5    0    0  0.66648415879E+01 -0.52936484774E+01  0.84352750030E+01  0.11983183716E+02  0.00000000000E+00 0. -1.
         13    1    3    3    0    0  0.20566224327E+02  0.14182896466E+01 -0.38360015514E+01  0.20968930265E+02  0.00000000000E+00 0. -1.
        -14    1    3    3    0    0 -0.28082089315E+02 -0.10472335115E+02 -0.16606139662E+03  0.16874436581E+03  0.00000000000E+00 0.  1.
          5    1    4    4  501    0 -0.93372216914E+02  0.26662073246E+02  0.11883239534E+03  0.15351823222E+03  0.41800000000E+01 0. -1.
         -5    1    4    4    0  501 -0.21968663682E+02  0.13647771919E+03  0.18955191515E+03  0.23464055693E+03  0.41800000000E+01 0. -1.
</event>
<event>
11    1  0.7882745E-009  0.1414065E+03  0.7561462E-02  0.1105998E+00
         22   -1    0    0    0    0  0.00000000000E+00  0.00000000000E+00  0.99790550448E+03  0.99790550448E+03  0.00000000000E+00 0. -1.
         22   -1    0    0    0    0 -0.00000000000E+00 -0.00000000000E+00 -0.13215688421E+04  0.13215688421E+04  0.00000000000E+00 0.  1.
        -24    2    1    2    0    0  0.62796276946E+02  0.40373828785E+01 -0.35707704856E+03  0.37144159408E+03  0.80654611445E+02 0.  0.
         25    2    1    2    0    0 -0.12475675095E+03  0.18026135209E+02 -0.94616581913E+03  0.96268682305E+03  0.12508786323E+03 0.  0.
         24    2    1    2    0    0  0.61960474000E+02 -0.22063518087E+02  0.97957953005E+03  0.98534592947E+03  0.83693762335E+02 0.  0.
        -11    1    5    5    0    0  0.79383488488E+02 -0.23348124240E+01  0.78159902949E+03  0.78562346737E+03  0.00000000000E+00 0.  1.
         12    1    5    5    0    0 -0.17423014488E+02 -0.19728705663E+02  0.19798050057E+03  0.19972246209E+03  0.00000000000E+00 0. -1.
         11    1    3    3    0    0  0.27624295497E+02 -0.11935542511E+02 -0.31436817922E+02  0.43518184679E+02  0.00000000000E+00 0. -1.
        -12    1    3    3    0    0  0.35171981449E+02  0.15972925390E+02 -0.32564023063E+03  0.32792340940E+03  0.00000000000E+00 0.  1.
          5    1    4    4  501    0 -0.20025059065E+02  0.69546748564E+01 -0.16815322119E+02  0.27378786512E+02  0.41800000000E+01 0.  1.
         -5    1    4    4    0  501 -0.10473169188E+03  0.11071460352E+02 -0.92935049701E+03  0.93530803654E+03  0.41800000000E+01 0.  1.
</event>
<event>
11    1  0.7882745E-009  0.1362879E+03  0.7561462E-02  0.1111776E+00
         22   -1    0    0    0    0  0.00000000000E+00  0.00000000000E+00  0.12903047599E+04  0.12903047599E+04  0.00000000000E+00 0. -1.
         22   -1    0    0    0    0 -0.00000000000E+00 -0.00000000000E+00 -0.30196556311E+03  0.30196556311E+03  0.00000000000E+00 0.  1.
        -24    2    1    2    0    0  0.33897861852E+02 -0.28794502141E+02 -0.14778856597E+03  0.17418864550E+03  0.80759120833E+02 0.  0.
         25    2    1    2    0    0 -0.72447798789E+02  0.43840103893E+02 -0.98383178461E+02  0.18026605139E+03  0.12508381678E+03 0.  0.
         24    2    1    2    0    0  0.38549936937E+02 -0.15045601752E+02  0.12345109412E+04  0.12378156261E+04  0.80360391351E+02 0.  0.
        -13    1    5    5    0    0 -0.22690385012E+02 -0.18145624940E+02  0.40819659691E+03  0.40922924994E+03  0.00000000000E+00 0.  1.
         14    1    5    5    0    0  0.61240321949E+02  0.31000231881E+01  0.82631434430E+03  0.82858637617E+03  0.00000000000E+00 0. -1.
         13    1    3    3    0    0 -0.83379902036E+01  0.19051183155E+02 -0.11658805433E+02  0.23841086476E+02  0.00000000000E+00 0. -1.
        -14    1    3    3    0    0  0.42235852055E+02 -0.47845685296E+02 -0.13612976054E+03  0.15034755903E+03  0.00000000000E+00 0.  1.
          5    1    4    4  501    0 -0.64635788097E+02  0.72769023542E+02 -0.24536861186E+02  0.10046216127E+03  0.41800000000E+01 0.  1.
         -5    1    4    4    0  501 -0.78120106918E+01 -0.28928919649E+02 -0.73846317275E+02  0.79803890119E+02  0.41800000000E+01 0.  1.
</event>
<event>
11    1  0.7882745E-009  0.1312483E+03  0.7561462E-02  0.1117745E+00
         22   -1    0    0    0    0  0.00000000000E+00  0.00000000000E+00  0.93668154241E+03  0.93668154241E+03  0.00000000000E+00 0. -1.
         22   -1    0    0    0    0 -0.00000000000E+00 -0.00000000000E+00 -0.37922288792E+03  0.37922288792E+03  0.00000000000E+00 0. -1.
         24    2    1    2    0    0  0.55964599822E+01  0.25139486052E+02 -0.24722015867E+03  0.26055504544E+03  0.78152483828E+02 0.  0.
         25    2    1    2    0    0 -0.30542982822E+02  0.61675013849E+01 -0.89266526422E+02  0.15680123010E+03  0.12508877307E+03 0.  0.
        -24    2    1    2    0    0  0.24946522839E+02 -0.31306987437E+02  0.89394533957E+03  0.89854815479E+03  0.81535635602E+02 0.  0.
        -13    1    3    3    0    0  0.37444416049E+02 -0.57429984485E+01 -0.11803968792E+03  0.12396948919E+03  0.00000000000E+00 0.  1.
         14    1    3    3    0    0 -0.31847956067E+02  0.30882484501E+02 -0.12918047074E+03  0.13658555625E+03  0.00000000000E+00 0. -1.
         11    1    5    5    0    0  0.10104189656E+02 -0.53835886689E+02  0.75647437865E+03  0.75845493135E+03  0.00000000000E+00 0. -1.
        -12    1    5    5    0    0  0.14842333184E+02  0.22528899252E+02  0.13747096092E+03  0.14009322344E+03  0.00000000000E+00 0.  1.
          5    1    4    4  501    0 -0.60486761700E+02 -0.37939338678E+02 -0.69676081468E+02  0.99851241800E+02  0.41800000000E+01 0.  1.
         -5    1    4    4    0  501  0.29943778879E+02  0.44106840063E+02 -0.19590444954E+02  0.56949988300E+02  0.41800000000E+01 0.  1.
</event>
<event>
11    1  0.1110098E-008  0.2226606E+03  0.7561462E-02  0.1039563E+00
         22   -1    0    0    0    0  0.00000000000E+00  0.00000000000E+00  0.99189150294E+03  0.99189150294E+03  0.00000000000E+00 0.  1.
         22   -1    0    0    0    0 -0.00000000000E+00 -0.00000000000E+00 -0.49226678250E+03  0.49226678250E+03  0.00000000000E+00 0. -1.
         24    2    1    2    0    0 -0.11241614168E+03 -0.15459869897E+02 -0.26085351423E+03  0.29376748222E+03  0.73337447711E+02 0.  0.
         25    2    1    2    0    0  0.45046451532E+02  0.18833124677E+03 -0.13794181540E+03  0.26865239225E+03  0.12509325369E+03 0.  0.
        -24    2    1    2    0    0  0.67369690146E+02 -0.17287137688E+03  0.89842005006E+03  0.92173841097E+03  0.89554027372E+02 0.  0.
        -13    1    3    3    0    0 -0.10334992681E+03  0.84689243010E+01 -0.16776331190E+03  0.19722438711E+03  0.00000000000E+00 0.  1.
         14    1    3    3    0    0 -0.90662148644E+01 -0.23928794198E+02 -0.93090202324E+02  0.96543095105E+02  0.00000000000E+00 0. -1.
         13    1    5    5    0    0  0.11877719474E+02 -0.75949167248E+01  0.12548366246E+02  0.18873909913E+02  0.00000000000E+00 0. -1.
        -14    1    5    5    0    0  0.55491970671E+02 -0.16527646015E+03  0.88587168381E+03  0.90286450106E+03  0.00000000000E+00 0.  1.
          5    1    4    4  501    0  0.64007402524E+02  0.97648092956E+02 -0.13118587123E+03  0.17566816116E+03  0.41800000000E+01 0.  1.
         -5    1    4    4    0  501 -0.18960950992E+02  0.90683153816E+02 -0.67559441682E+01  0.92984231083E+02  0.41800000000E+01 0.  1.
</event>
<event>
11    1  0.7882745E-009  0.1962466E+03  0.7561462E-02  0.1057210E+00
         22   -1    0    0    0    0  0.00000000000E+00  0.00000000000E+00  0.18780591125E+03  0.18780591125E+03  0.00000000000E+00 0.  1.
         22   -1    0    0    0    0 -0.00000000000E+00 -0.00000000000E+00 -0.97680278495E+03  0.97680278495E+03  0.00000000000E+00 0.  1.
         24    2    1    2    0    0  0.41387909571E+02 -0.43679913640E+02 -0.15967945543E+03  0.18895633221E+03  0.81154624527E+02 0.  0.
         25    2    1    2    0    0 -0.14103746406E+03 -0.70447965811E+02 -0.74153853898E+03  0.76836234211E+03  0.12508717691E+03 0.  0.
        -24    2    1    2    0    0  0.99649554486E+02  0.11412787945E+03  0.11222112070E+03  0.20729002188E+03  0.86141550149E+02 0.  0.
        -11    1    3    3    0    0  0.52689432171E+02 -0.13218995219E+02 -0.14185000021E+03  0.15189582173E+03  0.00000000000E+00 0.  1.
         12    1    3    3    0    0 -0.11301522600E+02 -0.30460918421E+02 -0.17829455216E+02  0.37060510485E+02  0.00000000000E+00 0. -1.
         13    1    5    5    0    0  0.63138582980E+02  0.80278225297E+02  0.22350385209E+02  0.10454957598E+03  0.00000000000E+00 0. -1.
        -14    1    5    5    0    0  0.36510971506E+02  0.33849654154E+02  0.89870735493E+02  0.10274044590E+03  0.00000000000E+00 0.  1.
          5    1    4    4  501    0 -0.35118836296E+01  0.10571453555E+02 -0.23533226360E+01  0.12128457623E+02  0.41800000000E+01 0.  1.
         -5    1    4    4    0  501 -0.13752558043E+03 -0.81019419366E+02 -0.73918521634E+03  0.75623388449E+03  0.41800000000E+01 0.  1.
</event>
<event>
11    1  0.7882745E-009  0.1781849E+03  0.7561462E-02  0.1071121E+00
         22   -1    0    0    0    0  0.00000000000E+00  0.00000000000E+00  0.22948631455E+03  0.22948631455E+03  0.00000000000E+00 0.  1.
         22   -1    0    0    0    0 -0.00000000000E+00 -0.00000000000E+00 -0.60068911280E+03  0.60068911280E+03  0.00000000000E+00 0.  1.
         24    2    1    2    0    0 -0.22498961212E+02 -0.40190966802E+02 -0.39117520687E+03  0.40059696944E+03  0.73064166261E+02 0.  0.
         25    2    1    2    0    0  0.10187651717E+03 -0.62169244925E+02 -0.12955790560E+03  0.21604689063E+03  0.12508864170E+03 0.  0.
        -24    2    1    2    0    0 -0.79377555958E+02  0.10236021173E+03  0.14953031422E+03  0.21353156728E+03  0.80361719878E+02 0.  0.
        -11    1    3    3    0    0 -0.20071576912E+02 -0.54911674949E+02 -0.37059152199E+03  0.37517494108E+03  0.00000000000E+00 0.  1.
         12    1    3    3    0    0 -0.24273842993E+01  0.14720708147E+02 -0.20583684881E+02  0.25422028365E+02  0.00000000000E+00 0. -1.
         11    1    5    5    0    0 -0.22218712554E+02  0.82238364693E+02  0.55515488853E+02  0.10167983732E+03  0.00000000000E+00 0. -1.
        -12    1    5    5    0    0 -0.57158843405E+02  0.20121847034E+02  0.94014825363E+02  0.11185172996E+03  0.00000000000E+00 0.  1.
          5    1    4    4  501    0  0.11748900317E+03 -0.11126978141E+02 -0.76704530425E+02  0.14081382353E+03  0.41800000000E+01 0. -1.
         -5    1    4    4    0  501 -0.15612486004E+02 -0.51042266784E+02 -0.52853375172E+02  0.75233067097E+02  0.41800000000E+01 0. -1.
</event>
<event>
11    1  0.7882745E-009  0.1479430E+03  0.7561462E-02  0.1098999E+00
         22   -1    0    0    0    0  0.00000000000E+00  0.00000000000E+00  0.50463437393E+03  0.50463437393E+03  0.00000000000E+00 0.  1.
         22   -1    0    0    0    0 -0.00000000000E+00 -0.00000000000E+00 -0.45656919782E+03  0.45656919782E+03  0.00000000000E+00 0.  1.
         24    2    1    2    0    0  0.32919229336E+02 -0.61495063353E+02 -0.34304441685E+03  0.35927032331E+03  0.80810734449E+02 0.  0.
         25    2    1    2    0    0 -0.10920775026E+03  0.49464937908E+02 -0.21321882585E+02  0.17457055558E+03  0.12508854224E+03 0.  0.
        -24    2    1    2    0    0  0.76288520925E+02  0.12030125445E+02  0.41243147555E+03  0.42736269285E+03  0.81083209577E+02 0.  0.
        -11    1    3    3    0    0  0.44845626350E+02 -0.55295341775E+02 -0.33716409261E+03  0.34459879624E+03  0.00000000000E+00 0.  1.
         12    1    3    3    0    0 -0.11926397014E+02 -0.61997215780E+01 -0.58803242410E+01  0.14671527070E+02  0.00000000000E+00 0. -1.
         13    1    5    5    0    0  0.85426433141E+01 -0.29874388454E+02  0.89074850546E+02  0.94338670969E+02  0.00000000000E+00 0. -1.
        -14    1    5    5    0    0  0.67745877611E+02  0.41904513899E+02  0.32335662500E+03  0.33302402188E+03  0.00000000000E+00 0.  1.
          5    1    4    4  501    0 -0.27397198134E+02 -0.33346004139E+02  0.24027740497E+02  0.49571838487E+02  0.41800000000E+01 0. -1.
         -5    1    4    4    0  501 -0.81810552127E+02  0.82810942047E+02 -0.45349623082E+02  0.12499871710E+03  0.41800000000E+01 0. -1.
</event>
<event>
11    1  0.7882745E-009  0.4432244E+03  0.7561462E-02  0.9530182E-01
         22   -1    0    0    0    0  0.00000000000E+00  0.00000000000E+00  0.35628218528E+03  0.35628218528E+03  0.00000000000E+00 0.  1.
         22   -1    0    0    0    0 -0.00000000000E+00 -0.00000000000E+00 -0.50279335693E+03  0.50279335693E+03  0.00000000000E+00 0. -1.
        -24    2    1    2    0    0  0.18717891324E+03 -0.20987879448E+03 -0.27042257885E+03  0.39885617098E+03  0.82902473099E+02 0.  0.
         25    2    1    2    0    0  0.50853922361E+02  0.10898428632E+03  0.64059417220E+02  0.18497557959E+03  0.12509460431E+03 0.  0.
         24    2    1    2    0    0 -0.23803283560E+03  0.10089450816E+03  0.59851989987E+02  0.27524379163E+03  0.73058548615E+02 0.  0.
        -11    1    5    5    0    0 -0.26011402197E+02  0.39243479730E+02  0.18590429083E+02  0.50618650703E+02  0.00000000000E+00 0.  1.
         12    1    5    5    0    0 -0.21202143340E+03  0.61651028428E+02  0.41261560904E+02  0.22462514093E+03  0.00000000000E+00 0. -1.
         11    1    3    3    0    0  0.89029450174E+02 -0.14772227243E+03 -0.19506060627E+03  0.26037809602E+03  0.00000000000E+00 0. -1.
        -12    1    3    3    0    0  0.98149463068E+02 -0.62156522051E+02 -0.75361972577E+02  0.13847807496E+03  0.00000000000E+00 0.  1.
          5    1    4    4  501    0  0.18079970827E+02 -0.25369125335E+02 -0.23252110811E+01  0.31517564498E+02  0.41800000000E+01 0. -1.
         -5    1    4    4    0  501  0.32773951534E+02  0.13435341165E+03  0.66384628301E+02  0.15345801509E+03  0.41800000000E+01 0. -1.
</event>
<event>
11    1  0.7882745E-009  0.1466986E+03  0.7561462E-02  0.1100301E+00
         22   -1    0    0    0    0  0.00000000000E+00  0.00000000000E+00  0.89616314646E+03  0.89616314646E+03  0.00000000000E+00 0. -1.
         22   -1    0    0    0    0 -0.00000000000E+00 -0.00000000000E+00 -0.39328301824E+03  0.39328301824E+03  0.00000000000E+00 0. -1.
         24    2    1    2    0    0  0.70804050488E+02 -0.31015094468E+02 -0.36435220144E+03  0.38094788751E+03  0.79960094132E+02 0.  0.
         25    2    1    2    0    0 -0.60330839881E+02 -0.21815968313E+01  0.25652573191E+03  0.29171624872E+03  0.12509336124E+03 0.  0.
        -24    2    1    2    0    0 -0.10473210607E+02  0.33196691299E+02  0.61070659775E+03  0.61678202846E+03  0.79030460253E+02 0.  0.
        -11    1    3    3    0    0  0.13941156313E+01 -0.10590575684E+02 -0.13051659763E+01  0.10761380485E+02  0.00000000000E+00 0.  1.
         12    1    3    3    0    0  0.69409934857E+02 -0.20424518784E+02 -0.36304703547E+03  0.37018650703E+03  0.00000000000E+00 0. -1.
         13    1    5    5    0    0  0.72438375875E+01  0.18253360010E+02  0.56674166389E+03  0.56708180355E+03  0.00000000000E+00 0. -1.
        -14    1    5    5    0    0 -0.17717048194E+02  0.14943331289E+02  0.43964933862E+02  0.49700224911E+02  0.00000000000E+00 0.  1.
          5    1    4    4  501    0 -0.11967871609E+02  0.11863587851E+01 -0.12785797868E+02  0.18044013554E+02  0.41800000000E+01 0.  1.
         -5    1    4    4    0  501 -0.48362968273E+02 -0.33679556164E+01  0.26931152978E+03  0.27367223516E+03  0.41800000000E+01 0.  1.
</event>
<event>
11    1  0.7882745E-009  0.1690631E+03  0.7561462E-02  0.1078850E+00
         22   -1    0    0    0    0  0.00000000000E+00  0.00000000000E+00  0.17990195983E+04  0.17990195983E+04  0.00000000000E+00 0. -1.
         22   -1    0    0    0    0 -0.00000000000E+00 -0.00000000000E+00 -0.55396329566E+02  0.55396329566E+02  0.00000000000E+00 0.  1.
        -24    2    1    2    0    0  0.58252718269E+02 -0.37823910740E+02  0.13369966552E+02  0.93854845596E+02  0.61692370897E+02 0.  0.
         25    2    1    2    0    0 -0.56170799286E+02  0.13584467996E+03  0.96713056538E+03  0.98620435104E+03  0.12509418753E+03 0.  0.
         24    2    1    2    0    0 -0.20819189830E+01 -0.98020769222E+02  0.76312273676E+03  0.77435673119E+03  0.87519313241E+02 0.  0.
        -13    1    5    5    0    0 -0.13508849039E+02  0.71914793939E+01  0.30443525561E+02  0.34073664711E+02  0.00000000000E+00 0.  1.
         14    1    5    5    0    0  0.11426930056E+02 -0.10521224862E+03  0.73267921120E+03  0.74028306648E+03  0.00000000000E+00 0. -1.
         13    1    3    3    0    0  0.43282181485E+02 -0.33295959824E+02  0.36680729986E+02  0.65783311919E+02  0.00000000000E+00 0. -1.
        -14    1    3    3    0    0  0.14970536784E+02 -0.45279509155E+01 -0.23310763434E+02  0.28071533677E+02  0.00000000000E+00 0.  1.
          5    1    4    4  501    0  0.25934718515E+02  0.98582540155E+02  0.46993694276E+03  0.48088390430E+03  0.41800000000E+01 0.  1.
         -5    1    4    4    0  501 -0.82105517802E+02  0.37262139807E+02  0.49719362262E+03  0.50532044674E+03  0.41800000000E+01 0.  1.
</event>
<event>
11    1  0.7882745E-009  0.1314990E+03  0.7561462E-02  0.1117441E+00
         22   -1    0    0    0    0  0.00000000000E+00  0.00000000000E+00  0.20453708321E+03  0.20453708321E+03  0.00000000000E+00 0. -1.
         22   -1    0    0    0    0 -0.00000000000E+00 -0.00000000000E+00 -0.64334527470E+03  0.64334527470E+03  0.00000000000E+00 0. -1.
        -24    2    1    2    0    0  0.35017216753E+02  0.49975925002E+00 -0.48245543858E+03  0.49037520688E+03  0.80486881419E+02 0.  0.
         25    2    1    2    0    0  0.17435933962E+01 -0.22427340644E+02 -0.11710782132E+03  0.17282238068E+03  0.12508919907E+03 0.  0.
         24    2    1    2    0    0 -0.36760810149E+02  0.21927581394E+02  0.16075506840E+03  0.18468477035E+03  0.80212819389E+02 0.  0.
        -11    1    5    5    0    0  0.12639361798E+02 -0.21633662687E+02  0.44586733253E+02  0.51144360492E+02  0.00000000000E+00 0.  1.
         12    1    5    5    0    0 -0.49400171947E+02  0.43561244081E+02  0.11616833515E+03  0.13354040986E+03  0.00000000000E+00 0. -1.
         11    1    3    3    0    0  0.52030892619E+02 -0.22505541396E+02 -0.37096988661E+03  0.37527639141E+03  0.00000000000E+00 0. -1.
        -12    1    3    3    0    0 -0.17013675867E+02  0.23005300646E+02 -0.11148555197E+03  0.11509881547E+03  0.00000000000E+00 0.  1.
          5    1    4    4  501    0  0.47784694987E+02 -0.95053961571E+01 -0.11478135156E+03  0.12476361929E+03  0.41800000000E+01 0.  1.
         -5    1    4    4    0  501 -0.46041101591E+02 -0.12921944486E+02 -0.23264697558E+01  0.48058761392E+02  0.41800000000E+01 0.  1.
</event>
<event>
11    1  0.7882745E-009  0.2210898E+03  0.7561462E-02  0.1040537E+00
         22   -1    0    0    0    0  0.00000000000E+00  0.00000000000E+00  0.78815039178E+03  0.78815039178E+03  0.00000000000E+00 0. -1.
         22   -1    0    0    0    0 -0.00000000000E+00 -0.00000000000E+00 -0.54212869153E+03  0.54212869153E+03  0.00000000000E+00 0. -1.
         24    2    1    2    0    0 -0.94477705205E+02 -0.16462235658E+03 -0.47724504916E+03  0.52034129200E+03  0.83460566380E+02 0.  0.
         25    2    1    2    0    0  0.92494069759E+02  0.75477979475E+02  0.16481621972E+03  0.23888038989E+03  0.12508947224E+03 0.  0.
        -24    2    1    2    0    0  0.19836354459E+01  0.89144377101E+02  0.55845052970E+03  0.57105740143E+03  0.79302628142E+02 0.  0.
        -13    1    3    3    0    0 -0.19317743135E+02 -0.11080189762E+03 -0.22187818420E+03  0.24875723978E+03  0.00000000000E+00 0.  1.
         14    1    3    3    0    0 -0.75159962070E+02 -0.53820458956E+02 -0.25536686496E+03  0.27158405222E+03  0.00000000000E+00 0. -1.
         11    1    5    5    0    0 -0.16212781325E+02  0.66910562659E+02  0.51077538110E+03  0.51539438066E+03  0.00000000000E+00 0. -1.
        -12    1    5    5    0    0  0.18196416771E+02  0.22233814442E+02  0.47675148599E+02  0.55663020776E+02  0.00000000000E+00 0.  1.
          5    1    4    4  501    0  0.77269742411E+02  0.11025507245E+03  0.12685128264E+03  0.18502841512E+03  0.41800000000E+01 0.  1.
         -5    1    4    4    0  501  0.15224327348E+02 -0.34777092977E+02  0.37964937076E+02  0.53851974767E+02  0.41800000000E+01 0.  1.
</event>
<event>
11    1  0.7882745E-009  0.1373807E+03  0.7561462E-02  0.1110519E+00
         22   -1    0    0    0    0  0.00000000000E+00  0.00000000000E+00  0.59198728791E+03  0.59198728791E+03  0.00000000000E+00 0. -1.
         22   -1    0    0    0    0 -0.00000000000E+00 -0.00000000000E+00 -0.62620111866E+03  0.62620111866E+03  0.00000000000E+00 0.  1.
         24    2    1    2    0    0 -0.55346252009E+02  0.10070193474E+02 -0.57811242210E+03  0.58645532039E+03  0.80939816030E+02 0.  0.
         25    2    1    2    0    0  0.73308515125E+02 -0.61201383113E+01  0.91103889869E+02  0.17135116628E+03  0.12509879677E+03 0.  0.
        -24    2    1    2    0    0 -0.17962263116E+02 -0.39500551630E+01  0.45279470148E+03  0.46038191990E+03  0.81180198622E+02 0.  0.
        -11    1    3    3    0    0 -0.38932694129E+02  0.74553390513E+01 -0.56170010013E+03  0.56309709575E+03  0.00000000000E+00 0.  1.
         12    1    3    3    0    0 -0.16413557880E+02  0.26148544230E+01 -0.16412321963E+02  0.23358224636E+02  0.00000000000E+00 0. -1.
         11    1    5    5    0    0 -0.48981727093E+02 -0.81737559040E+01  0.32706195565E+03  0.33081043319E+03  0.00000000000E+00 0. -1.
        -12    1    5    5    0    0  0.31019463977E+02  0.42237007410E+01  0.12573274583E+03  0.12957148671E+03  0.00000000000E+00 0.  1.
          5    1    4    4  501    0  0.86330710351E+02 -0.18834767388E+02  0.11239514185E+03  0.14303104671E+03  0.41800000000E+01 0. -1.
         -5    1    4    4    0  501 -0.13022195226E+02  0.12714629076E+02 -0.21291251984E+02  0.28320119563E+02  0.41800000000E+01 0. -1.
</event>
<event>
11    1  0.7882745E-009  0.1491595E+03  0.7561462E-02  0.1097741E+00
         22   -1    0    0    0    0  0.00000000000E+00  0.00000000000E+00  0.90298261120E+03  0.90298261120E+03  0.00000000000E+00 0. -1.
         22   -1    0    0    0    0 -0.00000000000E+00 -0.00000000000E+00 -0.11744633938E+03  0.11744633938E+03  0.00000000000E+00 0.  1.
         24    2    1    2    0    0 -0.20658950985E+02  0.68502252437E+02  0.15873404809E+02  0.10823215512E+03  0.79642222324E+02 0.  0.
         25    2    1    2    0    0 -0.61512229822E+02 -0.56626311023E+02  0.17823091644E+02  0.15151031897E+03  0.12508965042E+03 0.  0.
        -24    2    1    2    0    0  0.82171180806E+02 -0.11875941413E+02  0.75183977537E+03  0.76068647648E+03  0.80546426014E+02 0.  0.
        -11    1    3    3    0    0  0.19692690658E+02  0.54846567075E+02  0.26966712392E+02  0.64211771214E+02  0.00000000000E+00 0.  1.
         12    1    3    3    0    0 -0.40351641643E+02  0.13655685362E+02 -0.11093307582E+02  0.44020383904E+02  0.00000000000E+00 0. -1.
         11    1    5    5    0    0 -0.44716467420E+01 -0.26794539915E+02  0.14677441220E+03  0.14926711316E+03  0.00000000000E+00 0. -1.
        -12    1    5    5    0    0  0.86642827548E+02  0.14918598501E+02  0.60506536317E+03  0.61141936333E+03  0.00000000000E+00 0.  1.
          5    1    4    4  501    0  0.16208148315E+02 -0.59118211541E+02 -0.20429740636E+02  0.64749623242E+02  0.41800000000E+01 0. -1.
         -5    1    4    4    0  501 -0.77720378137E+02  0.24919005174E+01  0.38252832280E+02  0.86760695729E+02  0.41800000000E+01 0. -1.
</event>
<event>
11    1  0.7882745E-009  0.1388061E+03  0.7561462E-02  0.1108899E+00
         22   -1    0    0    0    0  0.00000000000E+00  0.00000000000E+00  0.48698494396E+03  0.48698494396E+03  0.00000000000E+00 0. -1.
         22   -1    0    0    0    0 -0.00000000000E+00 -0.00000000000E+00 -0.71381183427E+03  0.71381183427E+03  0.00000000000E+00 0. -1.
        -24    2    1    2    0    0  0.54203690184E+02  0.24878387700E+02 -0.64142015050E+03  0.64900515995E+03  0.78936138612E+02 0.  0.
         25    2    1    2    0    0 -0.59361864492E+02 -0.41686845474E+02  0.16777291013E+02  0.14556910519E+03  0.12508901970E+03 0.  0.
         24    2    1    2    0    0  0.51581743080E+01  0.16808457774E+02  0.39781596918E+03  0.40622251308E+03  0.80312226880E+02 0.  0.
        -11    1    5    5    0    0 -0.77548495883E+01  0.47909318972E+02  0.23732880776E+03  0.24224038377E+03  0.00000000000E+00 0.  1.
         12    1    5    5    0    0  0.12913023896E+02 -0.31100861198E+02  0.16048716142E+03  0.16398212931E+03  0.00000000000E+00 0. -1.
         13    1    3    3    0    0  0.29655514817E+02  0.44396019023E+02 -0.54509065795E+03  0.54769907929E+03  0.00000000000E+00 0. -1.
        -14    1    3    3    0    0  0.24548175367E+02 -0.19517631323E+02 -0.96329492545E+02  0.10130608067E+03  0.00000000000E+00 0.  1.
          5    1    4    4  501    0 -0.33189978324E+02 -0.19658608172E+02  0.71238493480E+02  0.81119855090E+02  0.41800000000E+01 0.  1.
         -5    1    4    4    0  501 -0.26171886168E+02 -0.22028237302E+02 -0.54461202467E+02  0.64449250100E+02  0.41800000000E+01 0.  1.
</event>
<event>
11    1  0.7882745E-009  0.1473941E+03  0.7561462E-02  0.1099572E+00
         22   -1    0    0    0    0  0.00000000000E+00  0.00000000000E+00  0.16952224681E+04  0.16952224681E+04  0.00000000000E+00 0.  1.
         22   -1    0    0    0    0 -0.00000000000E+00 -0.00000000000E+00 -0.12771980584E+03  0.12771980584E+03  0.00000000000E+00 0. -1.
        -24    2    1    2    0    0  0.31609882003E+01  0.41186979673E+02 -0.88365366195E+02  0.12448698628E+03  0.77344764983E+02 0.  0.
         25    2    1    2    0    0  0.64554967937E+02  0.24491110194E+01  0.24156942494E+03  0.27959892271E+03  0.12508568457E+03 0.  0.
         24    2    1    2    0    0 -0.67715956137E+02 -0.43636090692E+02  0.14142986035E+04  0.14188563649E+04  0.80145401025E+02 0.  0.
        -11    1    5    5    0    0 -0.60947141362E+02 -0.35132989070E+02  0.13944801302E+04  0.13962534564E+04  0.00000000000E+00 0.  1.
         12    1    5    5    0    0 -0.67688147757E+01 -0.85031016223E+01  0.19818473358E+02  0.22602908594E+02  0.00000000000E+00 0. -1.
         13    1    3    3    0    0 -0.11441822612E+02  0.57484813133E+02 -0.83585761034E+02  0.10208818978E+03  0.00000000000E+00 0. -1.
        -14    1    3    3    0    0  0.14602810812E+02 -0.16297833461E+02 -0.47796051607E+01  0.22398796500E+02  0.00000000000E+00 0.  1.
          5    1    4    4  501    0  0.80125007750E+02 -0.39557269906E+02  0.19655274444E+03  0.21595195812E+03  0.41800000000E+01 0.  1.
         -5    1    4    4    0  501 -0.15570039813E+02  0.42006380925E+02  0.45016680502E+02  0.63646964590E+02  0.41800000000E+01 0.  1.
</event>
<event>
11    1  0.7882745E-009  0.1385118E+03  0.7561462E-02  0.1109232E+00
         22   -1    0    0    0    0  0.00000000000E+00  0.00000000000E+00  0.28188322945E+03  0.28188322945E+03  0.00000000000E+00 0. -1.
         22   -1    0    0    0    0 -0.00000000000E+00 -0.00000000000E+00 -0.17048756913E+03  0.17048756913E+03  0.00000000000E+00 0.  1.
        -24    2    1    2    0    0 -0.25148509770E+02 -0.55334086018E+02 -0.16874041941E+02  0.98776866557E+02  0.76012021789E+02 0.  0.
         25    2    1    2    0    0 -0.44678561142E+01 -0.47272163545E+02  0.16926039297E+03  0.21575763291E+03  0.12509059256E+03 0.  0.
         24    2    1    2    0    0  0.29616365884E+02  0.10260624956E+03 -0.40990690712E+02  0.13783629910E+03  0.76898875466E+02 0.  0.
        -11    1    5    5    0    0  0.17873751260E+02  0.98247904891E+02 -0.58933776057E+02  0.11595392085E+03  0.00000000000E+00 0.  1.
         12    1    5    5    0    0  0.11742614624E+02  0.43583446718E+01  0.17943085344E+02  0.21882378256E+02  0.00000000000E+00 0. -1.
         13    1    3    3    0    0 -0.18856641018E+01 -0.21374920097E+02  0.29686539137E+02  0.36629681192E+02  0.00000000000E+00 0. -1.
        -14    1    3    3    0    0 -0.23262845668E+02 -0.33959165921E+02 -0.46560581078E+02  0.62147185366E+02  0.00000000000E+00 0.  1.
          5    1    4    4  501    0  0.49880611380E+02 -0.59507328253E+02  0.10388364916E+03  0.12976317840E+03  0.41800000000E+01 0.  1.
         -5    1    4    4    0  501 -0.54348467494E+02  0.12235164707E+02  0.65376743816E+02  0.85994454509E+02  0.41800000000E+01 0.  1.
</event>
<event>
11    1  0.7882745E-009  0.2385314E+03  0.7561462E-02  0.1030192E+00
         22   -1    0    0    0    0  0.00000000000E+00  0.00000000000E+00  0.30721557897E+03  0.30721557897E+03  0.00000000000E+00 0. -1.
         22   -1    0    0    0    0 -0.00000000000E+00 -0.00000000000E+00 -0.78296023056E+03  0.78296023056E+03  0.00000000000E+00 0.  1.
        -24    2    1    2    0    0 -0.19070421812E+03 -0.46902819432E+02 -0.58741691269E+03  0.62462474585E+03  0.80805139303E+02 0.  0.
         25    2    1    2    0    0  0.23274152127E+03  0.79599566967E+02 -0.46665064847E+02  0.27987460196E+03  0.12508979878E+03 0.  0.
         24    2    1    2    0    0 -0.42037303148E+02 -0.32696747535E+02  0.15833732595E+03  0.18567646172E+03  0.81048303451E+02 0.  0.
        -11    1    5    5    0    0 -0.18168997802E+02 -0.57264265456E+01 -0.39378028702E+01  0.19452782155E+02  0.00000000000E+00 0.  1.
         12    1    5    5    0    0 -0.23868305346E+02 -0.26970320989E+02  0.16227512882E+03  0.16622367956E+03  0.00000000000E+00 0. -1.
         13    1    3    3    0    0 -0.15190436208E+02 -0.23687733308E+02 -0.15213940075E+03  0.15471992542E+03  0.00000000000E+00 0. -1.
        -14    1    3    3    0    0 -0.17551378191E+03 -0.23215086124E+02 -0.43527751194E+03  0.46990482043E+03  0.00000000000E+00 0.  1.
          5    1    4    4  501    0  0.78806479343E+02  0.15148792631E+02 -0.75740014795E+02  0.11042630731E+03  0.41800000000E+01 0.  1.
         -5    1    4    4    0  501  0.15393504192E+03  0.64450774336E+02  0.29074949947E+02  0.16944829465E+03  0.41800000000E+01 0.  1.
</event>
<event>
11    1  0.7882745E-009  0.1790751E+03  0.7561462E-02  0.1070393E+00
         22   -1    0    0    0    0  0.00000000000E+00  0.00000000000E+00  0.92835951679E+03  0.92835951679E+03  0.00000000000E+00 0.  1.
         22   -1    0    0    0    0 -0.00000000000E+00 -0.00000000000E+00 -0.11270793087E+03  0.11270793087E+03  0.00000000000E+00 0.  1.
        -24    2    1    2    0    0 -0.33820735660E+02  0.17684283544E+02 -0.13130516445E+02  0.97994973086E+02  0.89297414537E+02 0.  0.
         25    2    1    2    0    0  0.12323316999E+03 -0.10222123773E+03  0.16040350139E+03  0.25886716050E+03  0.12508927970E+03 0.  0.
         24    2    1    2    0    0 -0.89412434326E+02  0.84536954185E+02  0.66837860098E+03  0.68420531408E+03  0.79157296136E+02 0.  0.
        -11    1    5    5    0    0 -0.80787130559E+02  0.83894482201E+02  0.66466578554E+03  0.67479289495E+03  0.00000000000E+00 0.  1.
         12    1    5    5    0    0 -0.86253037674E+01  0.64247198415E+00  0.37128154360E+01  0.94124191254E+01  0.00000000000E+00 0. -1.
         13    1    3    3    0    0 -0.17808909848E+02 -0.28110376769E+02  0.20390571341E+02  0.39027246274E+02  0.00000000000E+00 0. -1.
        -14    1    3    3    0    0 -0.16011825812E+02  0.45794660313E+02 -0.33521087787E+02  0.58967726812E+02  0.00000000000E+00 0.  1.
          5    1    4    4  501    0  0.10015169093E+03 -0.12422239417E+03  0.16098033220E+03  0.22670179568E+03  0.41800000000E+01 0.  1.
         -5    1    4    4    0  501  0.23081479057E+02  0.22001156440E+02 -0.57683080583E+00  0.32165364819E+02  0.41800000000E+01 0.  1.
</event>
<event>
11    1  0.7882745E-009  0.1551626E+03  0.7561462E-02  0.1091717E+00
         22   -1    0    0    0    0  0.00000000000E+00  0.00000000000E+00  0.11065505777E+04  0.11065505777E+04  0.00000000000E+00 0.  1.
         22   -1    0    0    0    0 -0.00000000000E+00 -0.00000000000E+00 -0.62820389735E+03  0.62820389735E+03  0.00000000000E+00 0. -1.
        -24    2    1    2    0    0 -0.60966601000E+02  0.70007236898E+01 -0.59490009946E+03  0.60360835519E+03  0.81676076958E+02 0.  0.
         25    2    1    2    0    0  0.62081828219E+02 -0.97077077633E+02  0.27204837553E+03  0.32083595590E+03  0.12508908655E+03 0.  0.
         24    2    1    2    0    0 -0.11152272192E+01  0.90076353943E+02  0.80119840432E+03  0.81031016401E+03  0.81047427693E+02 0.  0.
        -13    1    5    5    0    0  0.24911147275E+02  0.77980760878E+01  0.34740337022E+03  0.34838265871E+03  0.00000000000E+00 0.  1.
         14    1    5    5    0    0 -0.26026374494E+02  0.82278277855E+02  0.45379503411E+03  0.46192750530E+03  0.00000000000E+00 0. -1.
         11    1    3    3    0    0 -0.54753686834E+02 -0.17088656073E+02 -0.54335178974E+03  0.54637089582E+03  0.00000000000E+00 0. -1.
        -12    1    3    3    0    0 -0.62129141660E+01  0.24089379762E+02 -0.51548309720E+02  0.57237459366E+02  0.00000000000E+00 0.  1.
          5    1    4    4  501    0  0.89677501061E+02 -0.27432554695E+02  0.13229868345E+03  0.16221902877E+03  0.41800000000E+01 0. -1.
         -5    1    4    4    0  501 -0.27595672842E+02 -0.69644522937E+02  0.13974969208E+03  0.15861692713E+03  0.41800000000E+01 0. -1.
</event>
<event>
11    1  0.7882745E-009  0.1733061E+03  0.7561462E-02  0.1075190E+00
         22   -1    0    0    0    0  0.00000000000E+00  0.00000000000E+00  0.10024591233E+04  0.10024591233E+04  0.00000000000E+00 0. -1.
         22   -1    0    0    0    0 -0.00000000000E+00 -0.00000000000E+00 -0.69224159434E+03  0.69224159434E+03  0.00000000000E+00 0. -1.
         24    2    1    2    0    0 -0.12034096619E+03 -0.23013911136E+01 -0.66683959253E+03  0.68226293203E+03  0.79501079885E+02 0.  0.
         25    2    1    2    0    0  0.96599208057E+02  0.22715011191E+01  0.42065474751E+03  0.44937078147E+03  0.12508843240E+03 0.  0.
        -24    2    1    2    0    0  0.23741758132E+02  0.29889994591E-01  0.55640237395E+03  0.56306700411E+03  0.83049246907E+02 0.  0.
        -13    1    3    3    0    0 -0.66059775025E+02 -0.40591330569E+02 -0.33758671314E+03  0.34637600795E+03  0.00000000000E+00 0.  1.
         14    1    3    3    0    0 -0.54281191164E+02  0.38289939455E+02 -0.32925287939E+03  0.33588692408E+03  0.00000000000E+00 0. -1.
         11    1    5    5    0    0  0.76057215502E+01 -0.19439430228E+02  0.50825273041E+03  0.50868121296E+03  0.00000000000E+00 0. -1.
        -12    1    5    5    0    0  0.16136036582E+02  0.19469320222E+02  0.48149643536E+02  0.54385791151E+02  0.00000000000E+00 0.  1.
          5    1    4    4  501    0  0.78002866332E+02 -0.53488678976E+02  0.30818271057E+03  0.32239655927E+03  0.41800000000E+01 0.  1.
         -5    1    4    4    0  501  0.18596341725E+02  0.55760180096E+02  0.11247203694E+03  0.12697422220E+03  0.41800000000E+01 0.  1.
</event>
<event>
11    1  0.7882745E-009  0.1381502E+03  0.7561462E-02  0.1109642E+00
         22   -1    0    0    0    0  0.00000000000E+00  0.00000000000E+00  0.21889773484E+03  0.21889773484E+03  0.00000000000E+00 0.  1.
         22   -1    0    0    0    0 -0.00000000000E+00 -0.00000000000E+00 -0.33360180982E+04  0.33360180982E+04  0.00000000000E+00 0. -1.
        -24    2    1    2    0    0  0.11091698611E+02 -0.55921769722E+02 -0.29102744868E+04  0.29119970797E+04  0.82335494407E+02 0.  0.
         25    2    1    2    0    0 -0.24969266138E+02  0.81310643567E+02 -0.40200770566E+03  0.42952526710E+03  0.12508746803E+03 0.  0.
         24    2    1    2    0    0  0.13877567527E+02 -0.25388873845E+02  0.19516182901E+03  0.21339348632E+03  0.81310876911E+02 0.  0.
        -13    1    5    5    0    0  0.14103127979E+02 -0.17873795425E+02  0.20197080983E+03  0.20325004011E+03  0.00000000000E+00 0.  1.
         14    1    5    5    0    0 -0.22556045198E+00 -0.75150784206E+01 -0.68089808179E+01  0.10143446207E+02  0.00000000000E+00 0. -1.
         13    1    3    3    0    0 -0.80090846903E+01 -0.45132330735E+02 -0.27310984554E+04  0.27314830854E+04  0.00000000000E+00 0. -1.
        -14    1    3    3    0    0  0.19100783301E+02 -0.10789438987E+02 -0.17917603131E+03  0.18051399423E+03  0.00000000000E+00 0.  1.
          5    1    4    4  501    0  0.13202415479E+02  0.26390394615E+00 -0.26751383345E+03  0.26787216524E+03  0.41800000000E+01 0. -1.
         -5    1    4    4    0  501 -0.38171681617E+02  0.81046739620E+02 -0.13449387221E+03  0.16165310186E+03  0.41800000000E+01 0. -1.
</event>
<event>
11    1  0.7882745E-009  0.1555631E+03  0.7561462E-02  0.1091326E+00
         22   -1    0    0    0    0  0.00000000000E+00  0.00000000000E+00  0.13866670089E+04  0.13866670089E+04  0.00000000000E+00 0. -1.
         22   -1    0    0    0    0 -0.00000000000E+00 -0.00000000000E+00 -0.25687015925E+04  0.25687015925E+04  0.00000000000E+00 0. -1.
        -24    2    1    2    0    0  0.62309255276E+02 -0.66726131358E+02 -0.22406414994E+04  0.22439550572E+04  0.80778402134E+02 0.  0.
         25    2    1    2    0    0 -0.13197000469E+03  0.26070467412E+02 -0.29798150693E+03  0.35005103671E+03  0.12508796274E+03 0.  0.
         24    2    1    2    0    0  0.69660749412E+02  0.40655663946E+02  0.13565884227E+04  0.13613625075E+04  0.80437709091E+02 0.  0.
        -13    1    5    5    0    0  0.19303288563E+02 -0.24730215651E+02  0.36597851176E+03  0.36732066588E+03  0.00000000000E+00 0.  1.
         14    1    5    5    0    0  0.50357460849E+02  0.65385879598E+02  0.99060991099E+03  0.99404184161E+03  0.00000000000E+00 0. -1.
         11    1    3    3    0    0  0.71303784273E+02 -0.78916520663E+02 -0.18960630122E+04  0.18990437049E+04  0.00000000000E+00 0. -1.
        -12    1    3    3    0    0 -0.89945289977E+01  0.12190389305E+02 -0.34457848710E+03  0.34491135226E+03  0.00000000000E+00 0.  1.
          5    1    4    4  501    0 -0.97021536999E+02 -0.27537774759E+02 -0.25104839175E+03  0.27058136499E+03  0.41800000000E+01 0. -1.
         -5    1    4    4    0  501 -0.34948467689E+02  0.53608242171E+02 -0.46933115172E+02  0.79469671713E+02  0.41800000000E+01 0. -1.
</event>
<event>
11    1  0.7882745E-009  0.1750041E+03  0.7561462E-02  0.1073757E+00
         22   -1    0    0    0    0  0.00000000000E+00  0.00000000000E+00  0.42832867619E+03  0.42832867619E+03  0.00000000000E+00 0. -1.
         22   -1    0    0    0    0 -0.00000000000E+00 -0.00000000000E+00 -0.17523572976E+04  0.17523572976E+04  0.00000000000E+00 0. -1.
         24    2    1    2    0    0  0.12593934878E+03  0.44137752646E+01 -0.15756587557E+04  0.15827527119E+04  0.80780143728E+02 0.  0.
         25    2    1    2    0    0 -0.87207964046E+02  0.93568854776E+01 -0.13319472410E+03  0.20268275078E+03  0.12508670048E+03 0.  0.
        -24    2    1    2    0    0 -0.38731384736E+02 -0.13770660742E+02  0.38482485840E+03  0.39525051111E+03  0.80268571871E+02 0.  0.
        -13    1    3    3    0    0 -0.11764485003E+02 -0.99918359780E+00 -0.13782831779E+03  0.13833310038E+03  0.00000000000E+00 0.  1.
         14    1    3    3    0    0  0.13770383379E+03  0.54129588624E+01 -0.14378304379E+04  0.14444196116E+04  0.00000000000E+00 0. -1.
         11    1    5    5    0    0 -0.60865954591E+02 -0.24291087475E+02  0.28962593719E+03  0.29694764665E+03  0.00000000000E+00 0. -1.
        -12    1    5    5    0    0  0.22134569855E+02  0.10520426733E+02  0.95198921206E+02  0.98302864455E+02  0.00000000000E+00 0.  1.
          5    1    4    4  501    0 -0.86713568116E+00 -0.48260080764E+02 -0.49662066511E+02  0.69379972397E+02  0.41800000000E+01 0. -1.
         -5    1    4    4    0  501 -0.86340828365E+02  0.57616966242E+02 -0.83532657587E+02  0.13330277839E+03  0.41800000000E+01 0. -1.
</event>
<event>
11    1  0.7882745E-009  0.1466473E+03  0.7561462E-02  0.1100355E+00
         22   -1    0    0    0    0  0.00000000000E+00  0.00000000000E+00  0.19278274906E+04  0.19278274906E+04  0.00000000000E+00 0. -1.
         22   -1    0    0    0    0 -0.00000000000E+00 -0.00000000000E+00 -0.60611364949E+02  0.60611364949E+02  0.00000000000E+00 0. -1.
         24    2    1    2    0    0  0.13626607908E+02 -0.11720169862E+02  0.98517874824E+01  0.83671106283E+02  0.81121818800E+02 0.  0.
         25    2    1    2    0    0 -0.88436795190E+02  0.98169616865E+00  0.24748753804E+03  0.29106589657E+03  0.12508894513E+03 0.  0.
        -24    2    1    2    0    0  0.74810187282E+02  0.10738473693E+02  0.16098768001E+04  0.16137018527E+04  0.81354033969E+02 0.  0.
        -11    1    3    3    0    0  0.19143607446E+02 -0.45156916341E+02  0.33271623037E+01  0.49159890241E+02  0.00000000000E+00 0.  1.
         12    1    3    3    0    0 -0.55169995384E+01  0.33436746479E+02  0.65246251787E+01  0.34511216043E+02  0.00000000000E+00 0. -1.
         13    1    5    5    0    0  0.24636921506E+02 -0.33445752712E+02  0.79630860166E+03  0.79739136273E+03  0.00000000000E+00 0. -1.
        -14    1    5    5    0    0  0.50173265776E+02  0.44184226405E+02  0.81356819846E+03  0.81631048995E+03  0.00000000000E+00 0.  1.
          5    1    4    4  501    0 -0.73024380361E+02 -0.49558513336E+02  0.95498728492E+02  0.13010029175E+03  0.41800000000E+01 0.  1.
         -5    1    4    4    0  501 -0.15412414829E+02  0.50540209504E+02  0.15198880955E+03  0.16096560482E+03  0.41800000000E+01 0.  1.
</event>
<event>
11    1  0.7882745E-009  0.1459001E+03  0.7561462E-02  0.1101143E+00
         22   -1    0    0    0    0  0.00000000000E+00  0.00000000000E+00  0.12835479171E+04  0.12835479171E+04  0.00000000000E+00 0. -1.
         22   -1    0    0    0    0 -0.00000000000E+00 -0.00000000000E+00 -0.39614249449E+03  0.39614249449E+03  0.00000000000E+00 0. -1.
         24    2    1    2    0    0 -0.29043712507E+02  0.69192364725E+02 -0.37249561437E+03  0.38827048714E+03  0.79811452133E+02 0.  0.
         25    2    1    2    0    0  0.27734810999E+02 -0.69274446328E+02  0.36779925129E+03  0.39560269446E+03  0.12512807024E+03 0.  0.
        -24    2    1    2    0    0  0.13089015080E+01  0.82081603195E-01  0.89210178568E+03  0.89581722999E+03  0.81493518575E+02 0.  0.
        -13    1    3    3    0    0 -0.43569739689E+02  0.13100527450E+02 -0.10275356105E+03  0.11237544369E+03  0.00000000000E+00 0.  1.
         14    1    3    3    0    0  0.14526027183E+02  0.56091837274E+02 -0.26974205331E+03  0.27589504345E+03  0.00000000000E+00 0. -1.
         13    1    5    5    0    0 -0.14152561989E+02  0.30001378892E+02  0.70000765944E+03  0.70079319419E+03  0.00000000000E+00 0. -1.
        -14    1    5    5    0    0  0.15461463497E+02 -0.29919297289E+02  0.19209412624E+03  0.19502403580E+03  0.00000000000E+00 0.  1.
          5    1    4    4  501    0  0.40776558074E+01 -0.10030943002E+03  0.20720602851E+03  0.23028334651E+03  0.41800000000E+01 0. -1.
         -5    1    4    4    0  501  0.23657155191E+02  0.31034983696E+02  0.16059322278E+03  0.16531934795E+03  0.41800000000E+01 0. -1.
</event>
<event>
11    1  0.7882745E-009  0.1417682E+03  0.7561462E-02  0.1105600E+00
         22   -1    0    0    0    0  0.00000000000E+00  0.00000000000E+00  0.66572207264E+03  0.66572207264E+03  0.00000000000E+00 0. -1.
         22   -1    0    0    0    0 -0.00000000000E+00 -0.00000000000E+00 -0.89036024138E+03  0.89036024138E+03  0.00000000000E+00 0. -1.
        -24    2    1    2    0    0  0.65391129389E+02 -0.10707125541E+02 -0.83219598125E+03  0.83872621147E+03  0.80751868502E+02 0.  0.
         25    2    1    2    0    0 -0.89371603925E+02 -0.35153728081E+02  0.71411679372E+02  0.17312545557E+03  0.12509886982E+03 0.  0.
         24    2    1    2    0    0  0.23980474537E+02  0.45860853622E+02  0.53614613313E+03  0.54423064698E+03  0.77820562770E+02 0.  0.
        -13    1    5    5    0    0 -0.14061375085E+02  0.24185808000E+02  0.61439607203E+02  0.67509265373E+02  0.00000000000E+00 0.  1.
         14    1    5    5    0    0  0.38041849622E+02  0.21675045622E+02  0.47470652593E+03  0.47672138161E+03  0.00000000000E+00 0. -1.
         13    1    3    3    0    0  0.46695258702E+02 -0.26106472837E+02 -0.77183518697E+03  0.77368698513E+03  0.00000000000E+00 0. -1.
        -14    1    3    3    0    0  0.18695870686E+02  0.15399347296E+02 -0.60360794277E+02  0.65039226345E+02  0.00000000000E+00 0.  1.
          5    1    4    4  501    0 -0.10511599351E+03 -0.42083008453E+02  0.15354755025E+02  0.11433981194E+03  0.41800000000E+01 0. -1.
         -5    1    4    4    0  501  0.15744389586E+02  0.69292803723E+01  0.56056924347E+02  0.58785643631E+02  0.41800000000E+01 0. -1.
</event>
<event>
11    1  0.7882745E-009  0.1551577E+03  0.7561462E-02  0.1091722E+00
         22   -1    0    0    0    0  0.00000000000E+00  0.00000000000E+00  0.22493813495E+03  0.22493813495E+03  0.00000000000E+00 0. -1.
         22   -1    0    0    0    0 -0.00000000000E+00 -0.00000000000E+00 -0.66202680831E+03  0.66202680831E+03  0.00000000000E+00 0.  1.
         24    2    1    2    0    0 -0.75289055800E+02  0.51088294295E+02 -0.48715108148E+03  0.50413666866E+03  0.92515667657E+02 0.  0.
         25    2    1    2    0    0  0.12123246392E+03  0.15172865448E+02 -0.94081588021E+02  0.19856119690E+03  0.12509067733E+03 0.  0.
        -24    2    1    2    0    0 -0.45943408123E+02 -0.66261159743E+02  0.14414399614E+03  0.18426707771E+03  0.81703893810E+02 0.  0.
        -11    1    3    3    0    0 -0.97007349779E+02  0.40780285289E+02 -0.41245873529E+03  0.42567084219E+03  0.00000000000E+00 0.  1.
         12    1    3    3    0    0  0.21718293979E+02  0.10308009006E+02 -0.74692346192E+02  0.78465826464E+02  0.00000000000E+00 0. -1.
         13    1    5    5    0    0 -0.30916150242E+02 -0.54405599718E+02  0.31591289945E+02  0.70098411015E+02  0.00000000000E+00 0. -1.
        -14    1    5    5    0    0 -0.15027257881E+02 -0.11855560025E+02  0.11255270619E+03  0.11416866669E+03  0.00000000000E+00 0.  1.
          5    1    4    4  501    0  0.94277052693E+02 -0.46692333767E+02 -0.71526016261E+02  0.12728621331E+03  0.41800000000E+01 0. -1.
         -5    1    4    4    0  501  0.26955411230E+02  0.61865199215E+02 -0.22555571761E+02  0.71274983591E+02  0.41800000000E+01 0. -1.
</event>
<event>
11    1  0.7882745E-009  0.1416750E+03  0.7561462E-02  0.1105702E+00
         22   -1    0    0    0    0  0.00000000000E+00  0.00000000000E+00  0.13044795915E+04  0.13044795915E+04  0.00000000000E+00 0. -1.
         22   -1    0    0    0    0 -0.00000000000E+00 -0.00000000000E+00 -0.72784540010E+03  0.72784540010E+03  0.00000000000E+00 0.  1.
         24    2    1    2    0    0  0.19481212520E+02 -0.38030994093E+02 -0.67784127788E+03  0.68403080707E+03  0.81261755308E+02 0.  0.
         25    2    1    2    0    0 -0.60013051093E+02 -0.15918856726E+02  0.65023817586E+02  0.15403272598E+03  0.12507200934E+03 0.  0.
        -24    2    1    2    0    0  0.40531838572E+02  0.53949850819E+02  0.11894516517E+04  0.11942614586E+04  0.83137135431E+02 0.  0.
        -11    1    3    3    0    0 -0.31731857249E+02 -0.19135491898E+02 -0.29466032417E+03  0.29698111801E+03  0.00000000000E+00 0.  1.
         12    1    3    3    0    0  0.51213069770E+02 -0.18895502195E+02 -0.38318095371E+03  0.38704968906E+03  0.00000000000E+00 0. -1.
         13    1    5    5    0    0 -0.41576391397E+01  0.84478488227E+01  0.76382118100E+03  0.76387921077E+03  0.00000000000E+00 0. -1.
        -14    1    5    5    0    0  0.44689477712E+02  0.45502001996E+02  0.42563047071E+03  0.43038224778E+03  0.00000000000E+00 0.  1.
          5    1    4    4  501    0 -0.20381901032E+02  0.46192072747E+02  0.62147583668E+02  0.80180571401E+02  0.41800000000E+01 0.  1.
         -5    1    4    4    0  501 -0.39631150060E+02 -0.62110929473E+02  0.28762339178E+01  0.73852154584E+02  0.41800000000E+01 0.  1.
</event>
<event>
11    1  0.7882745E-009  0.2984557E+03  0.7561462E-02  0.1000847E+00
         22   -1    0    0    0    0  0.00000000000E+00  0.00000000000E+00  0.40973782236E+03  0.40973782236E+03  0.00000000000E+00 0. -1.
         22   -1    0    0    0    0 -0.00000000000E+00 -0.00000000000E+00 -0.66293957613E+03  0.66293957613E+03  0.00000000000E+00 0. -1.
         24    2    1    2    0    0  0.34402057327E+03  0.76862900755E+02 -0.34732408462E+03  0.50144162603E+03  0.80942104042E+02 0.  0.
         25    2    1    2    0    0 -0.19107323811E+03 -0.62288876800E+02 -0.14336697509E+03  0.27674957467E+03  0.12508937221E+03 0.  0.
        -24    2    1    2    0    0 -0.15294733516E+03 -0.14574023955E+02  0.23748930594E+03  0.29448619779E+03  0.81949135112E+02 0.  0.
        -11    1    3    3    0    0  0.19044777761E+03  0.27142291641E+02 -0.13632963878E+03  0.23578131903E+03  0.00000000000E+00 0.  1.
         12    1    3    3    0    0  0.15357279565E+03  0.49720609114E+02 -0.21099444584E+03  0.26566030700E+03  0.00000000000E+00 0. -1.
         13    1    5    5    0    0 -0.71002425162E+01  0.12512766505E+02  0.66858966120E+02  0.68389356774E+02  0.00000000000E+00 0. -1.
        -14    1    5    5    0    0 -0.14584709264E+03 -0.27086790460E+02  0.17063033983E+03  0.22609684102E+03  0.00000000000E+00 0.  1.
          5    1    4    4  501    0 -0.18348170681E+03 -0.12473288542E+02 -0.12726076030E+03  0.22368257235E+03  0.41800000000E+01 0. -1.
         -5    1    4    4    0  501 -0.75915313064E+01 -0.49815588258E+02 -0.16106214785E+02  0.53067002325E+02  0.41800000000E+01 0. -1.
</event>
<event>
11    1  0.7882745E-009  0.2556529E+03  0.7561462E-02  0.1020930E+00
         22   -1    0    0    0    0  0.00000000000E+00  0.00000000000E+00  0.11069269783E+04  0.11069269783E+04  0.00000000000E+00 0. -1.
         22   -1    0    0    0    0 -0.00000000000E+00 -0.00000000000E+00 -0.99611909796E+03  0.99611909796E+03  0.00000000000E+00 0. -1.
        -24    2    1    2    0    0  0.13257281837E+03  0.17156713785E+03 -0.76122409393E+03  0.79512649635E+03  0.75849779504E+02 0.  0.
         25    2    1    2    0    0 -0.29762385222E+03 -0.10639917374E+03 -0.69116268816E+02  0.34687860733E+03  0.12508784125E+03 0.  0.
         24    2    1    2    0    0  0.16505103384E+03 -0.65167964108E+02  0.94114824313E+03  0.96104097262E+03  0.79693338388E+02 0.  0.
        -11    1    5    5    0    0  0.12156136256E+02  0.16895343507E+02  0.88540209295E+02  0.90953795648E+02  0.00000000000E+00 0.  1.
         12    1    5    5    0    0  0.15289489759E+03 -0.82063307615E+02  0.85260803384E+03  0.87008717697E+03  0.00000000000E+00 0. -1.
         13    1    3    3    0    0  0.78323699242E+02  0.15210969307E+03 -0.53589517840E+03  0.56254386747E+03  0.00000000000E+00 0. -1.
        -14    1    3    3    0    0  0.54249119132E+02  0.19457444781E+02 -0.22532891553E+03  0.23258262888E+03  0.00000000000E+00 0.  1.
          5    1    4    4  501    0 -0.64762219361E+02 -0.83473302018E+02 -0.16509460705E+02  0.10701388648E+03  0.41800000000E+01 0.  1.
         -5    1    4    4    0  501 -0.23286163286E+03 -0.22925871727E+02 -0.52606808112E+02  0.23986472085E+03  0.41800000000E+01 0.  1.
</event>
<event>
11    1  0.7882745E-009  0.2046929E+03  0.7561462E-02  0.1051254E+00
         22   -1    0    0    0    0  0.00000000000E+00  0.00000000000E+00  0.18642160739E+03  0.18642160739E+03  0.00000000000E+00 0.  1.
         22   -1    0    0    0    0 -0.00000000000E+00 -0.00000000000E+00 -0.15166982617E+04  0.15166982617E+04  0.00000000000E+00 0.  1.
         24    2    1    2    0    0  0.15160741447E+03  0.53161989410E+02 -0.10750356239E+04  0.10899991952E+04  0.81152003443E+02 0.  0.
         25    2    1    2    0    0 -0.17358417615E+03 -0.39476656704E+01 -0.39125342503E+03  0.44595184850E+03  0.12508700297E+03 0.  0.
        -24    2    1    2    0    0  0.21976761683E+02 -0.49214323740E+02  0.13601239460E+03  0.16716882540E+03  0.80876553983E+02 0.  0.
        -13    1    3    3    0    0  0.83543555947E+02  0.61463984385E+02 -0.48328092533E+03  0.49428514028E+03  0.00000000000E+00 0.  1.
         14    1    3    3    0    0  0.68063858524E+02 -0.83019949754E+01 -0.59175469853E+03  0.59571405488E+03  0.00000000000E+00 0. -1.
         11    1    5    5    0    0 -0.18372863190E+02 -0.41899437638E+02  0.33339254798E+02  0.56609459339E+02  0.00000000000E+00 0. -1.
        -12    1    5    5    0    0  0.40349624873E+02 -0.73148861018E+01  0.10267313980E+03  0.11055936606E+03  0.00000000000E+00 0.  1.
          5    1    4    4  501    0 -0.69812229125E+02  0.45398196284E+02 -0.86107894257E+02  0.11986152600E+03  0.41800000000E+01 0.  1.
         -5    1    4    4    0  501 -0.10377194703E+03 -0.49345861954E+02 -0.30514553077E+03  0.32609032251E+03  0.41800000000E+01 0.  1.
</event>
<event>
11    1  0.7882745E-009  0.1465308E+03  0.7561462E-02  0.1100477E+00
         22   -1    0    0    0    0  0.00000000000E+00  0.00000000000E+00  0.25310931909E+03  0.25310931909E+03  0.00000000000E+00 0. -1.
         22   -1    0    0    0    0 -0.00000000000E+00 -0.00000000000E+00 -0.14961825263E+04  0.14961825263E+04  0.00000000000E+00 0. -1.
        -24    2    1    2    0    0 -0.19864129153E+02  0.23557075717E+02 -0.13280137008E+04  0.13305941299E+04  0.76881919810E+02 0.  0.
         25    2    1    2    0    0  0.50102003822E+02 -0.90895635471E+02 -0.10951664125E+03  0.19598862239E+03  0.12508164558E+03 0.  0.
         24    2    1    2    0    0 -0.30237874669E+02  0.67338559754E+02  0.19445713488E+03  0.22270909305E+03  0.79604975502E+02 0.  0.
        -11    1    5    5    0    0 -0.34211096606E+02  0.84630532495E+01  0.24829791328E+02  0.43110798400E+02  0.00000000000E+00 0.  1.
         12    1    5    5    0    0  0.39732219368E+01  0.58875506504E+02  0.16962734355E+03  0.17959829465E+03  0.00000000000E+00 0. -1.
         13    1    3    3    0    0 -0.21963013307E+02 -0.18319987274E+02 -0.22874780595E+03  0.23052885853E+03  0.00000000000E+00 0. -1.
        -14    1    3    3    0    0  0.20988841536E+01  0.41877062991E+02 -0.10992658948E+04  0.11000652714E+04  0.00000000000E+00 0.  1.
          5    1    4    4  501    0  0.33155487888E+02 -0.68313751070E+02  0.66759736011E+01  0.76341967396E+02  0.41800000000E+01 0. -1.
         -5    1    4    4    0  501  0.16946515934E+02 -0.22581884401E+02 -0.11619261485E+03  0.11964665500E+03  0.41800000000E+01 0. -1.
</event>
<event>
11    1  0.7882745E-009  0.2228884E+03  0.7561462E-02  0.1039423E+00
         22   -1    0    0    0    0  0.00000000000E+00  0.00000000000E+00  0.23753470091E+03  0.23753470091E+03  0.00000000000E+00 0. -1.
         22   -1    0    0    0    0 -0.00000000000E+00 -0.00000000000E+00 -0.44176228602E+03  0.44176228602E+03  0.00000000000E+00 0.  1.
         24    2    1    2    0    0 -0.85929809963E+02  0.20554736270E+02  0.27169156612E+02  0.12116362912E+03  0.78332831735E+02 0.  0.
         25    2    1    2    0    0 -0.41360272799E+02 -0.17854334277E+03 -0.25565245966E+03  0.33851745370E+03  0.12508992331E+03 0.  0.
        -24    2    1    2    0    0  0.12729008276E+03  0.15798860650E+03  0.24255717939E+02  0.21961590411E+03  0.80496214409E+02 0.  0.
        -13    1    3    3    0    0 -0.62918899372E+02  0.33220171947E+02 -0.13820626461E+02  0.72480186521E+02  0.00000000000E+00 0.  1.
         14    1    3    3    0    0 -0.23010910591E+02 -0.12665435677E+02  0.40989783073E+02  0.48683442601E+02  0.00000000000E+00 0. -1.
         13    1    5    5    0    0  0.11674295905E+03  0.90212465367E+02  0.30782475595E+02  0.15071419375E+03  0.00000000000E+00 0. -1.
        -14    1    5    5    0    0  0.10547123715E+02  0.67776141129E+02 -0.65267576555E+01  0.68901710360E+02  0.00000000000E+00 0.  1.
          5    1    4    4  501    0 -0.40018299912E+02 -0.18251198043E+03 -0.16995178216E+03  0.25261268374E+03  0.41800000000E+01 0. -1.
         -5    1    4    4    0  501 -0.13419728870E+01  0.39686376649E+01 -0.85700677506E+02  0.85904769956E+02  0.41800000000E+01 0. -1.
</event>
<event>
11    1  0.7882745E-009  0.1635413E+03  0.7561462E-02  0.1083793E+00
         22   -1    0    0    0    0  0.00000000000E+00  0.00000000000E+00  0.13354870386E+03  0.13354870386E+03  0.00000000000E+00 0.  1.
         22   -1    0    0    0    0 -0.00000000000E+00 -0.00000000000E+00 -0.60404025881E+03  0.60404025881E+03  0.00000000000E+00 0. -1.
         24    2    1    2    0    0  0.89371843909E+02 -0.54517830714E+02 -0.38556438530E+03  0.40762529420E+03  0.80863866540E+02 0.  0.
         25    2    1    2    0    0 -0.13913478825E+03 -0.25556543866E+02 -0.22314124202E+02  0.19014942764E+03  0.12508900214E+03 0.  0.
        -24    2    1    2    0    0  0.49762944342E+02  0.80074374580E+02 -0.62613045445E+02  0.13981424083E+03  0.82093680541E+02 0.  0.
        -13    1    3    3    0    0  0.53834808081E+02 -0.43283429425E+02 -0.11239636436E+03  0.13192643611E+03  0.00000000000E+00 0.  1.
         14    1    3    3    0    0  0.35537035829E+02 -0.11234401289E+02 -0.27316802094E+03  0.27569885809E+03  0.00000000000E+00 0. -1.
         13    1    5    5    0    0  0.25247910855E+02  0.91106236573E+02 -0.61745698658E+02  0.11291737974E+03  0.00000000000E+00 0. -1.
        -14    1    5    5    0    0  0.24515033486E+02 -0.11031861993E+02 -0.86734678623E+00  0.26896861087E+02  0.00000000000E+00 0.  1.
          5    1    4    4  501    0 -0.11856585323E+03 -0.70602626032E+02 -0.73689509306E+01  0.13825471490E+03  0.41800000000E+01 0.  1.
         -5    1    4    4    0  501 -0.20568935025E+02  0.45046082166E+02 -0.14945173271E+02  0.51894712743E+02  0.41800000000E+01 0.  1.
</event>
<event>
11    1  0.7882745E-009  0.1592510E+03  0.7561462E-02  0.1087784E+00
         22   -1    0    0    0    0  0.00000000000E+00  0.00000000000E+00  0.26423520127E+04  0.26423520127E+04  0.00000000000E+00 0. -1.
         22   -1    0    0    0    0 -0.00000000000E+00 -0.00000000000E+00 -0.16239908595E+03  0.16239908595E+03  0.00000000000E+00 0. -1.
        -24    2    1    2    0    0  0.41964730115E+02 -0.72584438455E+02 -0.12104234247E+03  0.16774788147E+03  0.80365190158E+02 0.  0.
         25    2    1    2    0    0  0.15170771442E+01  0.15578096731E+03  0.59858213748E+03  0.63104845391E+03  0.12510621317E+03 0.  0.
         24    2    1    2    0    0 -0.43481807259E+02 -0.83196528857E+02  0.20024131317E+04  0.20059547633E+04  0.73374601617E+02 0.  0.
        -11    1    5    5    0    0  0.11423972684E+02  0.69513215097E+01  0.18922371134E+03  0.18969565349E+03  0.00000000000E+00 0.  1.
         12    1    5    5    0    0 -0.54905779943E+02 -0.90147850367E+02  0.18131894204E+04  0.18162591098E+04  0.00000000000E+00 0. -1.
         11    1    3    3    0    0  0.60440245203E+02 -0.50113279988E+02 -0.11294027690E+03  0.13754951915E+03  0.00000000000E+00 0. -1.
        -12    1    3    3    0    0 -0.18475515088E+02 -0.22471158467E+02 -0.81020655643E+01  0.30198362323E+02  0.00000000000E+00 0.  1.
          5    1    4    4  501    0 -0.32073815060E+00 -0.12027563350E+02  0.41946345869E+01  0.13410164519E+02  0.41800000000E+01 0.  1.
         -5    1    4    4    0  501  0.18378152948E+01  0.16780853066E+03  0.59438750289E+03  0.61763828939E+03  0.41800000000E+01 0.  1.
</event>
<event>
11    1  0.7882745E-009  0.1340985E+03  0.7561462E-02  0.1114333E+00
         22   -1    0    0    0    0  0.00000000000E+00  0.00000000000E+00  0.32355653201E+03  0.32355653201E+03  0.00000000000E+00 0.  1.
         22   -1    0    0    0    0 -0.00000000000E+00 -0.00000000000E+00 -0.27431730276E+03  0.27431730276E+03  0.00000000000E+00 0.  1.
         24    2    1    2    0    0 -0.40234490303E+02 -0.10317711047E+02 -0.20611898290E+03  0.22484837957E+03  0.79664856190E+02 0.  0.
         25    2    1    2    0    0  0.69856501815E+02  0.39116130993E+02  0.68030782126E+02  0.16335924388E+03  0.12509217680E+03 0.  0.
        -24    2    1    2    0    0 -0.29622011512E+02 -0.28798419946E+02  0.18732743004E+03  0.20966621131E+03  0.84625891811E+02 0.  0.
        -11    1    3    3    0    0 -0.12753005155E+02  0.12192907799E+02 -0.17973325955E+03  0.18059720576E+03  0.00000000000E+00 0.  1.
         12    1    3    3    0    0 -0.27481485148E+02 -0.22510618846E+02 -0.26385723359E+02  0.44251173814E+02  0.00000000000E+00 0. -1.
         11    1    5    5    0    0  0.81072330691E+01 -0.60992851316E+00 -0.63680671054E+01  0.10327222254E+02  0.00000000000E+00 0. -1.
        -12    1    5    5    0    0 -0.37729244581E+02 -0.28188491433E+02  0.19369549714E+03  0.19933898906E+03  0.00000000000E+00 0.  1.
          5    1    4    4  501    0  0.54590810673E+02 -0.32235334177E+02  0.36264444425E-01  0.63535400325E+02  0.41800000000E+01 0. -1.
         -5    1    4    4    0  501  0.15265691142E+02  0.71351465170E+02  0.67994517682E+02  0.99823843558E+02  0.41800000000E+01 0. -1.
</event>
<event>
11    1  0.7882745E-009  0.1578143E+03  0.7561462E-02  0.1089151E+00
         22   -1    0    0    0    0  0.00000000000E+00  0.00000000000E+00  0.16503419873E+04  0.16503419873E+04  0.00000000000E+00 0. -1.
         22   -1    0    0    0    0 -0.00000000000E+00 -0.00000000000E+00 -0.27243404497E+03  0.27243404497E+03  0.00000000000E+00 0. -1.
        -24    2    1    2    0    0  0.71445594450E+01  0.20865738250E+02 -0.24394249294E+03  0.25725206923E+03  0.78640088393E+02 0.  0.
         25    2    1    2    0    0  0.88015444956E+02 -0.37742404696E+02  0.30962445762E+03  0.34739507620E+03  0.12507928107E+03 0.  0.
         24    2    1    2    0    0 -0.95160004401E+02  0.16876666446E+02  0.13122259777E+04  0.13181288868E+04  0.78654291554E+02 0.  0.
        -11    1    5    5    0    0 -0.77339611542E+02 -0.41630238941E+01  0.55245336045E+03  0.55785612998E+03  0.00000000000E+00 0.  1.
         12    1    5    5    0    0 -0.17820392859E+02  0.21039690340E+02  0.75977261720E+03  0.76027275686E+03  0.00000000000E+00 0. -1.
         13    1    3    3    0    0 -0.31791651099E+01 -0.22169842091E+02 -0.16695494832E+03  0.16845047865E+03  0.00000000000E+00 0. -1.
        -14    1    3    3    0    0  0.10323724555E+02  0.43035580341E+02 -0.76987544620E+02  0.88801590586E+02  0.00000000000E+00 0.  1.
          5    1    4    4  501    0  0.49406973659E+02 -0.25901924148E+02  0.27446890128E+02  0.62311819893E+02  0.41800000000E+01 0. -1.
         -5    1    4    4    0  501  0.38608471297E+02 -0.11840480547E+02  0.28217756749E+03  0.28508325631E+03  0.41800000000E+01 0. -1.
</event>
<event>
11    1  0.7882745E-009  0.1302452E+03  0.7561462E-02  0.1118968E+00
         22   -1    0    0    0    0  0.00000000000E+00  0.00000000000E+00  0.15026254852E+04  0.15026254852E+04  0.00000000000E+00 0.  1.
         22   -1    0    0    0    0 -0.00000000000E+00 -0.00000000000E+00 -0.38719012249E+02  0.38719012249E+02  0.00000000000E+00 0. -1.
         24    2    1    2    0    0  0.19457017036E+02 -0.17920970322E+02  0.41219004156E+02  0.94904287742E+02  0.81290102959E+02 0.  0.
         25    2    1    2    0    0 -0.93689931729E+01 -0.20736710870E+02  0.39954245973E+03  0.41928492458E+03  0.12509149308E+03 0.  0.
        -24    2    1    2    0    0 -0.10088023863E+02  0.38657681192E+02  0.10231450091E+04  0.10271552852E+04  0.81400771815E+02 0.  0.
        -13    1    3    3    0    0  0.35492259983E+02 -0.36978654432E+02  0.46769881723E+02  0.69386909707E+02  0.00000000000E+00 0.  1.
         14    1    3    3    0    0 -0.16035242947E+02  0.19057684111E+02 -0.55508775675E+01  0.25517378035E+02  0.00000000000E+00 0. -1.
         11    1    5    5    0    0 -0.45944110647E+01 -0.14408736222E+02  0.43413518940E+02  0.45972316880E+02  0.00000000000E+00 0. -1.
        -12    1    5    5    0    0 -0.54936127984E+01  0.53066417413E+02  0.97973149015E+03  0.98118296828E+03  0.00000000000E+00 0.  1.
          5    1    4    4  501    0  0.33058692296E+02  0.18254101995E+02  0.31257762011E+03  0.31487827866E+03  0.41800000000E+01 0.  1.
         -5    1    4    4    0  501 -0.42427685469E+02 -0.38990812866E+02  0.86964839613E+02  0.10440664591E+03  0.41800000000E+01 0.  1.
</event>
<event>
11    1  0.7882745E-009  0.1482298E+03  0.7561462E-02  0.1098701E+00
         22   -1    0    0    0    0  0.00000000000E+00  0.00000000000E+00  0.24457285157E+04  0.24457285157E+04  0.00000000000E+00 0. -1.
         22   -1    0    0    0    0 -0.00000000000E+00 -0.00000000000E+00 -0.98625174187E+02  0.98625174187E+02  0.00000000000E+00 0. -1.
        -24    2    1    2    0    0  0.80756507315E+02 -0.13097039829E+01 -0.50976060379E+02  0.12526627345E+03  0.81054005048E+02 0.  0.
         25    2    1    2    0    0 -0.62529689695E+02  0.48077632934E+01  0.49406332532E+03  0.51349809355E+03  0.12509454816E+03 0.  0.
         24    2    1    2    0    0 -0.18226817619E+02 -0.34980593106E+01  0.19040160766E+04  0.19055893229E+04  0.75159791975E+02 0.  0.
        -13    1    5    5    0    0 -0.85902459572E+01 -0.38472713393E+01  0.27832731277E+02  0.29381197265E+02  0.00000000000E+00 0.  1.
         14    1    5    5    0    0 -0.96365716622E+01  0.34921202873E+00  0.18761833453E+04  0.18762081256E+04  0.00000000000E+00 0. -1.
         11    1    3    3    0    0  0.78604350830E+02  0.20678341899E+02 -0.14413154025E+02  0.82546815820E+02  0.00000000000E+00 0. -1.
        -12    1    3    3    0    0  0.21521564850E+01 -0.21988045882E+02 -0.36562906353E+02  0.42719457631E+02  0.00000000000E+00 0.  1.
          5    1    4    4  501    0 -0.94717343151E+02  0.27938531930E+02  0.38113546077E+03  0.39374312504E+03  0.41800000000E+01 0.  1.
         -5    1    4    4    0  501  0.32187653456E+02 -0.23130768637E+02  0.11292786455E+03  0.11975496852E+03  0.41800000000E+01 0.  1.
</event>
<event>
11    1  0.7882745E-009  0.1718148E+03  0.7561462E-02  0.1076463E+00
         22   -1    0    0    0    0  0.00000000000E+00  0.00000000000E+00  0.25494915427E+04  0.25494915427E+04  0.00000000000E+00 0. -1.
         22   -1    0    0    0    0 -0.00000000000E+00 -0.00000000000E+00 -0.24595335468E+03  0.24595335468E+03  0.00000000000E+00 0.  1.
         24    2    1    2    0    0 -0.11899255160E+03 -0.16055604449E+00 -0.20798356451E+03  0.25284616327E+03  0.80714100728E+02 0.  0.
         25    2    1    2    0    0  0.94380973999E+02 -0.25268059296E+02  0.41625971787E+03  0.44549596677E+03  0.12509300786E+03 0.  0.
        -24    2    1    2    0    0  0.24611577604E+02  0.25428615341E+02  0.20952620347E+04  0.20971027674E+04  0.80403225358E+02 0.  0.
        -13    1    3    3    0    0 -0.11848565083E+03 -0.21587315538E+02 -0.18955760614E+03  0.22458171718E+03  0.00000000000E+00 0.  1.
         14    1    3    3    0    0 -0.50690077004E+00  0.21426759493E+02 -0.18425958376E+02  0.28264446091E+02  0.00000000000E+00 0. -1.
         13    1    5    5    0    0  0.38023521129E+02  0.39163501202E+02  0.88122494894E+03  0.88291391348E+03  0.00000000000E+00 0. -1.
        -14    1    5    5    0    0 -0.13411943525E+02 -0.13734885862E+02  0.12140370858E+04  0.12141888539E+04  0.00000000000E+00 0.  1.
          5    1    4    4  501    0  0.10833297107E+03  0.85662600707E+01  0.37373195433E+03  0.38923316858E+03  0.41800000000E+01 0.  1.
         -5    1    4    4    0  501 -0.13951997067E+02 -0.33834319367E+02  0.42527763541E+02  0.56262798197E+02  0.41800000000E+01 0.  1.
</event>
<event>
11    1  0.7882745E-009  0.1453292E+03  0.7561462E-02  0.1101749E+00
         22   -1    0    0    0    0  0.00000000000E+00  0.00000000000E+00  0.23205931632E+03  0.23205931632E+03  0.00000000000E+00 0.  1.
         22   -1    0    0    0    0 -0.00000000000E+00 -0.00000000000E+00 -0.14723451349E+04  0.14723451349E+04  0.00000000000E+00 0.  1.
         24    2    1    2    0    0  0.25474707200E+02  0.62330279915E+01 -0.98504037619E+03  0.98854241085E+03  0.78890709033E+02 0.  0.
         25    2    1    2    0    0  0.38141444403E+02  0.32882025637E+02 -0.46237379622E+03  0.48163535560E+03  0.12508833255E+03 0.  0.
        -24    2    1    2    0    0 -0.63616151604E+02 -0.39115053628E+02  0.20712835382E+03  0.23422668480E+03  0.79893571390E+02 0.  0.
        -13    1    3    3    0    0 -0.23046389376E+02  0.14711735832E+02 -0.55823324366E+03  0.55890242937E+03  0.00000000000E+00 0.  1.
         14    1    3    3    0    0  0.48521096576E+02 -0.84787078402E+01 -0.42680713254E+03  0.42963998148E+03  0.00000000000E+00 0. -1.
         13    1    5    5    0    0 -0.11992118832E+01 -0.16092623005E+02 -0.55630301577E+00  0.16146829329E+02  0.00000000000E+00 0. -1.
        -14    1    5    5    0    0 -0.62416939720E+02 -0.23022430623E+02  0.20768465684E+03  0.21807985547E+03  0.00000000000E+00 0.  1.
          5    1    4    4  501    0  0.33860946181E+02  0.51934735201E+02 -0.93765739248E+02  0.11248673990E+03  0.41800000000E+01 0. -1.
         -5    1    4    4    0  501  0.42804982227E+01 -0.19052709564E+02 -0.36860805698E+03  0.36914861570E+03  0.41800000000E+01 0. -1.
</event>
<event>
11    1  0.7882745E-009  0.1481543E+03  0.7561462E-02  0.1098780E+00
         22   -1    0    0    0    0  0.00000000000E+00  0.00000000000E+00  0.41086102527E+03  0.41086102527E+03  0.00000000000E+00 0. -1.
         22   -1    0    0    0    0 -0.00000000000E+00 -0.00000000000E+00 -0.28314749758E+03  0.28314749758E+03  0.00000000000E+00 0.  1.
        -24    2    1    2    0    0  0.33140765692E+02  0.19243231665E+02 -0.20450715860E+03  0.22316445016E+03  0.80688174979E+02 0.  0.
         25    2    1    2    0    0  0.30197459758E+02  0.37575793392E+02  0.17852554119E+02  0.13525883423E+03  0.12510959884E+03 0.  0.
         24    2    1    2    0    0 -0.63338225450E+02 -0.56819025057E+02  0.31436813218E+03  0.33558523846E+03  0.80932053788E+02 0.  0.
        -11    1    5    5    0    0 -0.10541614225E+02 -0.38445214554E+02  0.43478747053E+02  0.58987808892E+02  0.00000000000E+00 0.  1.
         12    1    5    5    0    0 -0.52796611225E+02 -0.18373810502E+02  0.27088938512E+03  0.27659742956E+03  0.00000000000E+00 0. -1.
         11    1    3    3    0    0  0.29635921108E+02  0.93300743822E+01 -0.17104222352E+02  0.35466780656E+02  0.00000000000E+00 0. -1.
        -12    1    3    3    0    0  0.35048445839E+01  0.99131572826E+01 -0.18740293625E+03  0.18769766951E+03  0.00000000000E+00 0.  1.
          5    1    4    4  501    0  0.32133773882E+02  0.59894033342E+02 -0.35823221410E+02  0.76945761716E+02  0.41800000000E+01 0.  1.
         -5    1    4    4    0  501 -0.19363141236E+01 -0.22318239950E+02  0.53675775529E+02  0.58313072510E+02  0.41800000000E+01 0.  1.
</event>
<event>
11    1  0.7882745E-009  0.1846696E+03  0.7561462E-02  0.1065927E+00
         22   -1    0    0    0    0  0.00000000000E+00  0.00000000000E+00  0.24107653317E+04  0.24107653317E+04  0.00000000000E+00 0.  1.
         22   -1    0    0    0    0 -0.00000000000E+00 -0.00000000000E+00 -0.78956547164E+02  0.78956547164E+02  0.00000000000E+00 0. -1.
         24    2    1    2    0    0 -0.18422433353E+02  0.32246915186E+02 -0.30548978318E+02  0.94901041200E+02  0.81815145022E+02 0.  0.
         25    2    1    2    0    0  0.15001799012E+03 -0.22166153316E+02  0.75997307882E+03  0.78498632848E+03  0.12509084560E+03 0.  0.
        -24    2    1    2    0    0 -0.13159555677E+03 -0.10080761870E+02  0.16023846840E+04  0.16098345092E+04  0.80693611998E+02 0.  0.
        -13    1    3    3    0    0 -0.17823702432E+02  0.36696485256E+02  0.19102573286E+02  0.45046916705E+02  0.00000000000E+00 0.  1.
         14    1    3    3    0    0 -0.59873092107E+00 -0.44495700702E+01 -0.49651551603E+02  0.49854124495E+02  0.00000000000E+00 0. -1.
         11    1    5    5    0    0 -0.31976813182E+02  0.12751139337E+02  0.15182850485E+03  0.15568237865E+03  0.00000000000E+00 0. -1.
        -12    1    5    5    0    0 -0.99618743588E+02 -0.22831901207E+02  0.14505561792E+04  0.14541521305E+04  0.00000000000E+00 0.  1.
          5    1    4    4  501    0  0.15084886045E+03 -0.48016866023E+00  0.73989335074E+03  0.75512598428E+03  0.41800000000E+01 0. -1.
         -5    1    4    4    0  501 -0.83087033219E+00 -0.21685984656E+02  0.20079728081E+02  0.29860344201E+02  0.41800000000E+01 0. -1.
</event>
<event>
11    1  0.7882745E-009  0.1464569E+03  0.7561462E-02  0.1100555E+00
         22   -1    0    0    0    0  0.00000000000E+00  0.00000000000E+00  0.58837587812E+03  0.58837587812E+03  0.00000000000E+00 0. -1.
         22   -1    0    0    0    0 -0.00000000000E+00 -0.00000000000E+00 -0.13459362568E+04  0.13459362568E+04  0.00000000000E+00 0.  1.
         24    2    1    2    0    0 -0.60530483319E+02 -0.45611847845E+02 -0.12979592020E+04  0.13026196537E+04  0.79846677425E+02 0.  0.
         25    2    1    2    0    0  0.58509854712E+02  0.96856044220E+02  0.13658194885E+03  0.21703986628E+03  0.12508868216E+03 0.  0.
        -24    2    1    2    0    0  0.20206286068E+01 -0.51244196375E+02  0.40381687447E+03  0.41465261500E+03  0.78985267083E+02 0.  0.
        -13    1    3    3    0    0  0.19635597186E+02 -0.65681360439E+01 -0.27818108432E+03  0.27895055612E+03  0.00000000000E+00 0.  1.
         14    1    3    3    0    0 -0.80166080505E+02 -0.39043711801E+02 -0.10197781177E+04  0.10236690975E+04  0.00000000000E+00 0. -1.
         13    1    5    5    0    0 -0.38477613215E+02 -0.24162613210E+02  0.19061035758E+03  0.19595067494E+03  0.00000000000E+00 0. -1.
        -14    1    5    5    0    0  0.40498241822E+02 -0.27081583165E+02  0.21320651689E+03  0.21870194005E+03  0.00000000000E+00 0.  1.
          5    1    4    4  501    0 -0.38431713114E+02  0.34062334280E+02  0.28914307882E+02  0.59082559099E+02  0.41800000000E+01 0. -1.
         -5    1    4    4    0  501  0.96941567826E+02  0.62793709940E+02  0.10766764097E+03  0.15795730718E+03  0.41800000000E+01 0. -1.
</event>
<event>
11    1  0.7882745E-009  0.1561287E+03  0.7561462E-02  0.1090776E+00
         22   -1    0    0    0    0  0.00000000000E+00  0.00000000000E+00  0.53189276329E+03  0.53189276329E+03  0.00000000000E+00 0.  1.
         22   -1    0    0    0    0 -0.00000000000E+00 -0.00000000000E+00 -0.28331378229E+03  0.28331378229E+03  0.00000000000E+00 0. -1.
        -24    2    1    2    0    0 -0.90778632588E+02 -0.23574134745E+02 -0.22541318826E+03  0.25716432054E+03  0.80782933537E+02 0.  0.
         25    2    1    2    0    0  0.78314602684E+02  0.52668998718E+02  0.13093681054E+03  0.20420807201E+03  0.12509711387E+03 0.  0.
         24    2    1    2    0    0  0.12464029904E+02 -0.29094863974E+02  0.34305535873E+03  0.35383415304E+03  0.80683118118E+02 0.  0.
        -13    1    5    5    0    0  0.40779490394E+02 -0.18994319701E+02  0.28427062602E+03  0.28780816499E+03  0.00000000000E+00 0.  1.
         14    1    5    5    0    0 -0.28315460490E+02 -0.10100544272E+02  0.58784732714E+02  0.66025988047E+02  0.00000000000E+00 0. -1.
         13    1    3    3    0    0 -0.81643657122E+02 -0.49794814975E+02 -0.18279756522E+03  0.20630113959E+03  0.00000000000E+00 0. -1.
        -14    1    3    3    0    0 -0.91349754652E+01  0.26220680230E+02 -0.42615623047E+02  0.50863180948E+02  0.00000000000E+00 0.  1.
          5    1    4    4  501    0  0.10932877134E+03  0.19924086513E+02  0.88260060409E+02  0.14197556174E+03  0.41800000000E+01 0.  1.
         -5    1    4    4    0  501 -0.31014168661E+02  0.32744912205E+02  0.42676750130E+02  0.62232510272E+02  0.41800000000E+01 0.  1.
</event>
<event>
11    1  0.7882745E-009  0.1465228E+03  0.7561462E-02  0.1100486E+00
         22   -1    0    0    0    0  0.00000000000E+00  0.00000000000E+00  0.26742971995E+03  0.26742971995E+03  0.00000000000E+00 0. -1.
         22   -1    0    0    0    0 -0.00000000000E+00 -0.00000000000E+00 -0.24881559635E+03  0.24881559635E+03  0.00000000000E+00 0. -1.
         24    2    1    2    0    0  0.11196037608E+03  0.28053015237E+02 -0.53412050086E+02  0.15082740534E+03  0.81079970594E+02 0.  0.
         25    2    1    2    0    0 -0.48799783857E+02 -0.43954920591E+01 -0.96729817742E+02  0.16555278447E+03  0.12510126918E+03 0.  0.
        -24    2    1    2    0    0 -0.63160592223E+02 -0.23657523178E+02  0.16875599143E+03  0.19986512650E+03  0.83177793510E+02 0.  0.
        -13    1    3    3    0    0  0.85214804062E+02  0.54984349698E+02 -0.28202331328E+02  0.10526259086E+03  0.00000000000E+00 0.  1.
         14    1    3    3    0    0  0.26745572018E+02 -0.26931334461E+02 -0.25209718758E+02  0.45564814477E+02  0.00000000000E+00 0. -1.
         11    1    5    5    0    0 -0.74081635431E+02 -0.40634160863E+02  0.15075495874E+03  0.17281863708E+03  0.00000000000E+00 0. -1.
        -12    1    5    5    0    0  0.10921043208E+02  0.16976637685E+02  0.18001032686E+02  0.27046489414E+02  0.00000000000E+00 0.  1.
          5    1    4    4  501    0 -0.74594115170E+02 -0.13645761302E+02 -0.12614341271E+02  0.76987549806E+02  0.41800000000E+01 0. -1.
         -5    1    4    4    0  501  0.25794331313E+02  0.92502692426E+01 -0.84115476471E+02  0.88565234663E+02  0.41800000000E+01 0. -1.
</event>
<event>
11    1  0.7882745E-009  0.1604507E+03  0.7561462E-02  0.1086654E+00
         22   -1    0    0    0    0  0.00000000000E+00  0.00000000000E+00  0.23585934522E+03  0.23585934522E+03  0.00000000000E+00 0. -1.
         22   -1    0    0    0    0 -0.00000000000E+00 -0.00000000000E+00 -0.83670562804E+03  0.83670562804E+03  0.00000000000E+00 0.  1.
         24    2    1    2    0    0  0.44318981950E+02 -0.37755966137E+02 -0.56676846096E+03  0.57530035963E+03  0.79714053422E+02 0.  0.
         25    2    1    2    0    0 -0.64656426310E+02 -0.62651687055E+02 -0.22246946544E+03  0.27063954290E+03  0.12508961497E+03 0.  0.
        -24    2    1    2    0    0  0.20337444360E+02  0.10040765319E+03  0.18839164358E+03  0.22662507074E+03  0.73295312631E+02 0.  0.
        -11    1    3    3    0    0 -0.20729793496E+02 -0.13623696899E+02 -0.23809913509E+03  0.23938781838E+03  0.00000000000E+00 0.  1.
         12    1    3    3    0    0  0.65048775446E+02 -0.24132269238E+02 -0.32866932586E+03  0.33591254125E+03  0.00000000000E+00 0. -1.
         13    1    5    5    0    0  0.36897834192E+02  0.10260378289E+03  0.16771479438E+03  0.20004309207E+03  0.00000000000E+00 0. -1.
        -14    1    5    5    0    0 -0.16560389831E+02 -0.21961296986E+01  0.20676849203E+02  0.26581978669E+02  0.00000000000E+00 0.  1.
          5    1    4    4  501    0 -0.15032956125E+02  0.26725414205E+02 -0.12694949361E+03  0.13066707260E+03  0.41800000000E+01 0. -1.
         -5    1    4    4    0  501 -0.49623470186E+02 -0.89377101260E+02 -0.95519971823E+02  0.13997247029E+03  0.41800000000E+01 0. -1.
</event>
<event>
11    1  0.7882745E-009  0.1603466E+03  0.7561462E-02  0.1086752E+00
         22   -1    0    0    0    0  0.00000000000E+00  0.00000000000E+00  0.61371265840E+03  0.61371265840E+03  0.00000000000E+00 0. -1.
         22   -1    0    0    0    0 -0.00000000000E+00 -0.00000000000E+00 -0.14842308346E+03  0.14842308346E+03  0.00000000000E+00 0. -1.
         24    2    1    2    0    0 -0.61229817060E+02 -0.29948144485E+02 -0.75261764896E+02  0.12797168136E+03  0.77887329640E+02 0.  0.
         25    2    1    2    0    0  0.17834179546E+02  0.11912586697E+03  0.16946503896E+03  0.24264225857E+03  0.12509131095E+03 0.  0.
        -24    2    1    2    0    0  0.43395637514E+02 -0.89177722487E+02  0.37108630088E+03  0.39152180194E+03  0.75818409030E+02 0.  0.
        -13    1    3    3    0    0 -0.56527960890E+02 -0.51146752388E+02 -0.38810944375E+02  0.85543497973E+02  0.00000000000E+00 0.  1.
         14    1    3    3    0    0 -0.47018561698E+01  0.21198607903E+02 -0.36450820521E+02  0.42428183382E+02  0.00000000000E+00 0. -1.
         13    1    5    5    0    0  0.44710231243E+02 -0.43372948440E+02  0.30375735849E+03  0.31007861950E+03  0.00000000000E+00 0. -1.
        -14    1    5    5    0    0 -0.13145937294E+01 -0.45804774047E+02  0.67328942395E+02  0.81443182441E+02  0.00000000000E+00 0.  1.
          5    1    4    4  501    0  0.60437373844E+02  0.60823650634E+02  0.14065985913E+03  0.16478732052E+03  0.41800000000E+01 0. -1.
         -5    1    4    4    0  501 -0.42603194298E+02  0.58302216338E+02  0.28805179826E+02  0.77854938052E+02  0.41800000000E+01 0. -1.
</event>
<event>
11    1  0.7882745E-009  0.1405907E+03  0.7561462E-02  0.1106901E+00
         22   -1    0    0    0    0  0.00000000000E+00  0.00000000000E+00  0.98880985647E+03  0.98880985647E+03  0.00000000000E+00 0. -1.
         22   -1    0    0    0    0 -0.00000000000E+00 -0.00000000000E+00 -0.13510217784E+04  0.13510217784E+04  0.00000000000E+00 0. -1.
         24    2    1    2    0    0 -0.63102857755E+02  0.17752710710E+02 -0.12817263685E+04  0.12876655828E+04  0.10470453651E+03 0.  0.
         25    2    1    2    0    0  0.37575329581E+02  0.12300622945E+02  0.30414623780E+01  0.13122490295E+03  0.12509002336E+03 0.  0.
        -24    2    1    2    0    0  0.25527528173E+02 -0.30053333654E+02  0.91647298427E+03  0.92094114907E+03  0.81578254429E+02 0.  0.
        -13    1    3    3    0    0 -0.17673539195E+02  0.11791487780E+02 -0.41768941728E+02  0.46861899928E+02  0.00000000000E+00 0.  1.
         14    1    3    3    0    0 -0.45429318559E+02  0.59612229292E+01 -0.12399574268E+04  0.12408036829E+04  0.00000000000E+00 0. -1.
         13    1    5    5    0    0  0.34687913475E+02 -0.31220837615E+02  0.90504964968E+03  0.90625209541E+03  0.00000000000E+00 0. -1.
        -14    1    5    5    0    0 -0.91603853020E+01  0.11675039608E+01  0.11423334589E+02  0.14689053663E+02  0.00000000000E+00 0.  1.
          5    1    4    4  501    0 -0.10074150608E+02 -0.38268066494E+02 -0.34032416819E+02  0.52360397422E+02  0.41800000000E+01 0. -1.
         -5    1    4    4    0  501  0.47649480189E+02  0.50568689439E+02  0.37073879197E+02  0.78864505530E+02  0.41800000000E+01 0. -1.
</event>
<event>
11    1  0.7882745E-009  0.2080191E+03  0.7561462E-02  0.1048993E+00
         22   -1    0    0    0    0  0.00000000000E+00  0.00000000000E+00  0.93156274709E+03  0.93156274709E+03  0.00000000000E+00 0.  1.
         22   -1    0    0    0    0 -0.00000000000E+00 -0.00000000000E+00 -0.12172263205E+04  0.12172263205E+04  0.00000000000E+00 0. -1.
        -24    2    1    2    0    0 -0.28679210754E+02  0.14049226854E+01 -0.97136503731E+03  0.97508535232E+03  0.80105790445E+02 0.  0.
         25    2    1    2    0    0  0.16592856853E+03 -0.93409084961E+02 -0.17898298299E+03  0.28972306940E+03  0.12508797599E+03 0.  0.
         24    2    1    2    0    0 -0.13724935777E+03  0.92004162275E+02  0.86468444691E+03  0.88398064585E+03  0.80252335939E+02 0.  0.
        -11    1    5    5    0    0 -0.14531625493E+03  0.77673176294E+02  0.73410250381E+03  0.75236721245E+03  0.00000000000E+00 0.  1.
         12    1    5    5    0    0  0.80668971548E+01  0.14330985981E+02  0.13058194309E+03  0.13161343340E+03  0.00000000000E+00 0. -1.
         13    1    3    3    0    0  0.87911441357E+01  0.68841005333E+01 -0.77620074127E+03  0.77628104820E+03  0.00000000000E+00 0. -1.
        -14    1    3    3    0    0 -0.37470354890E+02 -0.54791778479E+01 -0.19516429605E+03  0.19880430412E+03  0.00000000000E+00 0.  1.
          5    1    4    4  501    0  0.15628446316E+03 -0.24945861661E+02 -0.11828731510E+03  0.19762715085E+03  0.41800000000E+01 0.  1.
         -5    1    4    4    0  501  0.96441053609E+01 -0.68463223300E+02 -0.60695667884E+02  0.92095918545E+02  0.41800000000E+01 0.  1.
</event>
<event>
11    1  0.7882745E-009  0.1534944E+03  0.7561462E-02  0.1093361E+00
         22   -1    0    0    0    0  0.00000000000E+00  0.00000000000E+00  0.52694031892E+03  0.52694031892E+03  0.00000000000E+00 0.  1.
         22   -1    0    0    0    0 -0.00000000000E+00 -0.00000000000E+00 -0.33532491581E+03  0.33532491581E+03  0.00000000000E+00 0. -1.
         24    2    1    2    0    0 -0.60406969546E+01 -0.25018757835E+01 -0.29220156536E+03  0.30334036379E+03  0.81184186302E+02 0.  0.
         25    2    1    2    0    0 -0.27573829990E+02 -0.81465170262E+02  0.20410794630E+03  0.25437310627E+03  0.12509489751E+03 0.  0.
        -24    2    1    2    0    0  0.33614526945E+02  0.83967046046E+02  0.27970902217E+03  0.30455176467E+03  0.79587932739E+02 0.  0.
        -11    1    3    3    0    0  0.14790906186E+02 -0.12138881102E+02 -0.12853037201E+02  0.23050464322E+02  0.00000000000E+00 0.  1.
         12    1    3    3    0    0 -0.20831603140E+02  0.96370053180E+01 -0.27934852816E+03  0.28028989947E+03  0.00000000000E+00 0. -1.
         11    1    5    5    0    0 -0.26208274963E+02  0.25313569179E+02  0.94216166262E+02  0.10101651571E+03  0.00000000000E+00 0. -1.
        -12    1    5    5    0    0  0.59822801908E+02  0.58653476867E+02  0.18549285591E+03  0.20353524897E+03  0.00000000000E+00 0.  1.
          5    1    4    4  501    0  0.39141408962E+02 -0.62846343166E+01  0.20060205437E+02  0.44625449759E+02  0.41800000000E+01 0.  1.
         -5    1    4    4    0  501 -0.66715238952E+02 -0.75180535945E+02  0.18404774086E+03  0.20974765651E+03  0.41800000000E+01 0.  1.
</event>
<event>
11    1  0.7882745E-009  0.1570542E+03  0.7561462E-02  0.1089881E+00
         22   -1    0    0    0    0  0.00000000000E+00  0.00000000000E+00  0.21165881087E+04  0.21165881087E+04  0.00000000000E+00 0.  1.
         22   -1    0    0    0    0 -0.00000000000E+00 -0.00000000000E+00 -0.86713230237E+02  0.86713230237E+02  0.00000000000E+00 0.  1.
         24    2    1    2    0    0  0.22051323034E+02 -0.31886886869E+02 -0.40229298863E+02  0.97434061028E+02  0.79824591197E+02 0.  0.
         25    2    1    2    0    0  0.26436740031E+02  0.11102631837E+03  0.44535396499E+03  0.47645930320E+03  0.12509024296E+03 0.  0.
        -24    2    1    2    0    0 -0.48488063066E+02 -0.79139431501E+02  0.16247502123E+04  0.16294079747E+04  0.80888526186E+02 0.  0.
        -11    1    3    3    0    0  0.45749196635E+02 -0.37118798954E+02 -0.43100570245E+02  0.72996255959E+02  0.00000000000E+00 0.  1.
         12    1    3    3    0    0 -0.23697873601E+02  0.52319120854E+01  0.28712713826E+01  0.24437805069E+02  0.00000000000E+00 0. -1.
         11    1    5    5    0    0  0.22316607696E+02 -0.18371039710E+02  0.30662939302E+03  0.30798881594E+03  0.00000000000E+00 0. -1.
        -12    1    5    5    0    0 -0.70804670762E+02 -0.60768391792E+02  0.13181208193E+04  0.13214191588E+04  0.00000000000E+00 0.  1.
          5    1    4    4  501    0  0.51587325204E+02  0.57829584100E+02  0.38236009214E+03  0.39015666774E+03  0.41800000000E+01 0. -1.
         -5    1    4    4    0  501 -0.25150585172E+02  0.53196734270E+02  0.62993872843E+02  0.86302635459E+02  0.41800000000E+01 0. -1.
</event>
<event>
11    1  0.7882745E-009  0.1359573E+03  0.7561462E-02  0.1112159E+00
         22   -1    0    0    0    0  0.00000000000E+00  0.00000000000E+00  0.98812290350E+03  0.98812290350E+03  0.00000000000E+00 0. -1.
         22   -1    0    0    0    0 -0.00000000000E+00 -0.00000000000E+00 -0.45248753560E+03  0.45248753560E+03  0.00000000000E+00 0. -1.
         24    2    1    2    0    0 -0.17219264896E+02 -0.29313135954E+01 -0.42601664730E+03  0.43399623051E+03  0.80978075024E+02 0.  0.
         25    2    1    2    0    0 -0.30314490919E+02  0.30959634741E+02  0.20887724684E+03  0.24729422242E+03  0.12508901172E+03 0.  0.
        -24    2    1    2    0    0  0.47533755815E+02 -0.28028321145E+02  0.75277476836E+03  0.75931998618E+03  0.82776474970E+02 0.  0.
        -11    1    3    3    0    0 -0.93472656323E+00 -0.30937166638E+01  0.31545329086E+01  0.45161791833E+01  0.00000000000E+00 0.  1.
         12    1    3    3    0    0 -0.16284538333E+02  0.16240306839E+00 -0.42917118021E+03  0.42948005132E+03  0.00000000000E+00 0. -1.
         11    1    5    5    0    0  0.65999493378E+02 -0.39230514232E+02  0.53584119080E+03  0.54131390905E+03  0.00000000000E+00 0. -1.
        -12    1    5    5    0    0 -0.18465737563E+02  0.11202193087E+02  0.21693357755E+03  0.21800607713E+03  0.00000000000E+00 0.  1.
          5    1    4    4  501    0 -0.57544504219E+02 -0.27204634133E+02  0.72981200504E+02  0.96928788866E+02  0.41800000000E+01 0. -1.
         -5    1    4    4    0  501  0.27230013300E+02  0.58164268874E+02  0.13589604634E+03  0.15036543355E+03  0.41800000000E+01 0. -1.
</event>
<event>
11    1  0.7882745E-009  0.1752907E+03  0.7561462E-02  0.1073517E+00
         22   -1    0    0    0    0  0.00000000000E+00  0.00000000000E+00  0.13874784398E+03  0.13874784398E+03  0.00000000000E+00 0. -1.
         22   -1    0    0    0    0 -0.00000000000E+00 -0.00000000000E+00 -0.12950913802E+04  0.12950913802E+04  0.00000000000E+00 0.  1.
        -24    2    1    2    0    0  0.89611985896E+02  0.91324293956E+02 -0.10406881922E+04  0.10518522592E+04  0.83611166662E+02 0.  0.
         25    2    1    2    0    0 -0.32256755591E+02 -0.99762647188E+02 -0.19345948777E+03  0.25312037607E+03  0.12510102845E+03 0.  0.
         24    2    1    2    0    0 -0.57355230305E+02  0.84383532321E+01  0.77804143775E+02  0.12886658885E+03  0.84807338629E+02 0.  0.
        -13    1    5    5    0    0 -0.25752337217E+01 -0.12257569649E+02 -0.14745262512E+02  0.19346901793E+02  0.00000000000E+00 0.  1.
         14    1    5    5    0    0 -0.54779996584E+02  0.20695922881E+02  0.92549406288E+02  0.10951968706E+03  0.00000000000E+00 0. -1.
         11    1    3    3    0    0  0.15546957378E+02 -0.11891472825E+02 -0.27508724578E+03  0.27578271846E+03  0.00000000000E+00 0. -1.
        -12    1    3    3    0    0  0.74065028518E+02  0.10321576678E+03 -0.76560094640E+03  0.77606954076E+03  0.00000000000E+00 0.  1.
          5    1    4    4  501    0  0.99711314861E+01  0.26060607023E+02 -0.19606527683E+02  0.34357925277E+02  0.41800000000E+01 0. -1.
         -5    1    4    4    0  501 -0.42227887077E+02 -0.12582325421E+03 -0.17385296009E+03  0.21876245080E+03  0.41800000000E+01 0. -1.
</event>
<event>
11    1  0.7882745E-009  0.1526527E+03  0.7561462E-02  0.1094199E+00
         22   -1    0    0    0    0  0.00000000000E+00  0.00000000000E+00  0.24106476688E+04  0.24106476688E+04  0.00000000000E+00 0.  1.
         22   -1    0    0    0    0 -0.00000000000E+00 -0.00000000000E+00 -0.10454184964E+04  0.10454184964E+04  0.00000000000E+00 0.  1.
        -24    2    1    2    0    0  0.87433501070E+02  0.33511329853E+01 -0.10271898491E+04  0.10340761498E+04  0.80861921257E+02 0.  0.
         25    2    1    2    0    0 -0.89507385507E+02  0.17702606145E+01  0.40839524623E+03  0.43640087039E+03  0.12507732269E+03 0.  0.
         24    2    1    2    0    0  0.20738844373E+01 -0.51213935997E+01  0.19840237753E+04  0.19855891449E+04  0.78634482169E+02 0.  0.
        -11    1    5    5    0    0 -0.21053227624E+01  0.21637489380E+01  0.19622406977E+04  0.19622430201E+04  0.00000000000E+00 0.  1.
         12    1    5    5    0    0  0.41792071997E+01 -0.72851425377E+01  0.21783077619E+02  0.23346124842E+02  0.00000000000E+00 0. -1.
         13    1    3    3    0    0  0.85472927431E+01 -0.55709524356E+01 -0.11848448419E+02  0.15635774820E+02  0.00000000000E+00 0. -1.
        -14    1    3    3    0    0  0.78886208327E+02  0.89220854209E+01 -0.10153414007E+04  0.10184403750E+04  0.00000000000E+00 0.  1.
          5    1    4    4  501    0 -0.11440298927E+03  0.76667914852E+01  0.23992675794E+03  0.26594951630E+03  0.41800000000E+01 0. -1.
         -5    1    4    4    0  501  0.24895603766E+02 -0.58965308707E+01  0.16846848830E+03  0.17045135409E+03  0.41800000000E+01 0. -1.
</event>
<event>
11    1  0.7882745E-009  0.2774627E+03  0.7561462E-02  0.1010208E+00
         22   -1    0    0    0    0  0.00000000000E+00  0.00000000000E+00  0.33662120970E+03  0.33662120970E+03  0.00000000000E+00 0.  1.
         22   -1    0    0    0    0 -0.00000000000E+00 -0.00000000000E+00 -0.15375569876E+04  0.15375569876E+04  0.00000000000E+00 0. -1.
        -24    2    1    2    0    0 -0.16764867718E+03 -0.17643193289E+03 -0.80942717791E+03  0.84893668037E+03  0.79289501469E+02 0.  0.
         25    2    1    2    0    0  0.18097915315E+03  0.17812236181E+03 -0.67420781717E+03  0.73122122056E+03  0.12508902037E+03 0.  0.
         24    2    1    2    0    0 -0.13330475967E+02 -0.16904289167E+01  0.28269921713E+03  0.29402029641E+03  0.79677651802E+02 0.  0.
        -13    1    5    5    0    0 -0.13761197767E+02 -0.37639160657E+02  0.19786413919E+03  0.20188188268E+03  0.00000000000E+00 0.  1.
         14    1    5    5    0    0  0.43072179976E+00  0.35948731741E+02  0.84835077940E+02  0.92138413727E+02  0.00000000000E+00 0. -1.
         13    1    3    3    0    0 -0.11524680644E+03 -0.14226495871E+03 -0.69288510672E+03  0.71666653053E+03  0.00000000000E+00 0. -1.
        -14    1    3    3    0    0 -0.52401870746E+02 -0.34166974179E+02 -0.11654207119E+03  0.13227014984E+03  0.00000000000E+00 0.  1.
          5    1    4    4  501    0  0.42959789281E+02 -0.91495880788E+01 -0.60444872621E+02  0.74835242254E+02  0.41800000000E+01 0.  1.
         -5    1    4    4    0  501  0.13801936387E+03  0.18727194989E+03 -0.61376294455E+03  0.65638597831E+03  0.41800000000E+01 0.  1.
</event>
<event>
11    1  0.7882745E-009  0.1727618E+03  0.7561462E-02  0.1075653E+00
         22   -1    0    0    0    0  0.00000000000E+00  0.00000000000E+00  0.80745884974E+03  0.80745884974E+03  0.00000000000E+00 0.  1.
         22   -1    0    0    0    0 -0.00000000000E+00 -0.00000000000E+00 -0.28461759768E+03  0.28461759768E+03  0.00000000000E+00 0.  1.
         24    2    1    2    0    0  0.30516946199E+01 -0.20866156075E+02 -0.11040992912E+03  0.13791465042E+03  0.79908629330E+02 0.  0.
         25    2    1    2    0    0 -0.18850696595E+02 -0.98123502014E+02 -0.11182965231E+03  0.19528551867E+03  0.12508793810E+03 0.  0.
        -24    2    1    2    0    0  0.15799001975E+02  0.11898965809E+03  0.74508083350E+03  0.75887627832E+03  0.79621668901E+02 0.  0.
        -13    1    3    3    0    0  0.22415960524E+02  0.33326813263E+01 -0.10377349986E+03  0.10621921354E+03  0.00000000000E+00 0.  1.
         14    1    3    3    0    0 -0.19364265904E+02 -0.24198837401E+02 -0.66364292594E+01  0.31695436878E+02  0.00000000000E+00 0. -1.
         11    1    5    5    0    0  0.34153050363E+02  0.13125666343E+02  0.19301182579E+03  0.19644917628E+03  0.00000000000E+00 0. -1.
        -12    1    5    5    0    0 -0.18354048388E+02  0.10586399174E+03  0.55206900771E+03  0.56242710205E+03  0.00000000000E+00 0.  1.
          5    1    4    4  501    0 -0.13428163493E+02  0.28804375785E+02 -0.31358113407E+02  0.44842070822E+02  0.41800000000E+01 0.  1.
         -5    1    4    4    0  501 -0.54225331023E+01 -0.12692787780E+03 -0.80471538907E+02  0.15044344785E+03  0.41800000000E+01 0.  1.
</event>
<event>
11    1  0.7882745E-009  0.1523000E+03  0.7561462E-02  0.1094552E+00
         22   -1    0    0    0    0  0.00000000000E+00  0.00000000000E+00  0.81232323209E+02  0.81232323209E+02  0.00000000000E+00 0. -1.
         22   -1    0    0    0    0 -0.00000000000E+00 -0.00000000000E+00 -0.10774910868E+04  0.10774910868E+04  0.00000000000E+00 0.  1.
        -24    2    1    2    0    0  0.32015129373E+02 -0.74681460981E+02 -0.70956968668E+03  0.71883049460E+03  0.81399327894E+02 0.  0.
         25    2    1    2    0    0 -0.93197289021E+02  0.85383328654E+02 -0.28728583353E+03  0.33787013823E+03  0.12508809961E+03 0.  0.
         24    2    1    2    0    0  0.61182159648E+02 -0.10701867673E+02  0.59675663558E+00  0.10202277717E+03  0.80935185874E+02 0.  0.
        -13    1    5    5    0    0  0.13072315419E+02 -0.73694400166E+01 -0.37612411491E+02  0.40495525367E+02  0.00000000000E+00 0.  1.
         14    1    5    5    0    0  0.48109844229E+02 -0.33324276564E+01  0.38209168126E+02  0.61527251805E+02  0.00000000000E+00 0. -1.
         13    1    3    3    0    0  0.30746069241E+02  0.17948583335E+00 -0.98399584435E+02  0.10309137309E+03  0.00000000000E+00 0. -1.
        -14    1    3    3    0    0  0.12690601320E+01 -0.74860946814E+02 -0.61117010225E+03  0.61573912150E+03  0.00000000000E+00 0.  1.
          5    1    4    4  501    0 -0.11887325558E+03  0.75174922780E+02 -0.18862151276E+03  0.23532460004E+03  0.41800000000E+01 0.  1.
         -5    1    4    4    0  501  0.25675966558E+02  0.10208405873E+02 -0.98664320769E+02  0.10254553819E+03  0.41800000000E+01 0.  1.
</event>
<event>
11    1  0.7882745E-009  0.1544334E+03  0.7561462E-02  0.1092433E+00
         22   -1    0    0    0    0  0.00000000000E+00  0.00000000000E+00  0.16039841118E+03  0.16039841118E+03  0.00000000000E+00 0. -1.
         22   -1    0    0    0    0 -0.00000000000E+00 -0.00000000000E+00 -0.17064789315E+04  0.17064789315E+04  0.00000000000E+00 0. -1.
        -24    2    1    2    0    0 -0.20754437747E+02  0.86257069590E+02 -0.11334004867E+04  0.11420485233E+04  0.10866065400E+03 0.  0.
         25    2    1    2    0    0  0.79955058313E+02 -0.74014754353E+02 -0.53910087246E+03  0.56404635396E+03  0.12509014157E+03 0.  0.
         24    2    1    2    0    0 -0.59200620567E+02 -0.12242315237E+02  0.12642083878E+03  0.16078246543E+03  0.78830101821E+02 0.  0.
        -13    1    5    5    0    0  0.12183926188E+02 -0.18952486913E+02  0.11416278049E+02  0.25258191187E+02  0.00000000000E+00 0.  1.
         14    1    5    5    0    0 -0.71384546755E+02  0.67101716766E+01  0.11500456073E+03  0.13552427424E+03  0.00000000000E+00 0. -1.
         11    1    3    3    0    0 -0.52573940916E+02  0.38060665684E+02 -0.86868513382E+03  0.87110647757E+03  0.00000000000E+00 0. -1.
        -12    1    3    3    0    0  0.31819503169E+02  0.48196403906E+02 -0.26471535284E+03  0.27094204576E+03  0.00000000000E+00 0.  1.
          5    1    4    4  501    0  0.11038245593E+03 -0.69284025504E+02 -0.37483308967E+03  0.39686506558E+03  0.41800000000E+01 0. -1.
         -5    1    4    4    0  501 -0.30427397618E+02 -0.47307288498E+01 -0.16426778279E+03  0.16718128838E+03  0.41800000000E+01 0. -1.
</event>
<event>
11    1  0.7882745E-009  0.2986364E+03  0.7561462E-02  0.1000770E+00
         22   -1    0    0    0    0  0.00000000000E+00  0.00000000000E+00  0.52785135487E+03  0.52785135487E+03  0.00000000000E+00 0. -1.
         22   -1    0    0    0    0 -0.00000000000E+00 -0.00000000000E+00 -0.37972230825E+03  0.37972230825E+03  0.00000000000E+00 0.  1.
         24    2    1    2    0    0  0.45642852111E+02  0.11356610221E+03 -0.47242858093E+02  0.14063553943E+03  0.50655086497E+02 0.  0.
         25    2    1    2    0    0 -0.15844558450E+03  0.15045019901E+03 -0.16305501344E+03  0.29995800408E+03  0.12509037202E+03 0.  0.
        -24    2    1    2    0    0  0.11280273239E+03 -0.26401630122E+03  0.35842691815E+03  0.46698011961E+03  0.84684784426E+02 0.  0.
        -13    1    3    3    0    0  0.64287380226E+01  0.62779369677E+02 -0.42932473134E+02  0.76326765810E+02  0.00000000000E+00 0.  1.
         14    1    3    3    0    0  0.39214114088E+02  0.50786732536E+02 -0.43103849585E+01  0.64308773615E+02  0.00000000000E+00 0. -1.
         13    1    5    5    0    0  0.82886206021E+02 -0.17616967318E+03  0.29893729159E+03  0.35674834436E+03  0.00000000000E+00 0. -1.
        -14    1    5    5    0    0  0.29916526365E+02 -0.87846628040E+02  0.59489626561E+02  0.11023177526E+03  0.00000000000E+00 0.  1.
          5    1    4    4  501    0 -0.25998513554E+02 -0.21921601212E+02 -0.19550900432E+02  0.39448566697E+02  0.41800000000E+01 0.  1.
         -5    1    4    4    0  501 -0.13244707094E+03  0.17237180022E+03 -0.14350411301E+03  0.26050943738E+03  0.41800000000E+01 0.  1.
</event>
<event>
11    1  0.7882745E-009  0.2144424E+03  0.7561462E-02  0.1044756E+00
         22   -1    0    0    0    0  0.00000000000E+00  0.00000000000E+00  0.66341422322E+03  0.66341422322E+03  0.00000000000E+00 0. -1.
         22   -1    0    0    0    0 -0.00000000000E+00 -0.00000000000E+00 -0.96056244139E+03  0.96056244139E+03  0.00000000000E+00 0. -1.
        -24    2    1    2    0    0 -0.40695558654E+02  0.25930041815E+02 -0.77408732013E+03  0.77979256637E+03  0.80850305001E+02 0.  0.
         25    2    1    2    0    0  0.10796992081E+03  0.13544247992E+03 -0.10010945423E+03  0.23594824821E+03  0.12508998298E+03 0.  0.
         24    2    1    2    0    0 -0.67274362153E+02 -0.16137252174E+03  0.57704855619E+03  0.60823585003E+03  0.79993015211E+02 0.  0.
        -11    1    5    5    0    0 -0.60735864519E+02 -0.83589552765E+02  0.22430622980E+03  0.24696020590E+03  0.00000000000E+00 0.  1.
         12    1    5    5    0    0 -0.65384976336E+01 -0.77782968971E+02  0.35274232640E+03  0.36127564413E+03  0.00000000000E+00 0. -1.
         11    1    3    3    0    0 -0.61434434758E+02  0.35546979654E+02 -0.55664478845E+03  0.56115167116E+03  0.00000000000E+00 0. -1.
        -12    1    3    3    0    0  0.20738876104E+02 -0.96169378394E+01 -0.21744253168E+03  0.21864089521E+03  0.00000000000E+00 0.  1.
          5    1    4    4  501    0  0.98999647088E+02  0.83919869017E+02 -0.81870076396E+01  0.13010754795E+03  0.41800000000E+01 0. -1.
         -5    1    4    4    0  501  0.89702737182E+01  0.51522610903E+02 -0.91922446590E+02  0.10584070026E+03  0.41800000000E+01 0. -1.
</event>
<event>
11    1  0.7882745E-009  0.1534841E+03  0.7561462E-02  0.1093371E+00
         22   -1    0    0    0    0  0.00000000000E+00  0.00000000000E+00  0.18062267945E+04  0.18062267945E+04  0.00000000000E+00 0.  1.
         22   -1    0    0    0    0 -0.00000000000E+00 -0.00000000000E+00 -0.46271078533E+02  0.46271078533E+02  0.00000000000E+00 0. -1.
         24    2    1    2    0    0  0.76858715587E+02 -0.61053096973E+02  0.78194649556E+02  0.14980188457E+03  0.81801336110E+02 0.  0.
         25    2    1    2    0    0 -0.46826685625E+02  0.12765259737E+02  0.53168714777E+03  0.54836456335E+03  0.12512705900E+03 0.  0.
        -24    2    1    2    0    0 -0.30032029962E+02  0.48287837236E+02  0.11500739187E+04  0.11543314251E+04  0.81101064201E+02 0.  0.
        -13    1    3    3    0    0  0.48507739499E+02 -0.72490207883E+02  0.81089913783E+02  0.11909410207E+03  0.00000000000E+00 0.  1.
         14    1    3    3    0    0  0.28350976088E+02  0.11437110910E+02 -0.28952642272E+01  0.30707782500E+02  0.00000000000E+00 0. -1.
         11    1    5    5    0    0 -0.55505837585E+02  0.16371170923E+02  0.62619012989E+03  0.62885848330E+03  0.00000000000E+00 0. -1.
        -12    1    5    5    0    0  0.25473807623E+02  0.31916666313E+02  0.52388378879E+03  0.52547294185E+03  0.00000000000E+00 0.  1.
          5    1    4    4  501    0 -0.30544506832E+02  0.52617291853E+00  0.21118227985E+02  0.37372392334E+02  0.41800000000E+01 0. -1.
         -5    1    4    4    0  501 -0.16282178793E+02  0.12239086818E+02  0.51056891978E+03  0.51099217102E+03  0.41800000000E+01 0. -1.
</event>
<event>
11    1  0.8542904E-009  0.2039137E+03  0.7561462E-02  0.1051790E+00
         22   -1    0    0    0    0  0.00000000000E+00  0.00000000000E+00  0.12820779834E+04  0.12820779834E+04  0.00000000000E+00 0. -1.
         22   -1    0    0    0    0 -0.00000000000E+00 -0.00000000000E+00 -0.62307043589E+03  0.62307043589E+03  0.00000000000E+00 0.  1.
        -24    2    1    2    0    0 -0.74951498292E+02 -0.25400277501E+02 -0.37955489063E+03  0.39569694044E+03  0.79064862458E+02 0.  0.
         25    2    1    2    0    0  0.20288030862E+02  0.17690313778E+03 -0.17702488189E+03  0.28052238003E+03  0.12509465431E+03 0.  0.
         24    2    1    2    0    0  0.54663467430E+02 -0.15150286028E+03  0.12155873201E+04  0.12289290989E+04  0.81688346521E+02 0.  0.
        -13    1    5    5    0    0  0.16859186609E+02 -0.10349737392E+03  0.50809002738E+03  0.51879804790E+03  0.00000000000E+00 0.  1.
         14    1    5    5    0    0  0.37804280821E+02 -0.48005486359E+02  0.70749729270E+03  0.71013105097E+03  0.00000000000E+00 0. -1.
         11    1    3    3    0    0 -0.70257345478E+02  0.27519186184E+01 -0.16647526779E+03  0.18071436699E+03  0.00000000000E+00 0. -1.
        -12    1    3    3    0    0 -0.46941528138E+01 -0.28152196120E+02 -0.21307962284E+03  0.21498257345E+03  0.00000000000E+00 0.  1.
          5    1    4    4  501    0 -0.23105387821E+02 -0.89061962914E+01 -0.10454802192E+02  0.27202105940E+02  0.41800000000E+01 0. -1.
         -5    1    4    4    0  501  0.43393418683E+02  0.18580933408E+03 -0.16657007970E+03  0.25332027409E+03  0.41800000000E+01 0. -1.
</event>
<event>
11    1  0.7882745E-009  0.1312574E+03  0.7561462E-02  0.1117734E+00
         22   -1    0    0    0    0  0.00000000000E+00  0.00000000000E+00  0.29014869039E+03  0.29014869039E+03  0.00000000000E+00 0.  1.
         22   -1    0    0    0    0 -0.00000000000E+00 -0.00000000000E+00 -0.71094090436E+03  0.71094090436E+03  0.00000000000E+00 0.  1.
        -24    2    1    2    0    0  0.24185350726E+02  0.33518285891E+02 -0.61259698480E+03  0.61836913878E+03  0.73463727968E+02 0.  0.
         25    2    1    2    0    0  0.43461375477E+01 -0.21798902341E+02 -0.44857512069E+02  0.13473529960E+03  0.12508926218E+03 0.  0.
         24    2    1    2    0    0 -0.28531488274E+02 -0.11719383550E+02  0.23666228290E+03  0.24798515638E+03  0.67351405808E+02 0.  0.
        -11    1    5    5    0    0 -0.29138152874E+02  0.21906165809E+02  0.16272794314E+03  0.16676119312E+03  0.00000000000E+00 0.  1.
         12    1    5    5    0    0  0.60666460058E+00 -0.33625549359E+02  0.73934339757E+02  0.81223963256E+02  0.00000000000E+00 0. -1.
         11    1    3    3    0    0  0.19465470405E+02  0.19544256123E+02 -0.65473768335E+02  0.71047145091E+02  0.00000000000E+00 0. -1.
        -12    1    3    3    0    0  0.47198803208E+01  0.13974029768E+02 -0.54712321646E+03  0.54732199368E+03  0.00000000000E+00 0.  1.
          5    1    4    4  501    0 -0.13895466630E+02  0.43754186345E+02  0.10074419465E+02  0.47185581942E+02  0.41800000000E+01 0.  1.
         -5    1    4    4    0  501  0.18241604178E+02 -0.65553088686E+02 -0.54931931535E+02  0.87549717655E+02  0.41800000000E+01 0.  1.
</event>
<event>
11    1  0.7882745E-009  0.2298884E+03  0.7561462E-02  0.1035194E+00
         22   -1    0    0    0    0  0.00000000000E+00  0.00000000000E+00  0.22465403631E+03  0.22465403631E+03  0.00000000000E+00 0. -1.
         22   -1    0    0    0    0 -0.00000000000E+00 -0.00000000000E+00 -0.16246419759E+04  0.16246419759E+04  0.00000000000E+00 0. -1.
         24    2    1    2    0    0 -0.13907574530E+03  0.13341077006E+03 -0.11008053018E+04  0.11203859341E+04  0.79698384398E+02 0.  0.
         25    2    1    2    0    0  0.88795489527E+02 -0.18192830930E+03 -0.47054652751E+03  0.52730478752E+03  0.12511496993E+03 0.  0.
        -24    2    1    2    0    0  0.50280255777E+02  0.48517539243E+02  0.17136388965E+03  0.20160529061E+03  0.79981590336E+02 0.  0.
        -13    1    3    3    0    0 -0.27500057523E+02  0.27220937204E+01 -0.30445469538E+03  0.30570627161E+03  0.00000000000E+00 0.  1.
         14    1    3    3    0    0 -0.11157568778E+03  0.13068867634E+03 -0.79635060638E+03  0.81467966251E+03  0.00000000000E+00 0. -1.
         13    1    5    5    0    0  0.68458315821E+02  0.48769164631E+02  0.11542385842E+03  0.14278529167E+03  0.00000000000E+00 0. -1.
        -14    1    5    5    0    0 -0.18178060044E+02 -0.25162538787E+00  0.55940031225E+02  0.58819998944E+02  0.00000000000E+00 0.  1.
          5    1    4    4  501    0  0.10731854305E+03 -0.15762161326E+03 -0.45369515393E+03  0.49215709662E+03  0.41800000000E+01 0.  1.
         -5    1    4    4    0  501 -0.18523053525E+02 -0.24306696036E+02 -0.16851373581E+02  0.35147690900E+02  0.41800000000E+01 0.  1.
</event>
<event>
11    1  0.7882745E-009  0.1332405E+03  0.7561462E-02  0.1115350E+00
         22   -1    0    0    0    0  0.00000000000E+00  0.00000000000E+00  0.87033683423E+03  0.87033683423E+03  0.00000000000E+00 0. -1.
         22   -1    0    0    0    0 -0.00000000000E+00 -0.00000000000E+00 -0.13167018141E+03  0.13167018141E+03  0.00000000000E+00 0.  1.
        -24    2    1    2    0    0  0.40499350508E+02 -0.69569730092E+01 -0.75079269474E+02  0.11729665822E+03  0.80206062491E+02 0.  0.
         25    2    1    2    0    0 -0.34676395832E+02  0.52189200420E+02  0.11819085163E+03  0.18314738857E+03  0.12509086082E+03 0.  0.
         24    2    1    2    0    0 -0.58229546768E+01 -0.45232227411E+02  0.69555507067E+03  0.70156296885E+03  0.79459937879E+02 0.  0.
        -13    1    5    5    0    0 -0.25148003687E+02  0.47330509863E+01  0.87848242594E+02  0.91499385725E+02  0.00000000000E+00 0.  1.
         14    1    5    5    0    0  0.19325049010E+02 -0.49965278397E+02  0.60770682808E+03  0.61006358313E+03  0.00000000000E+00 0. -1.
         11    1    3    3    0    0  0.59276614724E+01 -0.73710124786E+01  0.16715757444E+02  0.19206393270E+02  0.00000000000E+00 0. -1.
        -12    1    3    3    0    0  0.34571689036E+02  0.41403946935E+00 -0.91795026919E+02  0.98090264953E+02  0.00000000000E+00 0.  1.
          5    1    4    4  501    0 -0.77688670051E+02  0.46713796837E+02  0.54086693190E+02  0.10564350926E+03  0.41800000000E+01 0.  1.
         -5    1    4    4    0  501  0.43012274219E+02  0.54754035833E+01  0.64104158438E+02  0.77503879302E+02  0.41800000000E+01 0.  1.
</event>
<event>
11    1  0.7882745E-009  0.1399624E+03  0.7561462E-02  0.1107600E+00
         22   -1    0    0    0    0  0.00000000000E+00  0.00000000000E+00  0.45187835762E+03  0.45187835762E+03  0.00000000000E+00 0. -1.
         22   -1    0    0    0    0 -0.00000000000E+00 -0.00000000000E+00 -0.57921485041E+03  0.57921485041E+03  0.00000000000E+00 0. -1.
        -24    2    1    2    0    0  0.59532771268E+02  0.13018158964E+02 -0.48498180664E+03  0.49453653017E+03  0.75135900757E+02 0.  0.
         25    2    1    2    0    0 -0.82690229772E+02 -0.47796018096E+02 -0.97813789121E+01  0.15768633584E+03  0.12508865533E+03 0.  0.
         24    2    1    2    0    0  0.23157458504E+02  0.34777859132E+02  0.36742669276E+03  0.37887034202E+03  0.82429328127E+02 0.  0.
        -11    1    5    5    0    0  0.47104475556E+02 -0.33729357598E+01  0.17743050649E+03  0.18360771483E+03  0.00000000000E+00 0.  1.
         12    1    5    5    0    0 -0.23947017052E+02  0.38150794892E+02  0.18999618628E+03  0.19526262719E+03  0.00000000000E+00 0. -1.
         13    1    3    3    0    0  0.35372160238E+02  0.89516771945E+01 -0.45189708415E+03  0.45336772813E+03  0.00000000000E+00 0. -1.
        -14    1    3    3    0    0  0.24160611029E+02  0.40664817692E+01 -0.33084722489E+02  0.41168802041E+02  0.00000000000E+00 0.  1.
          5    1    4    4  501    0 -0.37257539458E+02  0.42151891241E+02 -0.64962149543E+00  0.56416314925E+02  0.41800000000E+01 0. -1.
         -5    1    4    4    0  501 -0.45432690314E+02 -0.89947909337E+02 -0.91317574167E+01  0.10127002092E+03  0.41800000000E+01 0. -1.
</event>
<event>
11    1  0.7882745E-009  0.1853502E+03  0.7561462E-02  0.1065396E+00
         22   -1    0    0    0    0  0.00000000000E+00  0.00000000000E+00  0.39350200606E+03  0.39350200606E+03  0.00000000000E+00 0.  1.
         22   -1    0    0    0    0 -0.00000000000E+00 -0.00000000000E+00 -0.64581394374E+03  0.64581394374E+03  0.00000000000E+00 0.  1.
        -24    2    1    2    0    0 -0.87920066569E+02 -0.11142109498E+03 -0.53973728693E+03  0.56422723259E+03  0.83014652819E+02 0.  0.
         25    2    1    2    0    0  0.12849890268E+03  0.12902758842E+02  0.26414406780E+02  0.18171547859E+03  0.12507735645E+03 0.  0.
         24    2    1    2    0    0 -0.40578836111E+02  0.98518336143E+02  0.26101094247E+03  0.29337323862E+03  0.81170441377E+02 0.  0.
        -11    1    5    5    0    0 -0.17298868779E+02 -0.80030303206E+01  0.78427541574E+02  0.80710461730E+02  0.00000000000E+00 0.  1.
         12    1    5    5    0    0 -0.23279967332E+02  0.10652136646E+03  0.18258340090E+03  0.21266277689E+03  0.00000000000E+00 0. -1.
         13    1    3    3    0    0 -0.46774259769E+00 -0.62964453967E+02 -0.17286415935E+03  0.18397488642E+03  0.00000000000E+00 0. -1.
        -14    1    3    3    0    0 -0.87452323971E+02 -0.48456641017E+02 -0.36687312758E+03  0.38025234617E+03  0.00000000000E+00 0.  1.
          5    1    4    4  501    0  0.51494482688E+02 -0.39533151791E+02  0.53912196518E+02  0.84489935325E+02  0.41800000000E+01 0.  1.
         -5    1    4    4    0  501  0.77004419992E+02  0.52435910633E+02 -0.27497789737E+02  0.97225543262E+02  0.41800000000E+01 0.  1.
</event>
<event>
11    1  0.7882745E-009  0.1948441E+03  0.7561462E-02  0.1058231E+00
         22   -1    0    0    0    0  0.00000000000E+00  0.00000000000E+00  0.99557823159E+03  0.99557823159E+03  0.00000000000E+00 0.  1.
         22   -1    0    0    0    0 -0.00000000000E+00 -0.00000000000E+00 -0.15964402681E+03  0.15964402681E+03  0.00000000000E+00 0. -1.
         24    2    1    2    0    0  0.87060043727E+02  0.12768986545E+03 -0.77270531234E+02  0.19107793430E+03  0.81583632100E+02 0.  0.
         25    2    1    2    0    0 -0.66289970977E+02 -0.98810536364E+02  0.31300995386E+03  0.35746543945E+03  0.12509367225E+03 0.  0.
        -24    2    1    2    0    0 -0.20770072750E+02 -0.28879329088E+02  0.60019478215E+03  0.60667888465E+03  0.80994326898E+02 0.  0.
        -11    1    3    3    0    0  0.88923501274E+01  0.45024130762E+01  0.15323846085E+02  0.18280204406E+02  0.00000000000E+00 0.  1.
         12    1    3    3    0    0  0.78167693599E+02  0.12318745238E+03 -0.92594377319E+02  0.17279772989E+03  0.00000000000E+00 0. -1.
         11    1    5    5    0    0  0.21530398271E+02 -0.29470820491E+02  0.14501447787E+03  0.14953690549E+03  0.00000000000E+00 0. -1.
        -12    1    5    5    0    0 -0.42300471021E+02  0.59149140321E+00  0.45518030428E+03  0.45714197916E+03  0.00000000000E+00 0.  1.
          5    1    4    4  501    0 -0.59817066812E+02 -0.28251273375E+02  0.44755786007E+02  0.79979801890E+02  0.41800000000E+01 0. -1.
         -5    1    4    4    0  501 -0.64729041651E+01 -0.70559262990E+02  0.26825416786E+03  0.27748563757E+03  0.41800000000E+01 0. -1.
</event>
<event>
11    1  0.7882745E-009  0.2932770E+03  0.7561462E-02  0.1003077E+00
         22   -1    0    0    0    0  0.00000000000E+00  0.00000000000E+00  0.66981623655E+03  0.66981623655E+03  0.00000000000E+00 0.  1.
         22   -1    0    0    0    0 -0.00000000000E+00 -0.00000000000E+00 -0.80745084441E+02  0.80745084441E+02  0.00000000000E+00 0.  1.
        -24    2    1    2    0    0  0.11928779752E+03  0.81350169313E+01  0.32652425368E+03  0.35693428252E+03  0.80549591329E+02 0.  0.
         25    2    1    2    0    0 -0.28235773482E+01  0.37599558648E+01  0.41874198961E+02  0.13199658033E+03  0.12509012280E+03 0.  0.
         24    2    1    2    0    0 -0.11646422017E+03 -0.11894972796E+02  0.22067269947E+03  0.26163045814E+03  0.77773076185E+02 0.  0.
        -11    1    5    5    0    0 -0.50367174945E+02 -0.42609690816E+02  0.84767757540E+02  0.10741513293E+03  0.00000000000E+00 0.  1.
         12    1    5    5    0    0 -0.66097045223E+02  0.30714718020E+02  0.13590494193E+03  0.15421532522E+03  0.00000000000E+00 0. -1.
         13    1    3    3    0    0  0.30221439235E+02  0.37497075980E+02  0.82764170280E+02  0.95756326050E+02  0.00000000000E+00 0. -1.
        -14    1    3    3    0    0  0.89066358281E+02 -0.29362059048E+02  0.24376008340E+03  0.26117795647E+03  0.00000000000E+00 0.  1.
          5    1    4    4  501    0 -0.46889787997E+02 -0.87472476112E+01  0.64825422930E+02  0.80591404115E+02  0.41800000000E+01 0.  1.
         -5    1    4    4    0  501  0.44066210649E+02  0.12507203476E+02 -0.22951223969E+02  0.51405176212E+02  0.41800000000E+01 0.  1.
</event>
<event>
11    1  0.7882745E-009  0.1433416E+03  0.7561462E-02  0.1103883E+00
         22   -1    0    0    0    0  0.00000000000E+00  0.00000000000E+00  0.12451017410E+04  0.12451017410E+04  0.00000000000E+00 0. -1.
         22   -1    0    0    0    0 -0.00000000000E+00 -0.00000000000E+00 -0.21379888795E+03  0.21379888795E+03  0.00000000000E+00 0. -1.
         24    2    1    2    0    0  0.24844979510E+02  0.95470677277E+00 -0.18829086929E+03  0.20911019447E+03  0.87495357038E+02 0.  0.
         25    2    1    2    0    0 -0.67249463631E+01  0.68780904752E+02  0.52357206044E+03  0.54272867414E+03  0.12510265186E+03 0.  0.
        -24    2    1    2    0    0 -0.18120033147E+02 -0.69735611525E+02  0.69602166186E+03  0.70706176029E+03  0.10148294422E+03 0.  0.
        -13    1    3    3    0    0 -0.56951808116E+01 -0.15265607363E+02  0.13435323017E+01  0.16348667581E+02  0.00000000000E+00 0.  1.
         14    1    3    3    0    0  0.30540160322E+02  0.16220314136E+02 -0.18963440159E+03  0.19276152689E+03  0.00000000000E+00 0. -1.
         13    1    5    5    0    0 -0.43601541862E+01 -0.65737447446E+02  0.68695127646E+03  0.69010323806E+03  0.00000000000E+00 0. -1.
        -14    1    5    5    0    0 -0.13759878961E+02 -0.39981640786E+01  0.90703853944E+01  0.16958522230E+02  0.00000000000E+00 0.  1.
          5    1    4    4  501    0  0.58040709512E+02  0.35668094857E+02  0.29648132742E+03  0.30423607094E+03  0.41800000000E+01 0.  1.
         -5    1    4    4    0  501 -0.64765655875E+02  0.33112809895E+02  0.22709073302E+03  0.23849260320E+03  0.41800000000E+01 0.  1.
</event>
<event>
11    1  0.7882745E-009  0.1591845E+03  0.7561462E-02  0.1087847E+00
         22   -1    0    0    0    0  0.00000000000E+00  0.00000000000E+00  0.16712872605E+04  0.16712872605E+04  0.00000000000E+00 0.  1.
         22   -1    0    0    0    0 -0.00000000000E+00 -0.00000000000E+00 -0.40211350452E+03  0.40211350452E+03  0.00000000000E+00 0. -1.
         24    2    1    2    0    0  0.13556004995E+02 -0.12103691626E+02 -0.35343843394E+03  0.36593467744E+03  0.93054806137E+02 0.  0.
         25    2    1    2    0    0 -0.37338662997E+02 -0.83993209314E+02  0.11210503041E+03  0.19147661253E+03  0.12508685119E+03 0.  0.
        -24    2    1    2    0    0  0.23782658002E+02  0.96096900940E+02  0.15105071596E+04  0.15159894751E+04  0.82413471687E+02 0.  0.
        -11    1    3    3    0    0 -0.34767448245E+02 -0.26339635198E+02 -0.14031296123E+03  0.14693630909E+03  0.00000000000E+00 0.  1.
         12    1    3    3    0    0  0.48323453240E+02  0.14235943572E+02 -0.21312547270E+03  0.21899836834E+03  0.00000000000E+00 0. -1.
         13    1    5    5    0    0  0.35327684885E+02  0.80115664633E+02  0.72984733691E+03  0.73508074403E+03  0.00000000000E+00 0. -1.
        -14    1    5    5    0    0 -0.11545026883E+02  0.15981236307E+02  0.78065982265E+03  0.78090873107E+03  0.00000000000E+00 0.  1.
          5    1    4    4  501    0 -0.83640809780E+02 -0.59022281571E+02  0.74394609725E+02  0.12661534322E+03  0.41800000000E+01 0.  1.
         -5    1    4    4    0  501  0.46302146783E+02 -0.24970927743E+02  0.37710420680E+02  0.64861269313E+02  0.41800000000E+01 0.  1.
</event>
<event>
11    1  0.1166549E-008  0.1919696E+03  0.7561462E-02  0.1060352E+00
         22   -1    0    0    0    0  0.00000000000E+00  0.00000000000E+00  0.14785431483E+04  0.14785431483E+04  0.00000000000E+00 0. -1.
         22   -1    0    0    0    0 -0.00000000000E+00 -0.00000000000E+00 -0.71974861345E+03  0.71974861345E+03  0.00000000000E+00 0.  1.
         24    2    1    2    0    0  0.28793568382E+02  0.13121478959E+03 -0.44636039353E+03  0.47766406250E+03  0.10430227758E+03 0.  0.
         25    2    1    2    0    0 -0.13548551647E+03 -0.15358501937E+03 -0.19751050446E+03  0.31081051233E+03  0.12509233332E+03 0.  0.
        -24    2    1    2    0    0  0.10669194809E+03  0.22370229774E+02  0.14026654328E+04  0.14098171869E+04  0.90722572197E+02 0.  0.
        -11    1    3    3    0    0  0.41367454605E+02  0.11762685261E+03 -0.44114839123E+03  0.45843128803E+03  0.00000000000E+00 0.  1.
         12    1    3    3    0    0 -0.12573886223E+02  0.13587936977E+02 -0.52120022956E+01  0.19232774474E+02  0.00000000000E+00 0. -1.
         11    1    5    5    0    0  0.11507397690E+03  0.10252278232E+02  0.13552455458E+04  0.13601608797E+04  0.00000000000E+00 0. -1.
        -12    1    5    5    0    0 -0.83820288139E+01  0.12117951542E+02  0.47419887071E+02  0.49656307217E+02  0.00000000000E+00 0.  1.
          5    1    4    4  501    0 -0.11410568734E+03 -0.13376573746E+03 -0.21404851607E+03  0.27703360813E+03  0.41800000000E+01 0.  1.
         -5    1    4    4    0  501 -0.21379829130E+02 -0.19819281904E+02  0.16538011616E+02  0.33776904195E+02  0.41800000000E+01 0.  1.
</event>
<event>
11    1  0.7882745E-009  0.2157628E+03  0.7561462E-02  0.1043905E+00
         22   -1    0    0    0    0  0.00000000000E+00  0.00000000000E+00  0.24943989266E+04  0.24943989266E+04  0.00000000000E+00 0.  1.
         22   -1    0    0    0    0 -0.00000000000E+00 -0.00000000000E+00 -0.44788721763E+03  0.44788721763E+03  0.00000000000E+00 0. -1.
        -24    2    1    2    0    0 -0.12683722853E+03  0.11028411776E+03 -0.33675970271E+03  0.38506470091E+03  0.81347755668E+02 0.  0.
         25    2    1    2    0    0  0.13971217624E+03 -0.23508154120E+03  0.18328675970E+03  0.35217099544E+03  0.12509016965E+03 0.  0.
         24    2    1    2    0    0 -0.12874947705E+02  0.12479742344E+03  0.21999846520E+04  0.22050504479E+04  0.81085433752E+02 0.  0.
        -11    1    5    5    0    0 -0.40484680997E+02  0.11134004986E+03  0.16997501332E+04  0.17038738601E+04  0.00000000000E+00 0.  1.
         12    1    5    5    0    0  0.27609733292E+02  0.13457373580E+02  0.50023451884E+03  0.50117658775E+03  0.00000000000E+00 0. -1.
         11    1    3    3    0    0 -0.11289628464E+03  0.11330425932E+03 -0.24759022594E+03  0.29476150740E+03  0.00000000000E+00 0. -1.
        -12    1    3    3    0    0 -0.13940943897E+02 -0.30201415623E+01 -0.89169476768E+02  0.90303193514E+02  0.00000000000E+00 0.  1.
          5    1    4    4  501    0  0.95557743944E+02 -0.19621462724E+03  0.19423393330E+03  0.29219129969E+03  0.41800000000E+01 0.  1.
         -5    1    4    4    0  501  0.44154432292E+02 -0.38866913965E+02 -0.10947173600E+02  0.59979695748E+02  0.41800000000E+01 0.  1.
</event>
<event>
11    1  0.7882745E-009  0.1504927E+03  0.7561462E-02  0.1096376E+00
         22   -1    0    0    0    0  0.00000000000E+00  0.00000000000E+00  0.24984273193E+03  0.24984273193E+03  0.00000000000E+00 0.  1.
         22   -1    0    0    0    0 -0.00000000000E+00 -0.00000000000E+00 -0.13488435983E+04  0.13488435983E+04  0.00000000000E+00 0.  1.
         24    2    1    2    0    0 -0.39108041050E+02  0.72456977733E+02 -0.12433824984E+04  0.12482769685E+04  0.73592799379E+02 0.  0.
         25    2    1    2    0    0  0.88167914937E+02 -0.11171104856E+03  0.19612334291E+02  0.19049224034E+03  0.12509880247E+03 0.  0.
        -24    2    1    2    0    0 -0.49059873887E+02  0.39254070825E+02  0.12476929775E+03  0.15991712143E+03  0.77835433859E+02 0.  0.
        -11    1    3    3    0    0 -0.33744223022E+02  0.87694352843E+02 -0.10919550375E+04  0.10959903175E+04  0.00000000000E+00 0.  1.
         12    1    3    3    0    0 -0.53638180280E+01 -0.15237375111E+02 -0.15142746090E+03  0.15228665095E+03  0.00000000000E+00 0. -1.
         11    1    5    5    0    0  0.45267448132E+01 -0.18422004893E+00 -0.92448533668E+01  0.10295274130E+02  0.00000000000E+00 0. -1.
        -12    1    5    5    0    0 -0.53586618700E+02  0.39438290874E+02  0.13401415112E+03  0.14962184730E+03  0.00000000000E+00 0.  1.
          5    1    4    4  501    0  0.79021484222E+02 -0.12170042210E+03 -0.21734708623E+02  0.14678302922E+03  0.41800000000E+01 0.  1.
         -5    1    4    4    0  501  0.91464307153E+01  0.99893735464E+01  0.41347042914E+02  0.43709211116E+02  0.41800000000E+01 0.  1.
</event>
<event>
11    1  0.7882745E-009  0.1540746E+03  0.7561462E-02  0.1092787E+00
         22   -1    0    0    0    0  0.00000000000E+00  0.00000000000E+00  0.11806133733E+03  0.11806133733E+03  0.00000000000E+00 0.  1.
         22   -1    0    0    0    0 -0.00000000000E+00 -0.00000000000E+00 -0.76544404450E+03  0.76544404450E+03  0.00000000000E+00 0. -1.
        -24    2    1    2    0    0 -0.43596258033E+02  0.39317800629E+02 -0.50753817312E+03  0.51662790089E+03  0.76569364912E+02 0.  0.
         25    2    1    2    0    0 -0.17275174210E+02 -0.10493728506E+03 -0.17642466570E+03  0.24100339352E+03  0.12508680018E+03 0.  0.
         24    2    1    2    0    0  0.60871432244E+02  0.65619484432E+02  0.36580131641E+02  0.12587408742E+03  0.80591140045E+02 0.  0.
        -13    1    5    5    0    0  0.47541886373E+02  0.83046711216E+02  0.18545217142E+02  0.97472623246E+02  0.00000000000E+00 0.  1.
         14    1    5    5    0    0  0.13329545871E+02 -0.17427226784E+02  0.18034914498E+02  0.28401464179E+02  0.00000000000E+00 0. -1.
         13    1    3    3    0    0 -0.45815589527E+02  0.58988958044E+02 -0.35215286693E+03  0.35998667628E+03  0.00000000000E+00 0. -1.
        -14    1    3    3    0    0  0.22193314935E+01 -0.19671157415E+02 -0.15538530619E+03  0.15664122460E+03  0.00000000000E+00 0.  1.
          5    1    4    4  501    0 -0.30472861808E+01 -0.46130477847E+02 -0.17423888319E+03  0.18031629919E+03  0.41800000000E+01 0.  1.
         -5    1    4    4    0  501 -0.14227888030E+02 -0.58806807213E+02 -0.21857825087E+01  0.60687094325E+02  0.41800000000E+01 0.  1.
</event>
<event>
11    1  0.7882745E-009  0.2005341E+03  0.7561462E-02  0.1054147E+00
         22   -1    0    0    0    0  0.00000000000E+00  0.00000000000E+00  0.19273756934E+03  0.19273756934E+03  0.00000000000E+00 0.  1.
         22   -1    0    0    0    0 -0.00000000000E+00 -0.00000000000E+00 -0.17444479392E+04  0.17444479392E+04  0.00000000000E+00 0.  1.
         24    2    1    2    0    0  0.97343504264E+01  0.11014299066E+02 -0.13025262433E+04  0.13050382718E+04  0.79587712685E+02 0.  0.
         25    2    1    2    0    0 -0.13807589862E+03 -0.98318217178E+02 -0.36560014366E+03  0.42195062210E+03  0.12508971517E+03 0.  0.
        -24    2    1    2    0    0  0.12834154820E+03  0.87303918112E+02  0.11641601709E+03  0.21019661464E+03  0.80848009615E+02 0.  0.
        -11    1    3    3    0    0 -0.29042118856E+01  0.43825578699E+02 -0.85807882481E+03  0.85920217957E+03  0.00000000000E+00 0.  1.
         12    1    3    3    0    0  0.12638562312E+02 -0.32811279634E+02 -0.44444741852E+03  0.44583609226E+03  0.00000000000E+00 0. -1.
         11    1    5    5    0    0  0.49410800761E+02 -0.82882040934E+01  0.43664348929E+02  0.66458234451E+02  0.00000000000E+00 0. -1.
        -12    1    5    5    0    0  0.78930747435E+02  0.95592122206E+02  0.72751668165E+02  0.14373838019E+03  0.00000000000E+00 0.  1.
          5    1    4    4  501    0 -0.91106461601E+02 -0.97342389718E+02 -0.14776352784E+03  0.19906647317E+03  0.41800000000E+01 0.  1.
         -5    1    4    4    0  501 -0.46969437021E+02 -0.97582745979E+00 -0.21783661582E+03  0.22288414893E+03  0.41800000000E+01 0.  1.
</event>
<event>
11    1  0.7882745E-009  0.1281329E+03  0.7561462E-02  0.1121585E+00
         22   -1    0    0    0    0  0.00000000000E+00  0.00000000000E+00  0.38886996340E+02  0.38886996340E+02  0.00000000000E+00 0. -1.
         22   -1    0    0    0    0 -0.00000000000E+00 -0.00000000000E+00 -0.20501731334E+04  0.20501731334E+04  0.00000000000E+00 0.  1.
         24    2    1    2    0    0  0.27535527185E+02  0.33268651606E+01 -0.14963348863E+04  0.14985693425E+04  0.76959138280E+02 0.  0.
         25    2    1    2    0    0  0.28637366675E+01 -0.75916848925E+01 -0.48365263996E+03  0.49963378755E+03  0.12509280898E+03 0.  0.
        -24    2    1    2    0    0 -0.30399263852E+02  0.42648197319E+01 -0.31298610847E+02  0.90856999756E+02  0.79580697620E+02 0.  0.
        -13    1    3    3    0    0 -0.76748407989E+00 -0.15666276195E+02 -0.12251977495E+04  0.12252981460E+04  0.00000000000E+00 0.  1.
         14    1    3    3    0    0  0.28303011265E+02  0.18993141356E+02 -0.27113713681E+03  0.27327119648E+03  0.00000000000E+00 0. -1.
         11    1    5    5    0    0 -0.44428322034E+02 -0.14042767414E+02  0.60240511934E+01  0.46982595801E+02  0.00000000000E+00 0. -1.
        -12    1    5    5    0    0  0.14029058182E+02  0.18307587146E+02 -0.37322662041E+02  0.43874403955E+02  0.00000000000E+00 0.  1.
          5    1    4    4  501    0  0.10013009372E+02  0.27500540161E+02 -0.22700582372E+02  0.37273702605E+02  0.41800000000E+01 0. -1.
         -5    1    4    4    0  501 -0.71492727049E+01 -0.35092225053E+02 -0.46095205758E+03  0.46236008495E+03  0.41800000000E+01 0. -1.
</event>
<event>
11    1  0.7882745E-009  0.1661509E+03  0.7561462E-02  0.1081431E+00
         22   -1    0    0    0    0  0.00000000000E+00  0.00000000000E+00  0.51430382488E+03  0.51430382488E+03  0.00000000000E+00 0. -1.
         22   -1    0    0    0    0 -0.00000000000E+00 -0.00000000000E+00 -0.12368969730E+03  0.12368969730E+03  0.00000000000E+00 0. -1.
         24    2    1    2    0    0  0.24801169290E+02 -0.48200339813E+02 -0.33892934637E+02  0.10286950619E+03  0.80591770854E+02 0.  0.
         25    2    1    2    0    0  0.89020523319E+01 -0.71444516885E+02  0.91621038209E+02  0.17097130336E+03  0.12511277474E+03 0.  0.
        -24    2    1    2    0    0 -0.33703221622E+02  0.11964485670E+03  0.33288602401E+03  0.36415271262E+03  0.79644800501E+02 0.  0.
        -13    1    3    3    0    0 -0.13199184618E+02 -0.17381512428E+02 -0.47339742973E+02  0.52128559481E+02  0.00000000000E+00 0.  1.
         14    1    3    3    0    0  0.38000353908E+02 -0.30818827385E+02  0.13446808336E+02  0.50740946709E+02  0.00000000000E+00 0. -1.
         13    1    5    5    0    0 -0.53764495421E+02  0.92977732691E+02  0.29347824621E+03  0.31251393688E+03  0.00000000000E+00 0. -1.
        -14    1    5    5    0    0  0.20061273799E+02  0.26667124007E+02  0.39407777798E+02  0.51638775743E+02  0.00000000000E+00 0.  1.
          5    1    4    4  501    0 -0.89799994460E+01  0.30082179841E+02  0.51113319176E+02  0.60130040174E+02  0.41800000000E+01 0. -1.
         -5    1    4    4    0  501  0.17882051778E+02 -0.10152669673E+03  0.40507719033E+02  0.11084126319E+03  0.41800000000E+01 0. -1.
</event>
<event>
11    1  0.7882745E-009  0.1454604E+03  0.7561462E-02  0.1101610E+00
         22   -1    0    0    0    0  0.00000000000E+00  0.00000000000E+00  0.34976083015E+03  0.34976083015E+03  0.00000000000E+00 0.  1.
         22   -1    0    0    0    0 -0.00000000000E+00 -0.00000000000E+00 -0.58261076655E+03  0.58261076655E+03  0.00000000000E+00 0. -1.
        -24    2    1    2    0    0  0.72558232938E+01 -0.22950937854E+02 -0.52252320467E+03  0.52958084761E+03  0.82740450916E+02 0.  0.
         25    2    1    2    0    0  0.56429567579E+02 -0.23781696508E+02  0.71663753468E+02  0.15662859235E+03  0.12508779795E+03 0.  0.
         24    2    1    2    0    0 -0.63685390872E+02  0.46732634362E+02  0.21800951480E+03  0.24616215674E+03  0.82631051904E+02 0.  0.
        -11    1    5    5    0    0 -0.38563573813E+02  0.55396916459E+02  0.20641172315E+03  0.21716760125E+03  0.00000000000E+00 0.  1.
         12    1    5    5    0    0 -0.25121817060E+02 -0.86642820970E+01  0.11597791654E+02  0.28994555487E+02  0.00000000000E+00 0. -1.
         11    1    3    3    0    0  0.38363167526E+02 -0.35586932600E+02 -0.29759601429E+03  0.30216146365E+03  0.00000000000E+00 0. -1.
        -12    1    3    3    0    0 -0.31107344232E+02  0.12635994747E+02 -0.22492719038E+03  0.22741938396E+03  0.00000000000E+00 0.  1.
          5    1    4    4  501    0  0.39868677544E+02  0.46611899119E+02  0.54566801208E+02  0.82202121521E+02  0.41800000000E+01 0. -1.
         -5    1    4    4    0  501  0.16560890034E+02 -0.70393595627E+02  0.17096952260E+02  0.74426470833E+02  0.41800000000E+01 0. -1.
</event>
<event>
11    1  0.9084539E-009  0.1790498E+03  0.7561462E-02  0.1070414E+00
         22   -1    0    0    0    0  0.00000000000E+00  0.00000000000E+00  0.13382779884E+04  0.13382779884E+04  0.00000000000E+00 0.  1.
         22   -1    0    0    0    0 -0.00000000000E+00 -0.00000000000E+00 -0.83318488773E+03  0.83318488773E+03  0.00000000000E+00 0. -1.
        -24    2    1    2    0    0  0.45219674418E+01 -0.13869280518E+03 -0.76643279566E+03  0.78323118057E+03  0.82314698335E+02 0.  0.
         25    2    1    2    0    0 -0.33964732412E+01  0.31480722049E+02  0.21350832807E+02  0.13078839672E+03  0.12508866760E+03 0.  0.
         24    2    1    2    0    0 -0.11254942007E+01  0.10721208313E+03  0.12501750635E+04  0.12574432989E+04  0.82038179342E+02 0.  0.
        -11    1    5    5    0    0  0.17705091640E+01  0.67967970023E+02  0.11031489757E+04  0.11052422550E+04  0.00000000000E+00 0.  1.
         12    1    5    5    0    0 -0.28960033647E+01  0.39244113106E+02  0.14702608781E+03  0.15220104384E+03  0.00000000000E+00 0. -1.
         13    1    3    3    0    0  0.34088900102E+02 -0.86974895062E+02 -0.58105193393E+03  0.58851341141E+03  0.00000000000E+00 0. -1.
        -14    1    3    3    0    0 -0.29566932661E+02 -0.51717910117E+02 -0.18538086172E+03  0.19471776916E+03  0.00000000000E+00 0.  1.
          5    1    4    4  501    0  0.42013997924E+02 -0.26640937521E+02  0.26889418614E+02  0.56704751185E+02  0.41800000000E+01 0. -1.
         -5    1    4    4    0  501 -0.45410471165E+02  0.58121659570E+02 -0.55385858072E+01  0.74083645532E+02  0.41800000000E+01 0. -1.
</event>
<event>
11    1  0.7882745E-009  0.1278415E+03  0.7561462E-02  0.1121950E+00
         22   -1    0    0    0    0  0.00000000000E+00  0.00000000000E+00  0.14280631790E+03  0.14280631790E+03  0.00000000000E+00 0.  1.
         22   -1    0    0    0    0 -0.00000000000E+00 -0.00000000000E+00 -0.18261206925E+04  0.18261206925E+04  0.00000000000E+00 0.  1.
         24    2    1    2    0    0  0.20963400750E+02 -0.19369890002E+02 -0.14149192735E+04  0.14178351680E+04  0.86286478384E+02 0.  0.
         25    2    1    2    0    0  0.68137288706E+01  0.22266156369E+02 -0.38566482569E+03  0.40611272846E+03  0.12509189350E+03 0.  0.
        -24    2    1    2    0    0 -0.27777129621E+02 -0.28962663664E+01  0.11726972453E+03  0.14497911399E+03  0.80540659992E+02 0.  0.
        -11    1    3    3    0    0  0.45602518355E+02  0.13764640041E+02 -0.90179515369E+03  0.90305235408E+03  0.00000000000E+00 0.  1.
         12    1    3    3    0    0 -0.24639117605E+02 -0.33134530043E+02 -0.51312411977E+03  0.51478281390E+03  0.00000000000E+00 0. -1.
         11    1    5    5    0    0 -0.47736930468E+02  0.22571381976E+02  0.69565851540E+02  0.87336644745E+02  0.00000000000E+00 0. -1.
        -12    1    5    5    0    0  0.19959800847E+02 -0.25467648342E+02  0.47703872990E+02  0.57642469241E+02  0.00000000000E+00 0.  1.
          5    1    4    4  501    0 -0.49775259172E+02  0.26819009914E+02 -0.10111601986E+03  0.11592565544E+03  0.41800000000E+01 0. -1.
         -5    1    4    4    0  501  0.56588988043E+02 -0.45528535449E+01 -0.28454880583E+03  0.29018707301E+03  0.41800000000E+01 0. -1.
</event>
<event>
11    1  0.7882745E-009  0.1384208E+03  0.7561462E-02  0.1109335E+00
         22   -1    0    0    0    0  0.00000000000E+00  0.00000000000E+00  0.37681533741E+03  0.37681533741E+03  0.00000000000E+00 0. -1.
         22   -1    0    0    0    0 -0.00000000000E+00 -0.00000000000E+00 -0.32204814250E+03  0.32204814250E+03  0.00000000000E+00 0.  1.
        -24    2    1    2    0    0  0.22933422822E+02  0.41046070472E+02 -0.16767570095E+03  0.18335957356E+03  0.57400964661E+02 0.  0.
         25    2    1    2    0    0  0.53832107868E+01  0.13691507477E+02 -0.11037154547E+03  0.16749611620E+03  0.12512647424E+03 0.  0.
         24    2    1    2    0    0 -0.28316633608E+02 -0.54737577949E+02  0.33281444133E+03  0.34800779015E+03  0.80906955635E+02 0.  0.
        -13    1    5    5    0    0  0.42904300163E+01 -0.10113213005E+02  0.36089147191E+00  0.10991592681E+02  0.00000000000E+00 0.  1.
         14    1    5    5    0    0 -0.32607063625E+02 -0.44624364944E+02  0.33245354986E+03  0.33701619747E+03  0.00000000000E+00 0. -1.
         11    1    3    3    0    0  0.34268855942E+02  0.29733990546E+02 -0.63977090353E+02  0.78431707691E+02  0.00000000000E+00 0. -1.
        -12    1    3    3    0    0 -0.11335433120E+02  0.11312079925E+02 -0.10369861060E+03  0.10492786587E+03  0.00000000000E+00 0.  1.
          5    1    4    4  501    0 -0.34955030420E+02  0.32363801884E+02 -0.11307197208E+03  0.12276812736E+03  0.41800000000E+01 0. -1.
         -5    1    4    4    0  501  0.40338241206E+02 -0.18672294407E+02  0.27004266070E+01  0.44727988843E+02  0.41800000000E+01 0. -1.
</event>
<event>
11    1  0.7882745E-009  0.1353548E+03  0.7561462E-02  0.1112859E+00
         22   -1    0    0    0    0  0.00000000000E+00  0.00000000000E+00  0.13429096038E+04  0.13429096038E+04  0.00000000000E+00 0.  1.
         22   -1    0    0    0    0 -0.00000000000E+00 -0.00000000000E+00 -0.26791957873E+03  0.26791957873E+03  0.00000000000E+00 0. -1.
         24    2    1    2    0    0 -0.37909406278E+02  0.28014669795E+02 -0.24208635553E+03  0.25849875508E+03  0.77420010590E+02 0.  0.
         25    2    1    2    0    0  0.42029558441E+02 -0.75230079795E+02  0.36150701227E+03  0.39212297196E+03  0.12508819500E+03 0.  0.
        -24    2    1    2    0    0 -0.41201521632E+01  0.47215410000E+02  0.95556936834E+03  0.96020745550E+03  0.81481711368E+02 0.  0.
        -13    1    3    3    0    0 -0.38880853232E+02 -0.10012016555E+00 -0.45239258261E+02  0.59651666030E+02  0.00000000000E+00 0.  1.
         14    1    3    3    0    0  0.97144695376E+00  0.28114789960E+02 -0.19684709726E+03  0.19884708905E+03  0.00000000000E+00 0. -1.
         11    1    5    5    0    0 -0.36136735275E+02 -0.11558729890E+01  0.34556561821E+03  0.34745186165E+03  0.00000000000E+00 0. -1.
        -12    1    5    5    0    0  0.32016583112E+02  0.48371282989E+02  0.61000375013E+03  0.61275559385E+03  0.00000000000E+00 0.  1.
          5    1    4    4  501    0 -0.29198216428E+02 -0.74692905478E+02  0.20239102810E+03  0.21774105407E+03  0.41800000000E+01 0. -1.
         -5    1    4    4    0  501  0.71227774870E+02 -0.53717431703E+00  0.15911598416E+03  0.17438191788E+03  0.41800000000E+01 0. -1.
</event>
<event>
11    1  0.7882745E-009  0.1725437E+03  0.7561462E-02  0.1075839E+00
         22   -1    0    0    0    0  0.00000000000E+00  0.00000000000E+00  0.21086200769E+04  0.21086200769E+04  0.00000000000E+00 0.  1.
         22   -1    0    0    0    0 -0.00000000000E+00 -0.00000000000E+00 -0.84769805452E+02  0.84769805452E+02  0.00000000000E+00 0.  1.
         24    2    1    2    0    0  0.65250177476E+02  0.89469442500E+02  0.42463284630E+02  0.14585342680E+03  0.84898320158E+02 0.  0.
         25    2    1    2    0    0 -0.62171834412E+02 -0.13155746601E+03  0.25683109598E+03  0.32059767298E+03  0.12509177512E+03 0.  0.
        -24    2    1    2    0    0 -0.30783430635E+01  0.42088023514E+02  0.17245558908E+04  0.17269387826E+04  0.80272412437E+02 0.  0.
        -11    1    3    3    0    0  0.22598520450E+02  0.24995717993E+02 -0.26022727325E+02  0.42575361208E+02  0.00000000000E+00 0.  1.
         12    1    3    3    0    0  0.42651657025E+02  0.64473724507E+02  0.68486011955E+02  0.10327806559E+03  0.00000000000E+00 0. -1.
         11    1    5    5    0    0  0.16427663321E+02 -0.17340761745E+02  0.27549804986E+03  0.27653163583E+03  0.00000000000E+00 0. -1.
        -12    1    5    5    0    0 -0.19506006385E+02  0.59428785258E+02  0.14490578410E+04  0.14504071467E+04  0.00000000000E+00 0.  1.
          5    1    4    4  501    0 -0.41275386537E+02 -0.67416986478E+02  0.31242233085E+02  0.85101451972E+02  0.41800000000E+01 0.  1.
         -5    1    4    4    0  501 -0.20896447876E+02 -0.64140479536E+02  0.22558886289E+03  0.23549622101E+03  0.41800000000E+01 0.  1.
</event>
<event>
11    1  0.7882745E-009  0.1451752E+03  0.7561462E-02  0.1101913E+00
         22   -1    0    0    0    0  0.00000000000E+00  0.00000000000E+00  0.34492996451E+04  0.34492996451E+04  0.00000000000E+00 0.  1.
         22   -1    0    0    0    0 -0.00000000000E+00 -0.00000000000E+00 -0.49130473211E+02  0.49130473211E+02  0.00000000000E+00 0.  1.
         24    2    1    2    0    0  0.22005744673E+01 -0.38371062039E+02  0.42719119439E+02  0.11038752744E+03  0.94251271173E+02 0.  0.
         25    2    1    2    0    0 -0.72585992553E+02  0.56822925320E+02  0.41128406604E+03  0.43965964835E+03  0.12509377385E+03 0.  0.
        -24    2    1    2    0    0  0.70385418086E+02 -0.18451863280E+02  0.29461659864E+04  0.29483829425E+04  0.88166762050E+02 0.  0.
        -13    1    3    3    0    0 -0.19389438138E+02 -0.34306981008E+02 -0.19813686114E+02  0.44107838471E+02  0.00000000000E+00 0.  1.
         14    1    3    3    0    0  0.21590012605E+02 -0.40640810308E+01  0.62532805553E+02  0.66279688964E+02  0.00000000000E+00 0. -1.
         11    1    5    5    0    0  0.63098100289E+02  0.22515984766E+02  0.22324221736E+04  0.22334272097E+04  0.00000000000E+00 0. -1.
        -12    1    5    5    0    0  0.72873177964E+01 -0.40967848047E+02  0.71374381281E+03  0.71495573282E+03  0.00000000000E+00 0.  1.
          5    1    4    4  501    0 -0.54879875081E+02  0.77879401567E+02  0.15583418692E+03  0.18269857167E+03  0.41800000000E+01 0.  1.
         -5    1    4    4    0  501 -0.17706117472E+02 -0.21056476248E+02  0.25544987912E+03  0.25696107668E+03  0.41800000000E+01 0.  1.
</event>
<event>
11    1  0.7882745E-009  0.1473428E+03  0.7561462E-02  0.1099625E+00
         22   -1    0    0    0    0  0.00000000000E+00  0.00000000000E+00  0.19272743556E+03  0.19272743556E+03  0.00000000000E+00 0.  1.
         22   -1    0    0    0    0 -0.00000000000E+00 -0.00000000000E+00 -0.21338407071E+04  0.21338407071E+04  0.00000000000E+00 0.  1.
        -24    2    1    2    0    0 -0.61082901169E+02 -0.46497590252E+02 -0.17455721696E+04  0.17490878427E+04  0.79955834477E+02 0.  0.
         25    2    1    2    0    0  0.11438213816E+03 -0.65430043309E+01 -0.34951375659E+03  0.38850150504E+03  0.12508984347E+03 0.  0.
         24    2    1    2    0    0 -0.53299236991E+02  0.53040594583E+02  0.15397265467E+03  0.18897879490E+03  0.79695001078E+02 0.  0.
        -11    1    5    5    0    0 -0.63258746258E+02  0.25387055544E+02  0.14147588496E+03  0.15704011459E+03  0.00000000000E+00 0.  1.
         12    1    5    5    0    0  0.99595092670E+01  0.27653539039E+02  0.12496769714E+02  0.31938680303E+02  0.00000000000E+00 0. -1.
         13    1    3    3    0    0 -0.51961587747E+01 -0.30322258359E+02 -0.19390505405E+03  0.19633035783E+03  0.00000000000E+00 0. -1.
        -14    1    3    3    0    0 -0.55886742394E+02 -0.16175331893E+02 -0.15516671155E+04  0.15527574848E+04  0.00000000000E+00 0.  1.
          5    1    4    4  501    0  0.55981703005E+02 -0.39560918132E+00 -0.31561260280E+03  0.32056652200E+03  0.41800000000E+01 0. -1.
         -5    1    4    4    0  501  0.58400435155E+02 -0.61473951495E+01 -0.33901153789E+02  0.67934983048E+02  0.41800000000E+01 0. -1.
</event>
<event>
11    1  0.7882745E-009  0.1440566E+03  0.7561462E-02  0.1103111E+00
         22   -1    0    0    0    0  0.00000000000E+00  0.00000000000E+00  0.32423698911E+04  0.32423698911E+04  0.00000000000E+00 0.  1.
         22   -1    0    0    0    0 -0.00000000000E+00 -0.00000000000E+00 -0.48551704306E+02  0.48551704306E+02  0.00000000000E+00 0.  1.
         24    2    1    2    0    0 -0.15251224891E+02  0.33311214239E+02  0.84015104029E+01  0.88524806765E+02  0.80148731625E+02 0.  0.
         25    2    1    2    0    0  0.79334512734E+02 -0.17445436769E+01  0.74357049587E+03  0.75818059652E+03  0.12507488264E+03 0.  0.
        -24    2    1    2    0    0 -0.64083287843E+02 -0.31566670562E+02  0.24418461805E+04  0.24442161921E+04  0.80479202446E+02 0.  0.
        -13    1    3    3    0    0 -0.32306831141E+02  0.38849990748E+01 -0.24862462789E+02  0.40950782803E+02  0.00000000000E+00 0.  1.
         14    1    3    3    0    0  0.17055606250E+02  0.29426215164E+02  0.33263973192E+02  0.47574023963E+02  0.00000000000E+00 0. -1.
         11    1    5    5    0    0 -0.39529928102E+01  0.17018714343E+01  0.59106162376E+01  0.73114911505E+01  0.00000000000E+00 0. -1.
        -12    1    5    5    0    0 -0.60130295033E+02 -0.33268541996E+02  0.24359355643E+04  0.24369047010E+04  0.00000000000E+00 0.  1.
          5    1    4    4  501    0  0.83851377458E+02  0.47041537530E+02  0.55625269035E+03  0.56451615360E+03  0.41800000000E+01 0.  1.
         -5    1    4    4    0  501 -0.45168647241E+01 -0.48786081207E+02  0.18731780552E+03  0.19366444292E+03  0.41800000000E+01 0.  1.
</event>
<event>
11    1  0.7882745E-009  0.1823291E+03  0.7561462E-02  0.1067774E+00
         22   -1    0    0    0    0  0.00000000000E+00  0.00000000000E+00  0.18847608145E+03  0.18847608145E+03  0.00000000000E+00 0.  1.
         22   -1    0    0    0    0 -0.00000000000E+00 -0.00000000000E+00 -0.16817385773E+04  0.16817385773E+04  0.00000000000E+00 0. -1.
        -24    2    1    2    0    0  0.38019908329E+02 -0.12518430654E+03 -0.15020879295E+04  0.15099739153E+04  0.81464427147E+02 0.  0.
         25    2    1    2    0    0 -0.94865249669E+02  0.14525789033E+03 -0.78537427002E+02  0.22785210369E+03  0.12509669627E+03 0.  0.
         24    2    1    2    0    0  0.56845341339E+02 -0.20073583793E+02  0.87362860676E+02  0.13238863974E+03  0.79121052249E+02 0.  0.
        -11    1    5    5    0    0  0.74703111846E+02 -0.26291151929E+02  0.61091321143E+02  0.10001964361E+03  0.00000000000E+00 0.  1.
         12    1    5    5    0    0 -0.17857770507E+02  0.62175681366E+01  0.26271539533E+02  0.32368996130E+02  0.00000000000E+00 0. -1.
         11    1    3    3    0    0  0.46610671987E+02 -0.10514116838E+03 -0.87741837438E+03  0.88492385194E+03  0.00000000000E+00 0. -1.
        -12    1    3    3    0    0 -0.85907636578E+01 -0.20043138155E+02 -0.62466955514E+03  0.62505006337E+03  0.00000000000E+00 0.  1.
          5    1    4    4  501    0 -0.28572328041E+02  0.11587919331E+03 -0.95914007990E+02  0.15317093295E+03  0.41800000000E+01 0.  1.
         -5    1    4    4    0  501 -0.66292921627E+02  0.29378697018E+02  0.17376580987E+02  0.74681170740E+02  0.41800000000E+01 0.  1.
</event>
<event>
11    1  0.7882745E-009  0.1624732E+03  0.7561462E-02  0.1084774E+00
         22   -1    0    0    0    0  0.00000000000E+00  0.00000000000E+00  0.37128065835E+03  0.37128065835E+03  0.00000000000E+00 0. -1.
         22   -1    0    0    0    0 -0.00000000000E+00 -0.00000000000E+00 -0.58654399321E+03  0.58654399321E+03  0.00000000000E+00 0.  1.
        -24    2    1    2    0    0  0.24561904446E+02  0.99832478297E+02 -0.40965895952E+03  0.43042405961E+03  0.82913190172E+02 0.  0.
         25    2    1    2    0    0 -0.47531577452E+02 -0.98343267352E+02 -0.11800006941E+03  0.20371591655E+03  0.12508200984E+03 0.  0.
         24    2    1    2    0    0  0.22969673006E+02 -0.14892109449E+01  0.31239569407E+03  0.32368467541E+03  0.81552901802E+02 0.  0.
        -13    1    5    5    0    0 -0.11119117137E+02  0.28518220482E+02  0.61324667728E+02  0.68539321104E+02  0.00000000000E+00 0.  1.
         14    1    5    5    0    0  0.34088790143E+02 -0.30007431426E+02  0.25107102634E+03  0.25514535430E+03  0.00000000000E+00 0. -1.
         13    1    3    3    0    0  0.48847361769E+02  0.53284690512E+02 -0.16410927057E+03  0.17932421945E+03  0.00000000000E+00 0. -1.
        -14    1    3    3    0    0 -0.24285457323E+02  0.46547787785E+02 -0.24554968895E+03  0.25109984016E+03  0.00000000000E+00 0.  1.
          5    1    4    4  501    0 -0.50243167666E+02  0.10785799486E+02 -0.15303807330E+02  0.53780928650E+02  0.41800000000E+01 0.  1.
         -5    1    4    4    0  501  0.27115902141E+01 -0.10912906684E+03 -0.10269626208E+03  0.14993498790E+03  0.41800000000E+01 0.  1.
</event>
<event>
11    1  0.7882745E-009  0.1448522E+03  0.7561462E-02  0.1102258E+00
         22   -1    0    0    0    0  0.00000000000E+00  0.00000000000E+00  0.10855402377E+04  0.10855402377E+04  0.00000000000E+00 0. -1.
         22   -1    0    0    0    0 -0.00000000000E+00 -0.00000000000E+00 -0.12916163135E+04  0.12916163135E+04  0.00000000000E+00 0. -1.
         24    2    1    2    0    0  0.80811413307E+02  0.40713612960E+01 -0.12606322831E+04  0.12642870595E+04  0.51777939911E+02 0.  0.
         25    2    1    2    0    0 -0.13642197768E+03 -0.35507597350E+02  0.32238047442E+03  0.37342874441E+03  0.12509241146E+03 0.  0.
        -24    2    1    2    0    0  0.55610564376E+02  0.31436236054E+02  0.73217573298E+03  0.73944074727E+03  0.81305245500E+02 0.  0.
        -11    1    3    3    0    0  0.21044272574E+02 -0.84647173365E+01 -0.12690109571E+03  0.12891237698E+03  0.00000000000E+00 0.  1.
         12    1    3    3    0    0  0.59767140733E+02  0.12536078633E+02 -0.11337311874E+04  0.11353746825E+04  0.00000000000E+00 0. -1.
         11    1    5    5    0    0  0.49337087832E+02  0.53549373788E+02  0.40762577694E+03  0.41407784014E+03  0.00000000000E+00 0. -1.
        -12    1    5    5    0    0  0.62734765437E+01 -0.22113137734E+02  0.32454995604E+03  0.32536290713E+03  0.00000000000E+00 0.  1.
          5    1    4    4  501    0 -0.18686436803E+02  0.35191798718E+02  0.13664993343E+03  0.14240197443E+03  0.41800000000E+01 0.  1.
         -5    1    4    4    0  501 -0.11773554088E+03 -0.70699396068E+02  0.18573054099E+03  0.23102676998E+03  0.41800000000E+01 0.  1.
</event>
<event>
11    1  0.7882745E-009  0.1896097E+03  0.7561462E-02  0.1062124E+00
         22   -1    0    0    0    0  0.00000000000E+00  0.00000000000E+00  0.33051860558E+03  0.33051860558E+03  0.00000000000E+00 0. -1.
         22   -1    0    0    0    0 -0.00000000000E+00 -0.00000000000E+00 -0.54227351833E+03  0.54227351833E+03  0.00000000000E+00 0. -1.
        -24    2    1    2    0    0 -0.15842277067E+02  0.31113541643E+02 -0.42411302961E+03  0.43319293836E+03  0.81026105319E+02 0.  0.
         25    2    1    2    0    0 -0.57428449826E+02 -0.14717084738E+03  0.42220357217E+02  0.20588174037E+03  0.12508975691E+03 0.  0.
         24    2    1    2    0    0  0.73270726893E+02  0.11605730574E+03  0.17013775965E+03  0.23371744518E+03  0.82698786498E+02 0.  0.
        -11    1    5    5    0    0  0.48172079984E+02  0.72547682160E+02  0.43216468009E+02  0.97218200888E+02  0.00000000000E+00 0.  1.
         12    1    5    5    0    0  0.25098646909E+02  0.43509623578E+02  0.12692129164E+03  0.13649924429E+03  0.00000000000E+00 0. -1.
         13    1    3    3    0    0  0.14134417627E+02 -0.22586866330E+02 -0.13698298278E+03  0.13955029869E+03  0.00000000000E+00 0. -1.
        -14    1    3    3    0    0 -0.29976694693E+02  0.53700407973E+02 -0.28713004683E+03  0.29364263967E+03  0.00000000000E+00 0.  1.
          5    1    4    4  501    0 -0.62220270006E+02 -0.12339618155E+03  0.80787487757E+02  0.16013141541E+03  0.41800000000E+01 0. -1.
         -5    1    4    4    0  501  0.47918201797E+01 -0.23774665827E+02 -0.38567130540E+02  0.45750324960E+02  0.41800000000E+01 0. -1.
</event>
<event>
11    1  0.7882745E-009  0.1426062E+03  0.7561462E-02  0.1104683E+00
         22   -1    0    0    0    0  0.00000000000E+00  0.00000000000E+00  0.73209916272E+03  0.73209916272E+03  0.00000000000E+00 0. -1.
         22   -1    0    0    0    0 -0.00000000000E+00 -0.00000000000E+00 -0.96686927770E+02  0.96686927770E+02  0.00000000000E+00 0. -1.
         24    2    1    2    0    0  0.23288700697E+02 -0.22074915732E+02  0.70687053604E+01  0.86950209614E+02  0.80502837663E+02 0.  0.
         25    2    1    2    0    0 -0.15367946407E+02 -0.47973396483E+02  0.35342232937E+02  0.13940648891E+03  0.12508986840E+03 0.  0.
        -24    2    1    2    0    0 -0.79207542899E+01  0.70048312215E+02  0.59300129666E+03  0.60242939197E+03  0.79379657825E+02 0.  0.
        -11    1    3    3    0    0  0.27676850757E+02 -0.32068135001E+02  0.36276031469E+02  0.55770277114E+02  0.00000000000E+00 0.  1.
         12    1    3    3    0    0 -0.43881500608E+01  0.99932192686E+01 -0.29207326108E+02  0.31179932500E+02  0.00000000000E+00 0. -1.
         13    1    5    5    0    0 -0.87039994643E+00  0.86194751342E+02  0.43574068109E+03  0.44418490960E+03  0.00000000000E+00 0. -1.
        -14    1    5    5    0    0 -0.70503543435E+01 -0.16146439126E+02  0.15726061556E+03  0.15824448237E+03  0.00000000000E+00 0.  1.
          5    1    4    4  501    0  0.20266227423E+02  0.34901108448E+02  0.26951503077E+02  0.48709991408E+02  0.41800000000E+01 0. -1.
         -5    1    4    4    0  501 -0.35634173830E+02 -0.82874504931E+02  0.83907298603E+01  0.90696497505E+02  0.41800000000E+01 0. -1.
</event>
<event>
11    1  0.7882745E-009  0.1415166E+03  0.7561462E-02  0.1105877E+00
         22   -1    0    0    0    0  0.00000000000E+00  0.00000000000E+00  0.43018016265E+03  0.43018016265E+03  0.00000000000E+00 0.  1.
         22   -1    0    0    0    0 -0.00000000000E+00 -0.00000000000E+00 -0.17037572322E+04  0.17037572322E+04  0.00000000000E+00 0. -1.
        -24    2    1    2    0    0  0.63430168366E+02 -0.11822485977E+02 -0.15220601665E+04  0.15258148874E+04  0.85327386273E+02 0.  0.
         25    2    1    2    0    0 -0.92947938047E+02  0.42020516152E+02 -0.13550832307E+03  0.21074957238E+03  0.12509130134E+03 0.  0.
         24    2    1    2    0    0  0.29517769682E+02 -0.30198030175E+02  0.38399142006E+03  0.39737293498E+03  0.93126897426E+02 0.  0.
        -11    1    5    5    0    0 -0.28908425031E+02 -0.26407164042E+02  0.21474913072E+03  0.21828931375E+03  0.00000000000E+00 0.  1.
         12    1    5    5    0    0  0.58426194712E+02 -0.37908661327E+01  0.16924228934E+03  0.17908362124E+03  0.00000000000E+00 0. -1.
         11    1    3    3    0    0  0.48886212746E+02  0.29693850040E+01 -0.14500355849E+04  0.14508624596E+04  0.00000000000E+00 0. -1.
        -12    1    3    3    0    0  0.14543955620E+02 -0.14791870981E+02 -0.72024581589E+02  0.74952427881E+02  0.00000000000E+00 0.  1.
          5    1    4    4  501    0  0.12413881004E+02 -0.25044209862E+02 -0.26993931614E+01  0.28391477817E+02  0.41800000000E+01 0.  1.
         -5    1    4    4    0  501 -0.10536181905E+03  0.67064726014E+02 -0.13280892990E+03  0.18235809456E+03  0.41800000000E+01 0.  1.
</event>
<event>
11    1  0.7882745E-009  0.1482532E+03  0.7561462E-02  0.1098677E+00
         22   -1    0    0    0    0  0.00000000000E+00  0.00000000000E+00  0.11584721641E+03  0.11584721641E+03  0.00000000000E+00 0. -1.
         22   -1    0    0    0    0 -0.00000000000E+00 -0.00000000000E+00 -0.78287365702E+03  0.78287365702E+03  0.00000000000E+00 0. -1.
        -24    2    1    2    0    0 -0.26520404157E+02  0.69142246259E+02 -0.48756995557E+03  0.49970900433E+03  0.80626579811E+02 0.  0.
         25    2    1    2    0    0  0.17170333624E+02 -0.10220020625E+03 -0.24141098449E+03  0.29097515017E+03  0.12509025571E+03 0.  0.
         24    2    1    2    0    0  0.93500705332E+01  0.33057959989E+02  0.61954499451E+02  0.10803671894E+03  0.81567886442E+02 0.  0.
        -13    1    5    5    0    0 -0.18705212729E+02  0.55903417432E+01 -0.12976689298E+02  0.23442085428E+02  0.00000000000E+00 0.  1.
         14    1    5    5    0    0  0.28055283263E+02  0.27467618246E+02  0.74931188749E+02  0.84594633508E+02  0.00000000000E+00 0. -1.
         11    1    3    3    0    0 -0.73644685448E+01  0.26382279097E+02 -0.39507626593E+03  0.39602464059E+03  0.00000000000E+00 0. -1.
        -12    1    3    3    0    0 -0.19155935613E+02  0.42759967162E+02 -0.92493689639E+02  0.10368436374E+03  0.00000000000E+00 0.  1.
          5    1    4    4  501    0 -0.26410189220E+02 -0.70256678088E+02 -0.45869512396E+02  0.88062384013E+02  0.41800000000E+01 0. -1.
         -5    1    4    4    0  501  0.43580522844E+02 -0.31943528161E+02 -0.19554147209E+03  0.20291276616E+03  0.41800000000E+01 0. -1.
</event>
<event>
11    1  0.7882745E-009  0.2185074E+03  0.7561462E-02  0.1042156E+00
         22   -1    0    0    0    0  0.00000000000E+00  0.00000000000E+00  0.19361366773E+03  0.19361366773E+03  0.00000000000E+00 0.  1.
         22   -1    0    0    0    0 -0.00000000000E+00 -0.00000000000E+00 -0.66918155210E+03  0.66918155210E+03  0.00000000000E+00 0. -1.
         24    2    1    2    0    0 -0.87324612634E+02  0.18582483572E+03 -0.41452853858E+03  0.46956290834E+03  0.80616115330E+02 0.  0.
         25    2    1    2    0    0  0.55322767761E+02 -0.12713628507E+03 -0.16174992555E+03  0.24705178632E+03  0.12508918056E+03 0.  0.
        -24    2    1    2    0    0  0.32001844873E+02 -0.58688550647E+02  0.10071057976E+03  0.14618052517E+03  0.82204993828E+02 0.  0.
        -13    1    3    3    0    0 -0.18575990639E+02  0.11205751620E+02 -0.10551215399E+02  0.24123939230E+02  0.00000000000E+00 0.  1.
         14    1    3    3    0    0 -0.68748621995E+02  0.17461908410E+03 -0.40397732318E+03  0.44543896911E+03  0.00000000000E+00 0. -1.
         13    1    5    5    0    0 -0.56577014407E+01  0.55935850810E+01 -0.99738494404E+01  0.12758348338E+02  0.00000000000E+00 0. -1.
        -14    1    5    5    0    0  0.37659546313E+02 -0.64282135728E+02  0.11068442920E+03  0.13342217683E+03  0.00000000000E+00 0.  1.
          5    1    4    4  501    0  0.75271351719E+02 -0.84568765300E+02 -0.46410200815E+02  0.12242970062E+03  0.41800000000E+01 0.  1.
         -5    1    4    4    0  501 -0.19948583957E+02 -0.42567519768E+02 -0.11533972474E+03  0.12462208570E+03  0.41800000000E+01 0.  1.
</event>
<event>
11    1  0.7882745E-009  0.1493972E+03  0.7561462E-02  0.1097496E+00
         22   -1    0    0    0    0  0.00000000000E+00  0.00000000000E+00  0.13830574692E+04  0.13830574692E+04  0.00000000000E+00 0.  1.
         22   -1    0    0    0    0 -0.00000000000E+00 -0.00000000000E+00 -0.87700684153E+02  0.87700684153E+02  0.00000000000E+00 0. -1.
        -24    2    1    2    0    0 -0.68410760613E+02 -0.73382847172E+02  0.39419005357E+02  0.13617081046E+03  0.83207915549E+02 0.  0.
         25    2    1    2    0    0  0.51851461534E+02  0.24993533098E+02  0.89529185318E+02  0.16424553025E+03  0.12509144025E+03 0.  0.
         24    2    1    2    0    0  0.16559299079E+02  0.48389314074E+02  0.11664085944E+04  0.11703418127E+04  0.81087688981E+02 0.  0.
        -11    1    5    5    0    0  0.17207869177E+02 -0.68993056460E+01  0.75577285739E+03  0.75600021372E+03  0.00000000000E+00 0.  1.
         12    1    5    5    0    0 -0.64857009791E+00  0.55288619721E+02  0.41063573698E+03  0.41434159893E+03  0.00000000000E+00 0. -1.
         13    1    3    3    0    0 -0.42603068093E+02 -0.27653317516E+00 -0.10606295799E+02  0.43904343658E+02  0.00000000000E+00 0. -1.
        -14    1    3    3    0    0 -0.25807692520E+02 -0.73106313997E+02  0.50025301156E+02  0.92266466797E+02  0.00000000000E+00 0.  1.
          5    1    4    4  501    0  0.44612863048E+02  0.69861044710E+02  0.27906062510E+02  0.87561942887E+02  0.41800000000E+01 0. -1.
         -5    1    4    4    0  501  0.72385984860E+01 -0.44867511613E+02  0.61623122808E+02  0.76683587364E+02  0.41800000000E+01 0. -1.
</event>
<event>
11    1  0.7882745E-009  0.1624372E+03  0.7561462E-02  0.1084807E+00
         22   -1    0    0    0    0  0.00000000000E+00  0.00000000000E+00  0.29774833950E+03  0.29774833950E+03  0.00000000000E+00 0.  1.
         22   -1    0    0    0    0 -0.00000000000E+00 -0.00000000000E+00 -0.26733059956E+03  0.26733059956E+03  0.00000000000E+00 0. -1.
         24    2    1    2    0    0  0.88824970646E+02 -0.54015327698E+02 -0.16111351080E+03  0.20838093671E+03  0.81593629559E+02 0.  0.
         25    2    1    2    0    0 -0.12870995453E+03 -0.25903603430E+02  0.11977014731E+03  0.21732507283E+03  0.12509216612E+03 0.  0.
        -24    2    1    2    0    0  0.39884983888E+02  0.79918931127E+02  0.71761103427E+02  0.13937292952E+03  0.79355592283E+02 0.  0.
        -11    1    3    3    0    0  0.74126109905E+02 -0.31900405199E+02 -0.51811721535E+02  0.95899794108E+02  0.00000000000E+00 0.  1.
         12    1    3    3    0    0  0.14698860741E+02 -0.22114922499E+02 -0.10930178926E+03  0.11248114260E+03  0.00000000000E+00 0. -1.
         11    1    5    5    0    0 -0.10366740255E+02  0.62929061688E+02  0.24480613946E+02  0.68314248643E+02  0.00000000000E+00 0. -1.
        -12    1    5    5    0    0  0.50251724143E+02  0.16989869439E+02  0.47280489480E+02  0.71058680880E+02  0.00000000000E+00 0.  1.
          5    1    4    4  501    0 -0.12190862960E+03  0.26934237569E+02  0.10115236892E+03  0.16073718071E+03  0.41800000000E+01 0. -1.
         -5    1    4    4    0  501 -0.68013249383E+01 -0.52837840999E+02  0.18617778389E+02  0.56587892119E+02  0.41800000000E+01 0. -1.
</event>
<event>
11    1  0.7882745E-009  0.1290071E+03  0.7561462E-02  0.1120495E+00
         22   -1    0    0    0    0  0.00000000000E+00  0.00000000000E+00  0.48884168494E+03  0.48884168494E+03  0.00000000000E+00 0.  1.
         22   -1    0    0    0    0 -0.00000000000E+00 -0.00000000000E+00 -0.60272887408E+03  0.60272887408E+03  0.00000000000E+00 0.  1.
         24    2    1    2    0    0  0.29364868958E+02  0.12156833462E+02 -0.57073148452E+03  0.57789696001E+03  0.84972847638E+02 0.  0.
         25    2    1    2    0    0 -0.29054554403E+02  0.20964911440E+02  0.16713675272E+03  0.21181606209E+03  0.12509058880E+03 0.  0.
        -24    2    1    2    0    0 -0.31031455597E+00 -0.33121744902E+02  0.28970754266E+03  0.30185753692E+03  0.78040797300E+02 0.  0.
        -13    1    3    3    0    0  0.21268323331E+02  0.47755899121E+02 -0.27544019335E+03  0.28035739261E+03  0.00000000000E+00 0.  1.
         14    1    3    3    0    0  0.80965456270E+01 -0.35599065660E+02 -0.29529129117E+03  0.29753956740E+03  0.00000000000E+00 0. -1.
         11    1    5    5    0    0 -0.59407833460E+01 -0.10765817549E+02  0.11160912761E+01  0.12346715920E+02  0.00000000000E+00 0. -1.
        -12    1    5    5    0    0  0.56304687901E+01 -0.22355927353E+02  0.28859145138E+03  0.28951082100E+03  0.00000000000E+00 0.  1.
          5    1    4    4  501    0 -0.45374622613E+02 -0.38715285744E+02  0.11948091531E+03  0.13360722754E+03  0.41800000000E+01 0.  1.
         -5    1    4    4    0  501  0.16320068210E+02  0.59680197184E+02  0.47655837404E+02  0.78208834546E+02  0.41800000000E+01 0.  1.
</event>
<event>
11    1  0.7882745E-009  0.3798065E+03  0.7561462E-02  0.9711294E-01
         22   -1    0    0    0    0  0.00000000000E+00  0.00000000000E+00  0.57468741380E+03  0.57468741380E+03  0.00000000000E+00 0. -1.
         22   -1    0    0    0    0 -0.00000000000E+00 -0.00000000000E+00 -0.63811281782E+03  0.63811281782E+03  0.00000000000E+00 0. -1.
        -24    2    1    2    0    0 -0.23168258425E+03 -0.25140827043E+03 -0.10111380023E+03  0.36597263797E+03  0.82637962624E+02 0.  0.
         25    2    1    2    0    0  0.33593373611E+03 -0.14491277686E+03 -0.11333852275E+03  0.40291860685E+03  0.12508635038E+03 0.  0.
         24    2    1    2    0    0 -0.10425115186E+03  0.39632104728E+03  0.15102691896E+03  0.44390898680E+03  0.79419035058E+02 0.  0.
        -11    1    5    5    0    0 -0.45847299861E+02  0.17102794089E+03  0.10746789674E+03  0.20712769080E+03  0.00000000000E+00 0.  1.
         12    1    5    5    0    0 -0.58403852001E+02  0.22529310640E+03  0.43559022226E+02  0.23678129600E+03  0.00000000000E+00 0. -1.
         13    1    3    3    0    0 -0.19454808121E+03 -0.22020045318E+03 -0.54783980095E+02  0.29889543315E+03  0.00000000000E+00 0. -1.
        -14    1    3    3    0    0 -0.37134503039E+02 -0.31207817245E+02 -0.46329820137E+02  0.67077204825E+02  0.00000000000E+00 0.  1.
          5    1    4    4  501    0  0.32990116003E+03 -0.11662419907E+03 -0.80720031803E+02  0.35912278560E+03  0.41800000000E+01 0. -1.
         -5    1    4    4    0  501  0.60325760767E+01 -0.28288577787E+02 -0.32618490949E+02  0.43795821252E+02  0.41800000000E+01 0. -1.
</event>
<event>
11    1  0.7882745E-009  0.1317206E+03  0.7561462E-02  0.1117173E+00
         22   -1    0    0    0    0  0.00000000000E+00  0.00000000000E+00  0.44997768058E+02  0.44997768058E+02  0.00000000000E+00 0. -1.
         22   -1    0    0    0    0 -0.00000000000E+00 -0.00000000000E+00 -0.73520347478E+03  0.73520347478E+03  0.00000000000E+00 0. -1.
        -24    2    1    2    0    0 -0.23542350981E+02  0.31676929842E+02 -0.35376796268E+03  0.36463299390E+03  0.79042891185E+02 0.  0.
         25    2    1    2    0    0  0.24927563698E+02 -0.38687464137E+02 -0.29549160963E+03  0.32416387145E+03  0.12509524723E+03 0.  0.
         24    2    1    2    0    0 -0.13852127167E+01  0.70105342956E+01 -0.40946134408E+02  0.91404377481E+02  0.81407050643E+02 0.  0.
        -11    1    5    5    0    0  0.27659043559E+02 -0.24226339774E+02 -0.29774191502E+02  0.47312162380E+02  0.00000000000E+00 0.  1.
         12    1    5    5    0    0 -0.29044256276E+02  0.31236874069E+02 -0.11171942906E+02  0.44092215101E+02  0.00000000000E+00 0. -1.
         11    1    3    3    0    0 -0.32546043347E+02  0.34814856242E+02 -0.35165121432E+03  0.35486602498E+03  0.00000000000E+00 0. -1.
        -12    1    3    3    0    0  0.90036923664E+01 -0.31379264000E+01 -0.21167483660E+01  0.97669689242E+01  0.00000000000E+00 0.  1.
          5    1    4    4  501    0 -0.16081538122E+02 -0.69423602756E+02 -0.10582228925E+03  0.12764827375E+03  0.41800000000E+01 0.  1.
         -5    1    4    4    0  501  0.41009101820E+02  0.30736138619E+02 -0.18966932038E+03  0.19651559771E+03  0.41800000000E+01 0.  1.
</event>
<event>
11    1  0.7882745E-009  0.1593082E+03  0.7561462E-02  0.1087730E+00
         22   -1    0    0    0    0  0.00000000000E+00  0.00000000000E+00  0.12580396522E+03  0.12580396522E+03  0.00000000000E+00 0. -1.
         22   -1    0    0    0    0 -0.00000000000E+00 -0.00000000000E+00 -0.14035187703E+04  0.14035187703E+04  0.00000000000E+00 0.  1.
         24    2    1    2    0    0  0.28205877308E+01  0.86055166911E+02 -0.60361810084E+03  0.61487167728E+03  0.79365738075E+02 0.  0.
         25    2    1    2    0    0  0.72711786607E+02 -0.11622946018E+03 -0.75245912199E+03  0.77500724606E+03  0.12508081331E+03 0.  0.
        -24    2    1    2    0    0 -0.75532374338E+02  0.30174293273E+02  0.78362417735E+02  0.13944381220E+03  0.81781909361E+02 0.  0.
        -13    1    3    3    0    0  0.10551231480E+02  0.98819264725E+02 -0.56055025176E+03  0.56929180594E+03  0.00000000000E+00 0.  1.
         14    1    3    3    0    0 -0.77306437491E+01 -0.12764097814E+02 -0.43067849087E+02  0.45579871333E+02  0.00000000000E+00 0. -1.
         13    1    5    5    0    0 -0.83702810826E+02  0.47069608314E+02  0.70332166033E+02  0.11903076134E+03  0.00000000000E+00 0. -1.
        -14    1    5    5    0    0  0.81704364882E+01 -0.16895315041E+02  0.80302517026E+01  0.20413050853E+02  0.00000000000E+00 0.  1.
          5    1    4    4  501    0  0.69250137874E+02 -0.83733444690E+01 -0.19398520301E+03  0.20618784125E+03  0.41800000000E+01 0. -1.
         -5    1    4    4    0  501  0.34616487331E+01 -0.10785611572E+03 -0.55847391897E+03  0.56881940480E+03  0.41800000000E+01 0. -1.
</event>
<event>
11    1  0.7882745E-009  0.1451614E+03  0.7561462E-02  0.1101928E+00
         22   -1    0    0    0    0  0.00000000000E+00  0.00000000000E+00  0.17798471396E+04  0.17798471396E+04  0.00000000000E+00 0.  1.
         22   -1    0    0    0    0 -0.00000000000E+00 -0.00000000000E+00 -0.50578704962E+02  0.50578704962E+02  0.00000000000E+00 0.  1.
        -24    2    1    2    0    0 -0.16935309402E+02 -0.69908091606E+02  0.30126735728E+02  0.11225204756E+03  0.80740052018E+02 0.  0.
         25    2    1    2    0    0  0.13944307409E+02  0.92461144842E+02  0.79857552853E+03  0.81370339845E+03  0.12508732499E+03 0.  0.
         24    2    1    2    0    0  0.29910019930E+01 -0.22553053236E+02  0.90056617039E+03  0.90447039856E+03  0.80806486804E+02 0.  0.
        -11    1    5    5    0    0 -0.18018583650E+02 -0.34093239613E+02  0.80571476128E+03  0.80663702797E+03  0.00000000000E+00 0.  1.
         12    1    5    5    0    0  0.21009585643E+02  0.11540186377E+02  0.94851409113E+02  0.97833370591E+02  0.00000000000E+00 0. -1.
         13    1    3    3    0    0  0.28767110997E+02 -0.42150780862E+02  0.31683324756E+00  0.51032689383E+02  0.00000000000E+00 0. -1.
        -14    1    3    3    0    0 -0.45702420399E+02 -0.27757310744E+02  0.29809902480E+02  0.61219358180E+02  0.00000000000E+00 0.  1.
          5    1    4    4  501    0  0.56194693451E+01  0.47729814925E+02  0.78216096767E+02  0.91896375673E+02  0.41800000000E+01 0. -1.
         -5    1    4    4    0  501  0.83248380637E+01  0.44731329917E+02  0.72035943176E+03  0.72180702278E+03  0.41800000000E+01 0. -1.
</event>
<event>
11    1  0.7882745E-009  0.1953516E+03  0.7561462E-02  0.1057860E+00
         22   -1    0    0    0    0  0.00000000000E+00  0.00000000000E+00  0.75465467083E+03  0.75465467083E+03  0.00000000000E+00 0. -1.
         22   -1    0    0    0    0 -0.00000000000E+00 -0.00000000000E+00 -0.27777442692E+03  0.27777442692E+03  0.00000000000E+00 0.  1.
        -24    2    1    2    0    0  0.48273614549E+02  0.12349601293E+03 -0.81830118260E+02  0.17699452385E+03  0.83960027093E+02 0.  0.
         25    2    1    2    0    0 -0.17114314268E+03 -0.19385750853E+03  0.14791799249E+02  0.28764123115E+03  0.12509185278E+03 0.  0.
         24    2    1    2    0    0  0.12286952813E+03  0.70361495604E+02  0.54391856292E+03  0.56779334275E+03  0.80586698447E+02 0.  0.
        -13    1    5    5    0    0 -0.46549022108E+01 -0.54501134833E+00  0.44830179455E-01  0.46869138788E+01  0.00000000000E+00 0.  1.
         14    1    5    5    0    0  0.12752443034E+03  0.70906506952E+02  0.54387373274E+03  0.56310642887E+03  0.00000000000E+00 0. -1.
         13    1    3    3    0    0  0.79537154170E+00  0.33886831611E+02  0.14737455819E+02  0.36961365999E+02  0.00000000000E+00 0. -1.
        -14    1    3    3    0    0  0.47478243008E+02  0.89609181316E+02 -0.96567574079E+02  0.14003315785E+03  0.00000000000E+00 0.  1.
          5    1    4    4  501    0 -0.27908745160E+02  0.71368570580E+01 -0.24050938543E+02  0.37759142335E+02  0.41800000000E+01 0.  1.
         -5    1    4    4    0  501 -0.14323439752E+03 -0.20099436559E+03  0.38842737792E+02  0.24988208881E+03  0.41800000000E+01 0.  1.
</event>
<event>
11    1  0.7882745E-009  0.1566389E+03  0.7561462E-02  0.1090282E+00
         22   -1    0    0    0    0  0.00000000000E+00  0.00000000000E+00  0.90136773167E+03  0.90136773167E+03  0.00000000000E+00 0.  1.
         22   -1    0    0    0    0 -0.00000000000E+00 -0.00000000000E+00 -0.16158727061E+03  0.16158727061E+03  0.00000000000E+00 0.  1.
         24    2    1    2    0    0  0.10117189955E+03  0.63029571532E+02 -0.56874273304E+02  0.15832416474E+03  0.87311958117E+02 0.  0.
         25    2    1    2    0    0 -0.41136155756E+02 -0.28346962529E+02  0.39925446502E+02  0.14049929196E+03  0.12510106382E+03 0.  0.
        -24    2    1    2    0    0 -0.60035743792E+02 -0.34682609003E+02  0.75672928786E+03  0.76413154558E+03  0.80315813763E+02 0.  0.
        -11    1    3    3    0    0  0.83841101710E+01  0.29968126199E+02 -0.50877601634E+02  0.59639854454E+02  0.00000000000E+00 0.  1.
         12    1    3    3    0    0  0.92787789377E+02  0.33061445333E+02 -0.59966716699E+01  0.98684310283E+02  0.00000000000E+00 0. -1.
         11    1    5    5    0    0 -0.63145036826E+02 -0.30480354043E+00  0.32854874566E+03  0.33456190287E+03  0.00000000000E+00 0. -1.
        -12    1    5    5    0    0  0.31092930342E+01 -0.34377805462E+02  0.42818054220E+03  0.42956964270E+03  0.00000000000E+00 0.  1.
          5    1    4    4  501    0  0.10656038248E+01  0.39751437010E+02  0.44897869875E+02  0.60121571629E+02  0.41800000000E+01 0. -1.
         -5    1    4    4    0  501 -0.42201759581E+02 -0.68098399539E+02 -0.49724233728E+01  0.80377720332E+02  0.41800000000E+01 0. -1.
</event>
<event>
11    1  0.7882745E-009  0.1414381E+03  0.7561462E-02  0.1105963E+00
         22   -1    0    0    0    0  0.00000000000E+00  0.00000000000E+00  0.70508042691E+03  0.70508042691E+03  0.00000000000E+00 0.  1.
         22   -1    0    0    0    0 -0.00000000000E+00 -0.00000000000E+00 -0.90378863737E+02  0.90378863737E+02  0.00000000000E+00 0.  1.
         24    2    1    2    0    0  0.17380487942E+02  0.24976280945E+02 -0.13826358591E+02  0.86780438543E+02  0.80086080881E+02 0.  0.
         25    2    1    2    0    0 -0.81117711163E+02 -0.18340093302E+02  0.12641934786E+03  0.19631708016E+03  0.12506839074E+03 0.  0.
        -24    2    1    2    0    0  0.63737223221E+02 -0.66361876425E+01  0.50210857391E+03  0.51236177195E+03  0.79341620548E+02 0.  0.
        -13    1    3    3    0    0  0.88006359295E+01 -0.68070235431E+00 -0.44796650393E+02  0.45658016108E+02  0.00000000000E+00 0.  1.
         14    1    3    3    0    0  0.85798520124E+01  0.25656983299E+02  0.30970291803E+02  0.41122422435E+02  0.00000000000E+00 0. -1.
         13    1    5    5    0    0  0.46441403928E+02  0.16291770295E+02  0.12773951176E+03  0.13689269024E+03  0.00000000000E+00 0. -1.
        -14    1    5    5    0    0  0.17295819293E+02 -0.22927957937E+02  0.37436906215E+03  0.37546908170E+03  0.00000000000E+00 0.  1.
          5    1    4    4  501    0 -0.12871597330E+02 -0.42447587265E+02 -0.63891478208E+01  0.45008546881E+02  0.41800000000E+01 0. -1.
         -5    1    4    4    0  501 -0.68246113833E+02  0.24107493963E+02  0.13280849568E+03  0.15130853328E+03  0.41800000000E+01 0. -1.
</event>
<event>
11    1  0.7882745E-009  0.1447609E+03  0.7561462E-02  0.1102356E+00
         22   -1    0    0    0    0  0.00000000000E+00  0.00000000000E+00  0.80143174047E+03  0.80143174047E+03  0.00000000000E+00 0.  1.
         22   -1    0    0    0    0 -0.00000000000E+00 -0.00000000000E+00 -0.86654023749E+03  0.86654023749E+03  0.00000000000E+00 0.  1.
        -24    2    1    2    0    0 -0.61343742869E+02  0.44871564990E+02 -0.71525819065E+03  0.72366758064E+03  0.79523429566E+02 0.  0.
         25    2    1    2    0    0  0.13081088542E+03 -0.30129048673E+02 -0.82468528295E+02  0.20116693450E+03  0.12509128690E+03 0.  0.
         24    2    1    2    0    0 -0.69467142552E+02 -0.14742516317E+02  0.73261822192E+03  0.74313746282E+03  0.10237579730E+03 0.  0.
        -13    1    5    5    0    0 -0.38401608032E+02 -0.31897595804E+02  0.66410816092E+03  0.66598182372E+03  0.00000000000E+00 0.  1.
         14    1    5    5    0    0 -0.31065534520E+02  0.17155079487E+02  0.68510060996E+02  0.77155639100E+02  0.00000000000E+00 0. -1.
         13    1    3    3    0    0 -0.25881886668E+02 -0.20513805651E+02 -0.29872569962E+03  0.30054572347E+03  0.00000000000E+00 0. -1.
        -14    1    3    3    0    0 -0.35461856202E+02  0.65385370641E+02 -0.41653249102E+03  0.42312185717E+03  0.00000000000E+00 0.  1.
          5    1    4    4  501    0  0.10652367927E+03 -0.63335074898E+02 -0.96897755813E+02  0.15736986191E+03  0.41800000000E+01 0.  1.
         -5    1    4    4    0  501  0.24287206153E+02  0.33206026225E+02  0.14429227517E+02  0.43797072586E+02  0.41800000000E+01 0.  1.
</event>
<event>
11    1  0.7882745E-009  0.1421326E+03  0.7561462E-02  0.1105200E+00
         22   -1    0    0    0    0  0.00000000000E+00  0.00000000000E+00  0.20194789085E+03  0.20194789085E+03  0.00000000000E+00 0. -1.
         22   -1    0    0    0    0 -0.00000000000E+00 -0.00000000000E+00 -0.20918695912E+03  0.20918695912E+03  0.00000000000E+00 0.  1.
        -24    2    1    2    0    0  0.55120250528E+02 -0.25681590810E+02 -0.71793630836E+02  0.12314260093E+03  0.79448024586E+02 0.  0.
         25    2    1    2    0    0 -0.73117272750E+02  0.38520882105E+02 -0.38819480089E+02  0.15486759165E+03  0.12508806888E+03 0.  0.
         24    2    1    2    0    0  0.17997022221E+02 -0.12839291295E+02  0.10337404265E+03  0.13312465740E+03  0.80915026440E+02 0.  0.
        -11    1    5    5    0    0 -0.90305955059E+01  0.28748503986E+02  0.60395257280E+02  0.67495297900E+02  0.00000000000E+00 0.  1.
         12    1    5    5    0    0  0.27027617727E+02 -0.41587795281E+02  0.42978785372E+02  0.65629359500E+02  0.00000000000E+00 0. -1.
         13    1    3    3    0    0 -0.47141284852E+01 -0.29729714264E+01 -0.57239070261E+02  0.57509762048E+02  0.00000000000E+00 0. -1.
        -14    1    3    3    0    0  0.59834379014E+02 -0.22708619384E+02 -0.14554560574E+02  0.65632838882E+02  0.00000000000E+00 0.  1.
          5    1    4    4  501    0  0.18872960749E+02 -0.17478065201E+02  0.19291604255E+02  0.32423907929E+02  0.41800000000E+01 0. -1.
         -5    1    4    4    0  501 -0.91990233499E+02  0.55998947306E+02 -0.58111084345E+02  0.12244368372E+03  0.41800000000E+01 0. -1.
</event>
<event>
11    1  0.7882745E-009  0.1453089E+03  0.7561462E-02  0.1101771E+00
         22   -1    0    0    0    0  0.00000000000E+00  0.00000000000E+00  0.19575567300E+03  0.19575567300E+03  0.00000000000E+00 0. -1.
         22   -1    0    0    0    0 -0.00000000000E+00 -0.00000000000E+00 -0.15286834703E+04  0.15286834703E+04  0.00000000000E+00 0. -1.
         24    2    1    2    0    0  0.30215335932E+02  0.32235654068E+02 -0.12596930844E+04  0.12626496876E+04  0.74198806099E+02 0.  0.
         25    2    1    2    0    0 -0.46978260656E+02 -0.10165893410E+03 -0.22184194207E+03  0.27821276158E+03  0.12508795942E+03 0.  0.
        -24    2    1    2    0    0  0.16762924724E+02  0.69423280030E+02  0.14860722921E+03  0.18357669407E+03  0.80719926760E+02 0.  0.
        -13    1    3    3    0    0 -0.86662470229E+01 -0.52427023867E+01 -0.28040725802E+02  0.29813957626E+02  0.00000000000E+00 0.  1.
         14    1    3    3    0    0  0.38881582955E+02  0.37478356455E+02 -0.12316523586E+04  0.12328357300E+04  0.00000000000E+00 0. -1.
         13    1    5    5    0    0  0.30976128499E+02  0.76023167616E+02  0.14627106577E+03  0.16773272558E+03  0.00000000000E+00 0. -1.
        -14    1    5    5    0    0 -0.14213203775E+02 -0.65998875854E+01  0.23361634418E+01  0.15843968484E+02  0.00000000000E+00 0.  1.
          5    1    4    4  501    0  0.28160117574E+02 -0.86386992343E+02 -0.12610648340E+03  0.15548640527E+03  0.41800000000E+01 0.  1.
         -5    1    4    4    0  501 -0.75138378230E+02 -0.15271941755E+02 -0.95735458661E+02  0.12272635631E+03  0.41800000000E+01 0.  1.
</event>
<event>
11    1  0.7882745E-009  0.1361741E+03  0.7561462E-02  0.1111907E+00
         22   -1    0    0    0    0  0.00000000000E+00  0.00000000000E+00  0.45633355236E+03  0.45633355236E+03  0.00000000000E+00 0.  1.
         22   -1    0    0    0    0 -0.00000000000E+00 -0.00000000000E+00 -0.36970973916E+03  0.36970973916E+03  0.00000000000E+00 0.  1.
        -24    2    1    2    0    0  0.42499865146E+02  0.31877472940E+02 -0.27277807083E+03  0.28990336509E+03  0.82544977729E+02 0.  0.
         25    2    1    2    0    0 -0.21201057760E+02 -0.66432136640E+02 -0.21433874142E+02  0.14481281822E+03  0.12509447522E+03 0.  0.
         24    2    1    2    0    0 -0.21298807386E+02  0.34554663700E+02  0.38083575818E+03  0.39132710821E+03  0.80332850901E+02 0.  0.
        -13    1    5    5    0    0  0.20213278255E+02  0.43069492369E+02  0.19474234677E+03  0.20046979676E+03  0.00000000000E+00 0.  1.
         14    1    5    5    0    0 -0.41512085641E+02 -0.85148286691E+01  0.18609341141E+03  0.19085731145E+03  0.00000000000E+00 0. -1.
         13    1    3    3    0    0  0.20814907850E+02  0.58248424523E+02 -0.20309498233E+03  0.21230570222E+03  0.00000000000E+00 0. -1.
        -14    1    3    3    0    0  0.21684957296E+02 -0.26370951582E+02 -0.69683088501E+02  0.77597662873E+02  0.00000000000E+00 0.  1.
          5    1    4    4  501    0  0.61633486795E+00 -0.35190511246E+02 -0.72652756553E+02  0.80837165865E+02  0.41800000000E+01 0. -1.
         -5    1    4    4    0  501 -0.21817392628E+02 -0.31241625394E+02  0.51218882410E+02  0.63975652351E+02  0.41800000000E+01 0. -1.
</event>
<event>
11    1  0.7882745E-009  0.2336838E+03  0.7561462E-02  0.1032969E+00
         22   -1    0    0    0    0  0.00000000000E+00  0.00000000000E+00  0.21319821322E+04  0.21319821322E+04  0.00000000000E+00 0.  1.
         22   -1    0    0    0    0 -0.00000000000E+00 -0.00000000000E+00 -0.35399045789E+03  0.35399045789E+03  0.00000000000E+00 0.  1.
        -24    2    1    2    0    0 -0.89116194352E+02 -0.17576608390E+03 -0.29484096185E+03  0.36343623273E+03  0.79493962865E+02 0.  0.
         25    2    1    2    0    0  0.80932373736E+02  0.18662945601E+03  0.57693198445E+03  0.62440034709E+03  0.12507867846E+03 0.  0.
         24    2    1    2    0    0  0.81838206160E+01 -0.10863372109E+02  0.14959006517E+04  0.14981360102E+04  0.80670674212E+02 0.  0.
        -11    1    5    5    0    0  0.36123452329E+02  0.69381122794E+01  0.11651243963E+04  0.11657048941E+04  0.00000000000E+00 0.  1.
         12    1    5    5    0    0 -0.27939631713E+02 -0.17801484388E+02  0.33077625533E+03  0.33243111611E+03  0.00000000000E+00 0. -1.
         11    1    3    3    0    0 -0.15229067850E+02 -0.26031550033E+01 -0.24018770224E+01  0.15635534426E+02  0.00000000000E+00 0. -1.
        -12    1    3    3    0    0 -0.73887126502E+02 -0.17316292890E+03 -0.29243908483E+03  0.34780069830E+03  0.00000000000E+00 0.  1.
          5    1    4    4  501    0  0.98613663542E+02  0.17298169293E+03  0.40872847270E+03  0.45466884380E+03  0.41800000000E+01 0. -1.
         -5    1    4    4    0  501 -0.17681289805E+02  0.13647763075E+02  0.16820351175E+03  0.16973150329E+03  0.41800000000E+01 0. -1.
</event>
<event>
11    1  0.7882745E-009  0.1439491E+03  0.7561462E-02  0.1103227E+00
         22   -1    0    0    0    0  0.00000000000E+00  0.00000000000E+00  0.71846672807E+03  0.71846672807E+03  0.00000000000E+00 0.  1.
         22   -1    0    0    0    0 -0.00000000000E+00 -0.00000000000E+00 -0.48808657525E+03  0.48808657525E+03  0.00000000000E+00 0. -1.
         24    2    1    2    0    0  0.17151798755E+02 -0.67574385586E+02 -0.41880405557E+03  0.43238647000E+03  0.81858052061E+02 0.  0.
         25    2    1    2    0    0  0.30209695626E+01  0.98706469759E+02  0.47979347126E+02  0.16643518785E+03  0.12508621257E+03 0.  0.
        -24    2    1    2    0    0 -0.20172768318E+02 -0.31132084173E+02  0.60120486126E+03  0.60773164547E+03  0.80711340346E+02 0.  0.
        -11    1    3    3    0    0 -0.28181955003E+02 -0.52298764586E+02 -0.24727661971E+03  0.25431301583E+03  0.00000000000E+00 0.  1.
         12    1    3    3    0    0  0.45333753758E+02 -0.15275621000E+02 -0.17152743586E+03  0.17807345417E+03  0.00000000000E+00 0. -1.
         13    1    5    5    0    0 -0.19776329061E+02  0.23116737227E+02  0.31223184136E+03  0.31371039111E+03  0.00000000000E+00 0. -1.
        -14    1    5    5    0    0 -0.39643925666E+00 -0.54248821400E+02  0.28897301990E+03  0.29402125436E+03  0.00000000000E+00 0.  1.
          5    1    4    4  501    0 -0.34678207810E+02  0.60135740969E+02  0.78054167265E+02  0.10454095306E+03  0.41800000000E+01 0. -1.
         -5    1    4    4    0  501  0.37699177372E+02  0.38570728790E+02 -0.30074820140E+02  0.61894234791E+02  0.41800000000E+01 0. -1.
</event>
<event>
11    1  0.7882745E-009  0.1752863E+03  0.7561462E-02  0.1073521E+00
         22   -1    0    0    0    0  0.00000000000E+00  0.00000000000E+00  0.75362515095E+02  0.75362515095E+02  0.00000000000E+00 0.  1.
         22   -1    0    0    0    0 -0.00000000000E+00 -0.00000000000E+00 -0.15758142111E+04  0.15758142111E+04  0.00000000000E+00 0.  1.
        -24    2    1    2    0    0 -0.11737058776E+03 -0.36600931780E+02 -0.12456094924E+04  0.12542598835E+04  0.80680634846E+02 0.  0.
         25    2    1    2    0    0  0.13370618743E+03 -0.26885927002E+02 -0.21050916418E+03  0.28028820473E+03  0.12508865609E+03 0.  0.
         24    2    1    2    0    0 -0.16335599668E+02  0.63486858782E+02 -0.44333039419E+02  0.11662863790E+03  0.85670226689E+02 0.  0.
        -13    1    5    5    0    0  0.50903995217E+01  0.20039300992E+02  0.24752098610E+02  0.32251389694E+02  0.00000000000E+00 0.  1.
         14    1    5    5    0    0 -0.21425999190E+02  0.43447557790E+02 -0.69085138029E+02  0.84377248211E+02  0.00000000000E+00 0. -1.
         11    1    3    3    0    0  0.10109873607E+02  0.69908029373E+01 -0.11194877118E+03  0.11262152653E+03  0.00000000000E+00 0. -1.
        -12    1    3    3    0    0 -0.12748046137E+03 -0.43591734717E+02 -0.11336607212E+04  0.11416383570E+04  0.00000000000E+00 0.  1.
          5    1    4    4  501    0  0.19657664112E+02 -0.46839181364E+02 -0.15174446176E+02  0.53179590878E+02  0.41800000000E+01 0. -1.
         -5    1    4    4    0  501  0.11404852332E+03  0.19953254363E+02 -0.19533471800E+03  0.22710861385E+03  0.41800000000E+01 0. -1.
</event>
<event>
11    1  0.7882745E-009  0.1942372E+03  0.7561462E-02  0.1058675E+00
         22   -1    0    0    0    0  0.00000000000E+00  0.00000000000E+00  0.49450962935E+03  0.49450962935E+03  0.00000000000E+00 0.  1.
         22   -1    0    0    0    0 -0.00000000000E+00 -0.00000000000E+00 -0.25919310245E+03  0.25919310245E+03  0.00000000000E+00 0. -1.
        -24    2    1    2    0    0 -0.54994971101E+01 -0.45371877265E+02 -0.15646086499E+03  0.18292813515E+03  0.83029203548E+02 0.  0.
         25    2    1    2    0    0  0.45753017676E+02  0.17739567996E+03  0.11111329203E+03  0.24810438898E+03  0.12508820197E+03 0.  0.
         24    2    1    2    0    0 -0.40253520566E+02 -0.13202380269E+03  0.28066409986E+03  0.32267020767E+03  0.79329033598E+02 0.  0.
        -11    1    5    5    0    0 -0.52068710341E+02 -0.84994483716E+02  0.12644851525E+03  0.16101068247E+03  0.00000000000E+00 0.  1.
         12    1    5    5    0    0  0.11815189775E+02 -0.47029318976E+02  0.15421558461E+03  0.16165952521E+03  0.00000000000E+00 0. -1.
         11    1    3    3    0    0  0.23654915204E+02 -0.54469286630E+02 -0.12833934437E+03  0.14141232447E+03  0.00000000000E+00 0. -1.
        -12    1    3    3    0    0 -0.29154412314E+02  0.90974093651E+01 -0.28121520626E+02  0.41515810685E+02  0.00000000000E+00 0.  1.
          5    1    4    4  501    0  0.83986586958E+02  0.81357898558E+02  0.45171402290E+02  0.12542241598E+03  0.41800000000E+01 0.  1.
         -5    1    4    4    0  501 -0.38233569282E+02  0.96037781399E+02  0.65941889740E+02  0.12268197300E+03  0.41800000000E+01 0.  1.
</event>
<event>
11    1  0.7882745E-009  0.1402866E+03  0.7561462E-02  0.1107239E+00
         22   -1    0    0    0    0  0.00000000000E+00  0.00000000000E+00  0.16564264218E+04  0.16564264218E+04  0.00000000000E+00 0. -1.
         22   -1    0    0    0    0 -0.00000000000E+00 -0.00000000000E+00 -0.53739209611E+03  0.53739209611E+03  0.00000000000E+00 0.  1.
         24    2    1    2    0    0  0.51958833857E+02  0.36558507373E+02 -0.51059229608E+03  0.52089440133E+03  0.81180290936E+02 0.  0.
         25    2    1    2    0    0 -0.79700789065E+02  0.59820536643E+01  0.25611252826E+03  0.29602200663E+03  0.12508957005E+03 0.  0.
        -24    2    1    2    0    0  0.27741955208E+02 -0.42540561037E+02  0.13735140935E+04  0.13769021099E+04  0.82092264414E+02 0.  0.
        -11    1    3    3    0    0  0.18964314252E+02  0.34785361261E+02 -0.82408103132E+02  0.91437202685E+02  0.00000000000E+00 0.  1.
         12    1    3    3    0    0  0.32994519604E+02  0.17731461121E+01 -0.42818419295E+03  0.42945719864E+03  0.00000000000E+00 0. -1.
         13    1    5    5    0    0 -0.69246697407E+01 -0.14041349905E+02  0.10675053894E+04  0.10676201885E+04  0.00000000000E+00 0. -1.
        -14    1    5    5    0    0  0.34666624949E+02 -0.28499211133E+02  0.30600870409E+03  0.30928192139E+03  0.00000000000E+00 0.  1.
          5    1    4    4  501    0  0.11596289148E+02  0.18251782761E+02 -0.18221305247E+01  0.22099639265E+02  0.41800000000E+01 0. -1.
         -5    1    4    4    0  501 -0.91297078213E+02 -0.12269729097E+02  0.25793465878E+03  0.27392236737E+03  0.41800000000E+01 0. -1.
</event>
<event>
11    1  0.7882745E-009  0.3442055E+03  0.7561462E-02  0.9830439E-01
         22   -1    0    0    0    0  0.00000000000E+00  0.00000000000E+00  0.84821155321E+03  0.84821155321E+03  0.00000000000E+00 0.  1.
         22   -1    0    0    0    0 -0.00000000000E+00 -0.00000000000E+00 -0.64475564111E+03  0.64475564111E+03  0.00000000000E+00 0. -1.
         24    2    1    2    0    0  0.24396338059E+03  0.15786698028E+03 -0.30978148750E+03  0.43256199057E+03  0.81885231619E+02 0.  0.
         25    2    1    2    0    0 -0.29400738711E+03 -0.29105528739E+03 -0.84759293010E+02  0.44043684821E+03  0.12508779125E+03 0.  0.
        -24    2    1    2    0    0  0.50044006515E+02  0.13318830712E+03  0.59799669262E+03  0.61996835553E+03  0.80729113349E+02 0.  0.
        -11    1    3    3    0    0  0.16844218073E+02  0.39206954701E+02 -0.24965710606E+02  0.49438847938E+02  0.00000000000E+00 0.  1.
         12    1    3    3    0    0  0.22711916252E+03  0.11866002558E+03 -0.28481577689E+03  0.38312314263E+03  0.00000000000E+00 0. -1.
         13    1    5    5    0    0  0.33031869031E+02  0.15252771874E+02  0.72323031434E+02  0.80959077918E+02  0.00000000000E+00 0. -1.
        -14    1    5    5    0    0  0.17012137484E+02  0.11793553524E+03  0.52567366118E+03  0.53900927762E+03  0.00000000000E+00 0.  1.
          5    1    4    4  501    0 -0.23381866819E+03 -0.28048943240E+03 -0.97268246325E+02  0.37792072637E+03  0.41800000000E+01 0. -1.
         -5    1    4    4    0  501 -0.60188718919E+02 -0.10565854996E+02  0.12508953315E+02  0.62516121840E+02  0.41800000000E+01 0. -1.
</event>
<event>
11    1  0.7882745E-009  0.1531885E+03  0.7561462E-02  0.1093665E+00
         22   -1    0    0    0    0  0.00000000000E+00  0.00000000000E+00  0.97760522366E+03  0.97760522366E+03  0.00000000000E+00 0.  1.
         22   -1    0    0    0    0 -0.00000000000E+00 -0.00000000000E+00 -0.32462897838E+03  0.32462897838E+03  0.00000000000E+00 0.  1.
        -24    2    1    2    0    0 -0.43988760500E+02 -0.24951029240E+01 -0.24149963351E+03  0.25878425875E+03  0.81890066575E+02 0.  0.
         25    2    1    2    0    0  0.11765993787E+03  0.47388700493E+02  0.42346656438E+02  0.18311588639E+03  0.12509451876E+03 0.  0.
         24    2    1    2    0    0 -0.73671177367E+02 -0.44893597569E+02  0.85212922235E+03  0.86033405690E+03  0.81287147815E+02 0.  0.
        -11    1    5    5    0    0 -0.88316573450E+02 -0.29995075685E+02  0.58496606153E+03  0.59235531132E+03  0.00000000000E+00 0.  1.
         12    1    5    5    0    0  0.14645396083E+02 -0.14898521883E+02  0.26716316082E+03  0.26797874558E+03  0.00000000000E+00 0. -1.
         11    1    3    3    0    0  0.14214021979E+02  0.82355551199E+01 -0.14249332240E+03  0.14343712810E+03  0.00000000000E+00 0. -1.
        -12    1    3    3    0    0 -0.58202782479E+02 -0.10730658044E+02 -0.99006311116E+02  0.11534713066E+03  0.00000000000E+00 0.  1.
          5    1    4    4  501    0  0.13393395866E+03  0.67761054872E+02  0.26978099093E+02  0.15256197452E+03  0.41800000000E+01 0. -1.
         -5    1    4    4    0  501 -0.16274020788E+02 -0.20372354380E+02  0.15368557345E+02  0.30553911868E+02  0.41800000000E+01 0. -1.
</event>
<event>
11    1  0.7882745E-009  0.1347306E+03  0.7561462E-02  0.1113590E+00
         22   -1    0    0    0    0  0.00000000000E+00  0.00000000000E+00  0.82667808691E+03  0.82667808691E+03  0.00000000000E+00 0.  1.
         22   -1    0    0    0    0 -0.00000000000E+00 -0.00000000000E+00 -0.20387980717E+03  0.20387980717E+03  0.00000000000E+00 0.  1.
         24    2    1    2    0    0 -0.46361377947E+02  0.35855555979E+02 -0.14124405323E+03  0.17373530613E+03  0.82456508317E+02 0.  0.
         25    2    1    2    0    0  0.18165529470E+00 -0.31168292042E+01  0.47999885762E+02  0.13402129835E+03  0.12509185327E+03 0.  0.
        -24    2    1    2    0    0  0.46179722652E+02 -0.32738726775E+02  0.71604244721E+03  0.72280128961E+03  0.80749780443E+02 0.  0.
        -11    1    3    3    0    0 -0.60626904399E+02  0.69915229869E+01 -0.12150197274E+03  0.13596776203E+03  0.00000000000E+00 0.  1.
         12    1    3    3    0    0  0.14265526453E+02  0.28864032992E+02 -0.19742080487E+02  0.37767544102E+02  0.00000000000E+00 0. -1.
         13    1    5    5    0    0 -0.13136110710E+02 -0.27644956488E+01  0.38070709320E+03  0.38094368436E+03  0.00000000000E+00 0. -1.
        -14    1    5    5    0    0  0.59315833362E+02 -0.29974231126E+02  0.33533535400E+03  0.34185760525E+03  0.00000000000E+00 0.  1.
          5    1    4    4  501    0  0.45204666454E+02  0.35157686818E+02 -0.55872737524E+00  0.57422202918E+02  0.41800000000E+01 0. -1.
         -5    1    4    4    0  501 -0.45023011159E+02 -0.38274516022E+02  0.48558613137E+02  0.76599095428E+02  0.41800000000E+01 0. -1.
</event>
<event>
11    1  0.7882745E-009  0.1476641E+03  0.7561462E-02  0.1099290E+00
         22   -1    0    0    0    0  0.00000000000E+00  0.00000000000E+00  0.59132747065E+02  0.59132747065E+02  0.00000000000E+00 0. -1.
         22   -1    0    0    0    0 -0.00000000000E+00 -0.00000000000E+00 -0.14195399682E+04  0.14195399682E+04  0.00000000000E+00 0. -1.
        -24    2    1    2    0    0 -0.76058031808E+02  0.74678306459E+01 -0.75919786691E+03  0.76734595005E+03  0.81226924352E+02 0.  0.
         25    2    1    2    0    0  0.83721318689E+02  0.63865247100E+01 -0.60476368115E+03  0.62324668900E+03  0.12508908192E+03 0.  0.
         24    2    1    2    0    0 -0.76632868816E+01 -0.13854355356E+02  0.35543269673E+01  0.88080076170E+02  0.86572498230E+02 0.  0.
        -13    1    5    5    0    0 -0.42770318799E+02 -0.99239484681E+01 -0.17145860484E+02  0.47135607083E+02  0.00000000000E+00 0.  1.
         14    1    5    5    0    0  0.35107031917E+02 -0.39304068878E+01  0.20700187451E+02  0.40944469087E+02  0.00000000000E+00 0. -1.
         13    1    3    3    0    0 -0.47046474788E+02  0.38324014991E+02 -0.58209580931E+03  0.58525005949E+03  0.00000000000E+00 0. -1.
        -14    1    3    3    0    0 -0.29011557020E+02 -0.30856184345E+02 -0.17710205760E+03  0.18209589056E+03  0.00000000000E+00 0.  1.
          5    1    4    4  501    0 -0.19215911994E+02 -0.22331174488E+02 -0.49325718082E+02  0.57605828630E+02  0.41800000000E+01 0. -1.
         -5    1    4    4    0  501  0.10293723068E+03  0.28717699198E+02 -0.55543796307E+03  0.56564086037E+03  0.41800000000E+01 0. -1.
</event>
<event>
11    1  0.7882745E-009  0.1499363E+03  0.7561462E-02  0.1096944E+00
         22   -1    0    0    0    0  0.00000000000E+00  0.00000000000E+00  0.99163658660E+03  0.99163658660E+03  0.00000000000E+00 0.  1.
         22   -1    0    0    0    0 -0.00000000000E+00 -0.00000000000E+00 -0.19296747700E+03  0.19296747700E+03  0.00000000000E+00 0. -1.
         24    2    1    2    0    0  0.22543524022E+02  0.72455241187E+02 -0.48978797428E+02  0.11922990089E+03  0.77838770665E+02 0.  0.
         25    2    1    2    0    0 -0.25706141671E+02 -0.90103531416E+02 -0.49856108186E+02  0.16405179730E+03  0.12509160076E+03 0.  0.
        -24    2    1    2    0    0  0.31626176488E+01  0.17648290228E+02  0.89750401522E+03  0.90132236540E+03  0.80914057773E+02 0.  0.
        -11    1    3    3    0    0 -0.20614287330E+02  0.43355118090E+02 -0.36631790080E+00  0.48007804527E+02  0.00000000000E+00 0.  1.
         12    1    3    3    0    0  0.43157811352E+02  0.29100123097E+02 -0.48612479527E+02  0.71222096366E+02  0.00000000000E+00 0. -1.
         13    1    5    5    0    0  0.78026348816E+01 -0.31093030421E+02  0.26637676887E+03  0.26829878987E+03  0.00000000000E+00 0. -1.
        -14    1    5    5    0    0 -0.46400172328E+01  0.48741320650E+02  0.63112724635E+03  0.63302357554E+03  0.00000000000E+00 0.  1.
          5    1    4    4  501    0 -0.92350461988E+00 -0.11561626420E+03 -0.54589620429E+02  0.12792760635E+03  0.41800000000E+01 0.  1.
         -5    1    4    4    0  501 -0.24782637051E+02  0.25512732786E+02  0.47335122420E+01  0.36124190947E+02  0.41800000000E+01 0.  1.
</event>
<event>
11    1  0.7882745E-009  0.1471380E+03  0.7561462E-02  0.1099840E+00
         22   -1    0    0    0    0  0.00000000000E+00  0.00000000000E+00  0.16421339719E+03  0.16421339719E+03  0.00000000000E+00 0. -1.
         22   -1    0    0    0    0 -0.00000000000E+00 -0.00000000000E+00 -0.87859787947E+03  0.87859787947E+03  0.00000000000E+00 0.  1.
         24    2    1    2    0    0 -0.28909353746E+02 -0.38972508039E+02 -0.71506232495E+03  0.72079799477E+03  0.76687766861E+02 0.  0.
         25    2    1    2    0    0 -0.40944670479E+02  0.74584512581E+02 -0.91197236052E+02  0.17664391552E+03  0.12508725543E+03 0.  0.
        -24    2    1    2    0    0  0.69854024225E+02 -0.35612004542E+02  0.91875078723E+02  0.14536936636E+03  0.80891427342E+02 0.  0.
        -11    1    3    3    0    0  0.24738426579E+02 -0.10151242635E+02 -0.14089587516E+03  0.14341089607E+03  0.00000000000E+00 0.  1.
         12    1    3    3    0    0 -0.53647780324E+02 -0.28821265404E+02 -0.57416644980E+03  0.57738709870E+03  0.00000000000E+00 0. -1.
         11    1    5    5    0    0  0.79978724434E+02 -0.39630364406E+02  0.98255544034E+02  0.13274529776E+03  0.00000000000E+00 0. -1.
        -12    1    5    5    0    0 -0.10124700209E+02  0.40183598640E+01 -0.63804653110E+01  0.12624068595E+02  0.00000000000E+00 0.  1.
          5    1    4    4  501    0 -0.33776751936E+02  0.10633886563E+03 -0.90650689932E+02  0.14381878633E+03  0.41800000000E+01 0. -1.
         -5    1    4    4    0  501 -0.71679185435E+01 -0.31754353053E+02 -0.54654611931E+00  0.32825129196E+02  0.41800000000E+01 0. -1.
</event>
<event>
11    1  0.7882745E-009  0.1824417E+03  0.7561462E-02  0.1067685E+00
         22   -1    0    0    0    0  0.00000000000E+00  0.00000000000E+00  0.17122839157E+04  0.17122839157E+04  0.00000000000E+00 0.  1.
         22   -1    0    0    0    0 -0.00000000000E+00 -0.00000000000E+00 -0.12786291454E+03  0.12786291454E+03  0.00000000000E+00 0.  1.
        -24    2    1    2    0    0  0.52875219607E+02  0.45808559792E+02 -0.78772786264E+02  0.13075845832E+03  0.77449400053E+02 0.  0.
         25    2    1    2    0    0 -0.15514898930E+03  0.32238431435E+02  0.55312807185E+03  0.58881965245E+03  0.12508954355E+03 0.  0.
         24    2    1    2    0    0  0.10227376969E+03 -0.78046991227E+02  0.11100657156E+04  0.11205687195E+04  0.82928314392E+02 0.  0.
        -11    1    5    5    0    0  0.10208733425E+03 -0.38126224359E+02  0.91450188301E+03  0.92097183824E+03  0.00000000000E+00 0.  1.
         12    1    5    5    0    0  0.18643543894E+00 -0.39920766868E+02  0.19556383255E+03  0.19959688121E+03  0.00000000000E+00 0. -1.
         11    1    3    3    0    0  0.61997856013E+02  0.36606330051E+02 -0.26207739365E+02  0.76619861346E+02  0.00000000000E+00 0. -1.
        -12    1    3    3    0    0 -0.91226364065E+01  0.92022297410E+01 -0.52565046898E+02  0.54138596977E+02  0.00000000000E+00 0.  1.
          5    1    4    4  501    0 -0.37702974477E+02  0.68416132726E+02  0.23928097827E+03  0.25174419649E+03  0.41800000000E+01 0.  1.
         -5    1    4    4    0  501 -0.11744601482E+03 -0.36177701291E+02  0.31384709358E+03  0.33707545597E+03  0.41800000000E+01 0.  1.
</event>
<event>
11    1  0.7882745E-009  0.1563665E+03  0.7561462E-02  0.1090545E+00
         22   -1    0    0    0    0  0.00000000000E+00  0.00000000000E+00  0.69177878079E+03  0.69177878079E+03  0.00000000000E+00 0.  1.
         22   -1    0    0    0    0 -0.00000000000E+00 -0.00000000000E+00 -0.90577015271E+02  0.90577015271E+02  0.00000000000E+00 0. -1.
         24    2    1    2    0    0 -0.29184619524E+02 -0.28413618292E+02 -0.19171634484E+02  0.92882857788E+02  0.81244064281E+02 0.  0.
         25    2    1    2    0    0 -0.50454409664E+02  0.81235187099E+02  0.22445940357E+03  0.27418267400E+03  0.12509720938E+03 0.  0.
        -24    2    1    2    0    0  0.79639029188E+02 -0.52821568807E+02  0.39591399644E+03  0.41529026427E+03  0.81151820215E+02 0.  0.
        -11    1    3    3    0    0 -0.15166883686E+02 -0.18261404611E+02  0.31439039302E+02  0.39394497729E+02  0.00000000000E+00 0.  1.
         12    1    3    3    0    0 -0.14017735838E+02 -0.10152213681E+02 -0.50610673786E+02  0.53488360059E+02  0.00000000000E+00 0. -1.
         13    1    5    5    0    0 -0.27300075272E+01 -0.10435700526E+02  0.24406842567E+01  0.11059553617E+02  0.00000000000E+00 0. -1.
        -14    1    5    5    0    0  0.82369036715E+02 -0.42385868281E+02  0.39347331218E+03  0.40423071066E+03  0.00000000000E+00 0.  1.
          5    1    4    4  501    0 -0.24904795914E+02  0.54821458841E+02  0.22909034345E+03  0.23690820811E+03  0.41800000000E+01 0.  1.
         -5    1    4    4    0  501 -0.25549613749E+02  0.26413728258E+02 -0.46309398802E+01  0.37274465890E+02  0.41800000000E+01 0.  1.
</event>
<event>
11    1  0.7882745E-009  0.1489599E+03  0.7561462E-02  0.1097946E+00
         22   -1    0    0    0    0  0.00000000000E+00  0.00000000000E+00  0.14534255017E+04  0.14534255017E+04  0.00000000000E+00 0. -1.
         22   -1    0    0    0    0 -0.00000000000E+00 -0.00000000000E+00 -0.16251351383E+03  0.16251351383E+03  0.00000000000E+00 0.  1.
         24    2    1    2    0    0  0.23749619711E+02  0.77198170903E+02 -0.11388130046E+03  0.15396344324E+03  0.64901380822E+02 0.  0.
         25    2    1    2    0    0 -0.80830014106E+02 -0.59958558475E+02  0.21655241735E+03  0.26956358164E+03  0.12506420419E+03 0.  0.
        -24    2    1    2    0    0  0.57080394395E+02 -0.17239612428E+02  0.11882408710E+04  0.11924119907E+04  0.79841169384E+02 0.  0.
        -11    1    3    3    0    0  0.30116178221E+01  0.12468513549E+02 -0.74110796831E+02  0.75212657705E+02  0.00000000000E+00 0.  1.
         12    1    3    3    0    0  0.20738001889E+02  0.64729657353E+02 -0.39770503627E+02  0.78750785533E+02  0.00000000000E+00 0. -1.
         13    1    5    5    0    0  0.39423881234E+01 -0.28756363251E+02  0.78324812280E+03  0.78378574415E+03  0.00000000000E+00 0. -1.
        -14    1    5    5    0    0  0.53138006272E+02  0.11516750823E+02  0.40499274819E+03  0.40862624652E+03  0.00000000000E+00 0.  1.
          5    1    4    4  501    0 -0.68847704312E+01 -0.61553593186E+02  0.17260328299E+03  0.18342739871E+03  0.41800000000E+01 0.  1.
         -5    1    4    4    0  501 -0.73945243675E+02  0.15950347111E+01  0.43949134356E+02  0.86136182923E+02  0.41800000000E+01 0.  1.
</event>
<event>
11    1  0.7882745E-009  0.1400575E+03  0.7561462E-02  0.1107494E+00
         22   -1    0    0    0    0  0.00000000000E+00  0.00000000000E+00  0.33688372420E+02  0.33688372420E+02  0.00000000000E+00 0.  1.
         22   -1    0    0    0    0 -0.00000000000E+00 -0.00000000000E+00 -0.22008369042E+04  0.22008369042E+04  0.00000000000E+00 0.  1.
         24    2    1    2    0    0 -0.61578972681E+02  0.48288146511E+01 -0.15862497128E+04  0.15895710954E+04  0.82053815977E+02 0.  0.
         25    2    1    2    0    0  0.68200642043E+02 -0.23429207606E+02 -0.52632394982E+03  0.54576962842E+03  0.12508929532E+03 0.  0.
        -24    2    1    2    0    0 -0.66216693622E+01  0.18600392955E+02 -0.54574869125E+02  0.99184552746E+02  0.80432195296E+02 0.  0.
        -13    1    3    3    0    0 -0.25916983348E+02 -0.27381510297E+02 -0.11614804498E+04  0.11620921961E+04  0.00000000000E+00 0.  1.
         14    1    3    3    0    0 -0.35661989332E+02  0.32210324948E+02 -0.42476926304E+03  0.42747889930E+03  0.00000000000E+00 0. -1.
         11    1    5    5    0    0  0.13398054544E+01  0.32590654197E+01 -0.73482750127E+02  0.73567188014E+02  0.00000000000E+00 0. -1.
        -12    1    5    5    0    0 -0.79614748166E+01  0.15341327535E+02  0.18907881002E+02  0.25617364731E+02  0.00000000000E+00 0.  1.
          5    1    4    4  501    0  0.99727151021E+02 -0.29642381941E+01 -0.29673801236E+03  0.31308978223E+03  0.41800000000E+01 0.  1.
         -5    1    4    4    0  501 -0.31526508978E+02 -0.20464969411E+02 -0.22958593747E+03  0.23267984619E+03  0.41800000000E+01 0.  1.
</event>
<event>
11    1  0.9913710E-009  0.2008278E+03  0.7561462E-02  0.1053940E+00
         22   -1    0    0    0    0  0.00000000000E+00  0.00000000000E+00  0.64407695512E+03  0.64407695512E+03  0.00000000000E+00 0.  1.
         22   -1    0    0    0    0 -0.00000000000E+00 -0.00000000000E+00 -0.79978857597E+03  0.79978857597E+03  0.00000000000E+00 0.  1.
         24    2    1    2    0    0  0.51666769508E+02 -0.43653365743E+02 -0.59194085425E+03  0.60124046136E+03  0.80752993954E+02 0.  0.
         25    2    1    2    0    0  0.67336303388E+02 -0.65650083808E+02 -0.15749660441E+03  0.22202751680E+03  0.12508767548E+03 0.  0.
        -24    2    1    2    0    0 -0.11900307290E+03  0.10930344955E+03  0.59372583781E+03  0.62059755293E+03  0.80758756699E+02 0.  0.
        -13    1    3    3    0    0  0.50608415081E+02 -0.62470508006E+02 -0.54067885543E+03  0.54662363721E+03  0.00000000000E+00 0.  1.
         14    1    3    3    0    0  0.10583544264E+01  0.18817142263E+02 -0.51261998817E+02  0.54616824145E+02  0.00000000000E+00 0. -1.
         11    1    5    5    0    0 -0.59348087239E+02  0.40254217253E+01  0.18391601599E+03  0.19329640559E+03  0.00000000000E+00 0. -1.
        -12    1    5    5    0    0 -0.59654985657E+02  0.10527802783E+03  0.40980982182E+03  0.42730114734E+03  0.00000000000E+00 0.  1.
          5    1    4    4  501    0  0.48897130836E+02 -0.86555413581E+02 -0.50892576457E+02  0.11175999178E+03  0.41800000000E+01 0.  1.
         -5    1    4    4    0  501  0.18439172552E+02  0.20905329773E+02 -0.10660402795E+03  0.11026752502E+03  0.41800000000E+01 0.  1.
</event>
<event>
11    1  0.7882745E-009  0.1610923E+03  0.7561462E-02  0.1086054E+00
         22   -1    0    0    0    0  0.00000000000E+00  0.00000000000E+00  0.53498612335E+03  0.53498612335E+03  0.00000000000E+00 0.  1.
         22   -1    0    0    0    0 -0.00000000000E+00 -0.00000000000E+00 -0.13181042291E+04  0.13181042291E+04  0.00000000000E+00 0. -1.
         24    2    1    2    0    0  0.43638024451E+02 -0.13831528403E+03 -0.91285714773E+03  0.92786205340E+03  0.81144457650E+02 0.  0.
         25    2    1    2    0    0 -0.85854190527E+01  0.36916442958E+02 -0.37803663150E+03  0.39999433813E+03  0.12508893873E+03 0.  0.
        -24    2    1    2    0    0 -0.35052605398E+02  0.10139884107E+03  0.50777567349E+03  0.52523396091E+03  0.80772328092E+02 0.  0.
        -11    1    3    3    0    0  0.33044966784E+02 -0.82885815499E+02 -0.31640899496E+03  0.32875017922E+03  0.00000000000E+00 0.  1.
         12    1    3    3    0    0  0.10593057667E+02 -0.55429468533E+02 -0.59644815277E+03  0.59911187419E+03  0.00000000000E+00 0. -1.
         13    1    5    5    0    0  0.24866313581E+02  0.34618968486E+02  0.12440244817E+03  0.13150199862E+03  0.00000000000E+00 0. -1.
        -14    1    5    5    0    0 -0.59918918980E+02  0.66779872587E+02  0.38337322533E+03  0.39373196229E+03  0.00000000000E+00 0.  1.
          5    1    4    4  501    0 -0.49895261460E+02 -0.12361211010E+02 -0.80824368664E+02  0.95876940000E+02  0.41800000000E+01 0.  1.
         -5    1    4    4    0  501  0.41309842407E+02  0.49277653969E+02 -0.29721226284E+03  0.30411739813E+03  0.41800000000E+01 0.  1.
</event>
<event>
11    1  0.7882745E-009  0.1850026E+03  0.7561462E-02  0.1065667E+00
         22   -1    0    0    0    0  0.00000000000E+00  0.00000000000E+00  0.20308217136E+03  0.20308217136E+03  0.00000000000E+00 0. -1.
         22   -1    0    0    0    0 -0.00000000000E+00 -0.00000000000E+00 -0.50692718776E+03  0.50692718776E+03  0.00000000000E+00 0.  1.
        -24    2    1    2    0    0 -0.14701621859E+01  0.22316307136E+02 -0.34970187331E+03  0.35947588282E+03  0.80195580838E+02 0.  0.
         25    2    1    2    0    0  0.75260001144E+02 -0.12462434675E+03  0.56392887574E+02  0.20005498477E+03  0.12508614466E+03 0.  0.
         24    2    1    2    0    0 -0.73789838959E+02  0.10230803962E+03 -0.10536030657E+02  0.15047849154E+03  0.81368871007E+02 0.  0.
        -11    1    5    5    0    0  0.16978278427E+02  0.23304578130E+02  0.45919854425E+01  0.29196774316E+02  0.00000000000E+00 0.  1.
         12    1    5    5    0    0 -0.90768117385E+02  0.79003461488E+02 -0.15128016099E+02  0.12128171722E+03  0.00000000000E+00 0. -1.
         13    1    3    3    0    0  0.22221938659E+02  0.25164824902E+02 -0.59685932887E+02  0.68479877006E+02  0.00000000000E+00 0. -1.
        -14    1    3    3    0    0 -0.23692100845E+02 -0.28485177656E+01 -0.29001594043E+03  0.29099600581E+03  0.00000000000E+00 0.  1.
          5    1    4    4  501    0 -0.11898287987E+02 -0.43382132137E+02 -0.28750097186E+02  0.53550155313E+02  0.41800000000E+01 0.  1.
         -5    1    4    4    0  501  0.87158289131E+02 -0.81242214616E+02  0.85142984760E+02  0.14650482946E+03  0.41800000000E+01 0.  1.
</event>
<event>
11    1  0.7882745E-009  0.1327863E+03  0.7561462E-02  0.1115892E+00
         22   -1    0    0    0    0  0.00000000000E+00  0.00000000000E+00  0.41819382316E+03  0.41819382316E+03  0.00000000000E+00 0.  1.
         22   -1    0    0    0    0 -0.00000000000E+00 -0.00000000000E+00 -0.56036791926E+03  0.56036791926E+03  0.00000000000E+00 0. -1.
        -24    2    1    2    0    0 -0.42039825502E+02  0.72497588496E+01 -0.44558389868E+03  0.45492625252E+03  0.81197158433E+02 0.  0.
         25    2    1    2    0    0  0.69524215483E+02 -0.39984388476E+02 -0.51086424345E+02  0.15713097017E+03  0.12509177101E+03 0.  0.
         24    2    1    2    0    0 -0.27484389980E+02  0.32734629627E+02  0.35449622692E+03  0.36650451973E+03  0.82650108328E+02 0.  0.
        -11    1    5    5    0    0  0.11368716424E+02  0.43875047107E+02  0.11478043295E+03  0.12340508604E+03  0.00000000000E+00 0.  1.
         12    1    5    5    0    0 -0.38853106404E+02 -0.11140417480E+02  0.23971579398E+03  0.24309943369E+03  0.00000000000E+00 0. -1.
         11    1    3    3    0    0 -0.50424347916E+02  0.53823446690E+01 -0.44308881757E+03  0.44598126054E+03  0.00000000000E+00 0. -1.
        -12    1    3    3    0    0  0.83845224132E+01  0.18674141806E+01 -0.24950811123E+01  0.89449919831E+01  0.00000000000E+00 0.  1.
          5    1    4    4  501    0  0.32144796107E+02 -0.69818054198E+02 -0.71409943945E+02  0.10499857667E+03  0.41800000000E+01 0. -1.
         -5    1    4    4    0  501  0.37379419376E+02  0.29833665722E+02  0.20323519601E+02  0.52132393502E+02  0.41800000000E+01 0. -1.
</event>
<event>
11    1  0.7882745E-009  0.1604346E+03  0.7561462E-02  0.1086669E+00
         22   -1    0    0    0    0  0.00000000000E+00  0.00000000000E+00  0.27907665692E+04  0.27907665692E+04  0.00000000000E+00 0.  1.
         22   -1    0    0    0    0 -0.00000000000E+00 -0.00000000000E+00 -0.25155974582E+03  0.25155974582E+03  0.00000000000E+00 0.  1.
         24    2    1    2    0    0  0.79911376908E+02  0.26270453915E+02 -0.11162402566E+03  0.16269178029E+03  0.83263001157E+02 0.  0.
         25    2    1    2    0    0 -0.16017627914E+03 -0.19620052984E+02 -0.21155001851E+02  0.20527238687E+03  0.12509129398E+03 0.  0.
        -24    2    1    2    0    0  0.80264902233E+02 -0.66504009306E+01  0.26719858509E+04  0.26743621479E+04  0.78853206004E+02 0.  0.
        -13    1    3    3    0    0  0.87474274238E+02 -0.35923672616E+01 -0.81931376660E+02  0.11990581403E+03  0.00000000000E+00 0.  1.
         14    1    3    3    0    0 -0.75628973292E+01  0.29862821176E+02 -0.29692649005E+02  0.42785966269E+02  0.00000000000E+00 0. -1.
         13    1    5    5    0    0  0.67793967478E+02 -0.33906837500E+02  0.14236699386E+04  0.14256864276E+04  0.00000000000E+00 0. -1.
        -14    1    5    5    0    0  0.12470934755E+02  0.27256436569E+02  0.12483159123E+04  0.12486757203E+04  0.00000000000E+00 0.  1.
          5    1    4    4  501    0 -0.14251467101E+03 -0.55401907051E+02 -0.43920036819E+02  0.15914221562E+03  0.41800000000E+01 0. -1.
         -5    1    4    4    0  501 -0.17661608126E+02  0.35781854067E+02  0.22765034968E+02  0.46130171246E+02  0.41800000000E+01 0. -1.
</event>
<event>
11    1  0.7882745E-009  0.1704824E+03  0.7561462E-02  0.1077613E+00
         22   -1    0    0    0    0  0.00000000000E+00  0.00000000000E+00  0.80289311388E+02  0.80289311388E+02  0.00000000000E+00 0.  1.
         22   -1    0    0    0    0 -0.00000000000E+00 -0.00000000000E+00 -0.12437248053E+04  0.12437248053E+04  0.00000000000E+00 0.  1.
         24    2    1    2    0    0 -0.21615667888E+02  0.11077626352E+03 -0.81635469272E+03  0.82794983969E+03  0.79544547563E+02 0.  0.
         25    2    1    2    0    0 -0.15587189158E+02 -0.13083822212E+03 -0.35899714638E+03  0.40235325452E+03  0.12509032527E+03 0.  0.
        -24    2    1    2    0    0  0.37202857046E+02  0.20061958601E+02  0.11916345227E+02  0.93711022451E+02  0.82784187440E+02 0.  0.
        -11    1    3    3    0    0  0.11632665378E+02  0.59074602480E+02 -0.60057277835E+03  0.60358329140E+03  0.00000000000E+00 0.  1.
         12    1    3    3    0    0 -0.33248333266E+02  0.51701661040E+02 -0.21578191438E+03  0.22436654829E+03  0.00000000000E+00 0. -1.
         13    1    5    5    0    0  0.33550272129E+01  0.16153035568E+02 -0.33259525619E+02  0.37126443542E+02  0.00000000000E+00 0. -1.
        -14    1    5    5    0    0  0.33847829833E+02  0.39089230329E+01  0.45175870846E+02  0.56584578909E+02  0.00000000000E+00 0.  1.
          5    1    4    4  501    0  0.17965679107E+02  0.19895026099E+02 -0.49611030222E+02  0.56544711591E+02  0.41800000000E+01 0.  1.
         -5    1    4    4    0  501 -0.33552868265E+02 -0.15073324822E+03 -0.30938611616E+03  0.34580854293E+03  0.41800000000E+01 0.  1.
</event>
<event>
11    1  0.7882745E-009  0.1629661E+03  0.7561462E-02  0.1084320E+00
         22   -1    0    0    0    0  0.00000000000E+00  0.00000000000E+00  0.23886170421E+04  0.23886170421E+04  0.00000000000E+00 0. -1.
         22   -1    0    0    0    0 -0.00000000000E+00 -0.00000000000E+00 -0.17508438997E+04  0.17508438997E+04  0.00000000000E+00 0. -1.
        -24    2    1    2    0    0 -0.51378181697E+01  0.75633215600E+02 -0.16973316578E+04  0.17009286025E+04  0.80477163936E+02 0.  0.
         25    2    1    2    0    0  0.97092432355E+02 -0.23550631149E+02  0.79106539059E+02  0.17856805227E+03  0.12508849716E+03 0.  0.
         24    2    1    2    0    0 -0.91954614186E+02 -0.52082584451E+02  0.22559982611E+04  0.22599642870E+04  0.82110766525E+02 0.  0.
        -13    1    5    5    0    0 -0.34581921208E+02 -0.29066771872E+02  0.34233188868E+03  0.34529973720E+03  0.00000000000E+00 0.  1.
         14    1    5    5    0    0 -0.57372692977E+02 -0.23015812579E+02  0.19136663724E+04  0.19146645498E+04  0.00000000000E+00 0. -1.
         11    1    3    3    0    0  0.29488448343E+02  0.36525839806E+02 -0.11876501349E+04  0.11885775315E+04  0.00000000000E+00 0. -1.
        -12    1    3    3    0    0 -0.34626266513E+02  0.39107375794E+02 -0.50968152289E+03  0.51235107099E+03  0.00000000000E+00 0.  1.
          5    1    4    4  501    0  0.25710909010E+01  0.43704534501E+02  0.23247746411E+02  0.49745622497E+02  0.41800000000E+01 0. -1.
         -5    1    4    4    0  501  0.94521341454E+02 -0.67255165650E+02  0.55858792647E+02  0.12882242977E+03  0.41800000000E+01 0. -1.
</event>
<event>
11    1  0.7882745E-009  0.1302964E+03  0.7561462E-02  0.1118905E+00
         22   -1    0    0    0    0  0.00000000000E+00  0.00000000000E+00  0.71278569547E+03  0.71278569547E+03  0.00000000000E+00 0. -1.
         22   -1    0    0    0    0 -0.00000000000E+00 -0.00000000000E+00 -0.16761264506E+03  0.16761264506E+03  0.00000000000E+00 0.  1.
         24    2    1    2    0    0  0.22552878412E+01  0.27375516187E+02 -0.97667821046E+02  0.11337738685E+03  0.50605566604E+02 0.  0.
         25    2    1    2    0    0  0.12459507379E+02 -0.59383875919E+02  0.23007693559E+02  0.14092621845E+03  0.12509660683E+03 0.  0.
        -24    2    1    2    0    0 -0.14714795220E+02  0.32008359732E+02  0.61983317789E+03  0.62609473522E+03  0.80996226843E+02 0.  0.
        -11    1    3    3    0    0  0.54590936610E+00  0.32708326871E+02 -0.10146716532E+03  0.10661012289E+03  0.00000000000E+00 0.  1.
         12    1    3    3    0    0  0.17093784751E+01 -0.53328106837E+01  0.37993442782E+01  0.67672639599E+01  0.00000000000E+00 0. -1.
         11    1    5    5    0    0 -0.40038965332E+02  0.28442509585E+02  0.54082968482E+03  0.54305510133E+03  0.00000000000E+00 0. -1.
        -12    1    5    5    0    0  0.25324170113E+02  0.35658501466E+01  0.79003493071E+02  0.83039633890E+02  0.00000000000E+00 0.  1.
          5    1    4    4  501    0  0.11790688610E+02 -0.85188753829E+02  0.53021854764E+02  0.10111841375E+03  0.41800000000E+01 0.  1.
         -5    1    4    4    0  501  0.66881876911E+00  0.25804877910E+02 -0.30014161204E+02  0.39807804704E+02  0.41800000000E+01 0.  1.
</event>
<event>
11    1  0.7882745E-009  0.1463187E+03  0.7561462E-02  0.1100701E+00
         22   -1    0    0    0    0  0.00000000000E+00  0.00000000000E+00  0.26122590382E+03  0.26122590382E+03  0.00000000000E+00 0.  1.
         22   -1    0    0    0    0 -0.00000000000E+00 -0.00000000000E+00 -0.13944219357E+04  0.13944219357E+04  0.00000000000E+00 0.  1.
         24    2    1    2    0    0 -0.60871890438E+02  0.26164618400E+02 -0.82036109997E+03  0.82684387756E+03  0.79299995019E+02 0.  0.
         25    2    1    2    0    0  0.94204893915E+02 -0.68936931060E+02 -0.54811456652E+03  0.57420016059E+03  0.12509749753E+03 0.  0.
        -24    2    1    2    0    0 -0.33333003477E+02  0.42772312660E+02  0.23527963461E+03  0.25460380136E+03  0.80783843382E+02 0.  0.
        -13    1    3    3    0    0 -0.34500698182E+02  0.47666076305E+02 -0.67471980826E+03  0.67728071925E+03  0.00000000000E+00 0.  1.
         14    1    3    3    0    0 -0.26371192255E+02 -0.21501457906E+02 -0.14564129171E+03  0.14956315831E+03  0.00000000000E+00 0. -1.
         13    1    5    5    0    0  0.10248951689E+02 -0.19060708845E+02  0.51132677721E+02  0.55523890023E+02  0.00000000000E+00 0. -1.
        -14    1    5    5    0    0 -0.43581955166E+02  0.61833021506E+02  0.18414695689E+03  0.19907991134E+03  0.00000000000E+00 0.  1.
          5    1    4    4  501    0  0.58291146256E+02  0.27784962516E+02 -0.16014749298E+03  0.17272681836E+03  0.41800000000E+01 0. -1.
         -5    1    4    4    0  501  0.35913747659E+02 -0.96721893576E+02 -0.38796707354E+03  0.40147334223E+03  0.41800000000E+01 0. -1.
</event>
<event>
11    1  0.7882745E-009  0.1292883E+03  0.7561462E-02  0.1120147E+00
         22   -1    0    0    0    0  0.00000000000E+00  0.00000000000E+00  0.46949279155E+03  0.46949279155E+03  0.00000000000E+00 0.  1.
         22   -1    0    0    0    0 -0.00000000000E+00 -0.00000000000E+00 -0.15942669994E+03  0.15942669994E+03  0.00000000000E+00 0.  1.
         24    2    1    2    0    0 -0.34297319083E+02 -0.64088574601E+00 -0.79556840093E+02  0.13130331602E+03  0.98663839178E+02 0.  0.
         25    2    1    2    0    0  0.27519125962E+02 -0.73516738504E+00  0.33214804789E+02  0.13231873343E+03  0.12508869331E+03 0.  0.
        -24    2    1    2    0    0  0.67781931216E+01  0.13760531310E+01  0.35640812691E+03  0.36529744205E+03  0.79797436113E+02 0.  0.
        -13    1    3    3    0    0 -0.23332035477E+02 -0.32080903461E+02 -0.88365212103E+02  0.96860616126E+02  0.00000000000E+00 0.  1.
         14    1    3    3    0    0 -0.10965283606E+02  0.31440017715E+02  0.88083720095E+01  0.34442699894E+02  0.00000000000E+00 0. -1.
         13    1    5    5    0    0 -0.97858654980E+01 -0.19767296540E+01  0.16284263738E+01  0.10115453333E+02  0.00000000000E+00 0. -1.
        -14    1    5    5    0    0  0.16564058620E+02  0.33527827850E+01  0.35477970054E+03  0.35518198871E+03  0.00000000000E+00 0.  1.
          5    1    4    4  501    0 -0.26483260457E+02  0.30318858938E+02 -0.24486507277E+02  0.47303887054E+02  0.41800000000E+01 0.  1.
         -5    1    4    4    0  501  0.54002386419E+02 -0.31054026323E+02  0.57701312066E+02  0.85014846374E+02  0.41800000000E+01 0.  1.
</event>
<event>
11    1  0.7882745E-009  0.1781301E+03  0.7561462E-02  0.1071166E+00
         22   -1    0    0    0    0  0.00000000000E+00  0.00000000000E+00  0.22235139960E+04  0.22235139960E+04  0.00000000000E+00 0. -1.
         22   -1    0    0    0    0 -0.00000000000E+00 -0.00000000000E+00 -0.29497184246E+03  0.29497184246E+03  0.00000000000E+00 0. -1.
        -24    2    1    2    0    0 -0.10797835518E+03 -0.56718763286E+02 -0.23147851094E+03  0.27493998395E+03  0.84459164401E+02 0.  0.
         25    2    1    2    0    0  0.19579864637E+03  0.86518189382E+02  0.34918652278E+03  0.42825288847E+03  0.12508717671E+03 0.  0.
         24    2    1    2    0    0 -0.87820291188E+02 -0.29799426096E+02  0.18108341417E+04  0.18152929661E+04  0.86993416068E+02 0.  0.
        -11    1    5    5    0    0 -0.27206988419E+02 -0.19822316906E+02  0.16953169328E+03  0.17284137090E+03  0.00000000000E+00 0.  1.
         12    1    5    5    0    0 -0.60613302769E+02 -0.99771091899E+01  0.16413024484E+04  0.16424515952E+04  0.00000000000E+00 0. -1.
         13    1    3    3    0    0 -0.55160367648E+02 -0.13716229494E+02 -0.18223339369E+03  0.19089214464E+03  0.00000000000E+00 0. -1.
        -14    1    3    3    0    0 -0.52817987532E+02 -0.43002533792E+02 -0.49245117255E+02  0.84047839311E+02  0.00000000000E+00 0.  1.
          5    1    4    4  501    0  0.10242080036E+03  0.81798040000E+02  0.28795415774E+03  0.31641113927E+03  0.41800000000E+01 0.  1.
         -5    1    4    4    0  501  0.93377846008E+02  0.47201493822E+01  0.61232365038E+02  0.11184174920E+03  0.41800000000E+01 0.  1.
</event>
<event>
11    1  0.7882745E-009  0.1291082E+03  0.7561462E-02  0.1120370E+00
         22   -1    0    0    0    0  0.00000000000E+00  0.00000000000E+00  0.39992937349E+04  0.39992937349E+04  0.00000000000E+00 0.  1.
         22   -1    0    0    0    0 -0.00000000000E+00 -0.00000000000E+00 -0.11663108050E+04  0.11663108050E+04  0.00000000000E+00 0.  1.
         24    2    1    2    0    0  0.30681706516E+02  0.91347877463E+01 -0.11571002753E+04  0.11603755361E+04  0.81027934382E+02 0.  0.
         25    2    1    2    0    0 -0.17554992988E+02  0.14457244962E+02  0.56278687291E+03  0.57696959250E+03  0.12509059373E+03 0.  0.
        -24    2    1    2    0    0 -0.13126713528E+02 -0.23592032708E+02  0.34272963323E+04  0.34282594113E+04  0.76639072692E+02 0.  0.
        -11    1    3    3    0    0  0.20718531848E+01  0.22398945304E+02 -0.99400640454E+03  0.99426090016E+03  0.00000000000E+00 0.  1.
         12    1    3    3    0    0  0.28609853332E+02 -0.13264157558E+02 -0.16309387077E+03  0.16611463592E+03  0.00000000000E+00 0. -1.
         11    1    5    5    0    0  0.79428818241E+01 -0.34529956482E+02  0.73066000936E+03  0.73151859617E+03  0.00000000000E+00 0. -1.
        -12    1    5    5    0    0 -0.21069595352E+02  0.10937923774E+02  0.26966363229E+04  0.26967408151E+04  0.00000000000E+00 0.  1.
          5    1    4    4  501    0 -0.61097665967E+02 -0.22360126571E+02  0.37661136645E+03  0.38221262902E+03  0.41800000000E+01 0. -1.
         -5    1    4    4    0  501  0.43542672979E+02  0.36817371533E+02  0.18617550646E+03  0.19475696347E+03  0.41800000000E+01 0. -1.
</event>
<event>
11    1  0.7882745E-009  0.1771060E+03  0.7561462E-02  0.1072008E+00
         22   -1    0    0    0    0  0.00000000000E+00  0.00000000000E+00  0.13677794125E+03  0.13677794125E+03  0.00000000000E+00 0.  1.
         22   -1    0    0    0    0 -0.00000000000E+00 -0.00000000000E+00 -0.15260259886E+04  0.15260259886E+04  0.00000000000E+00 0. -1.
        -24    2    1    2    0    0 -0.67408970017E+02 -0.16138313241E+02 -0.11858720712E+04  0.11906290034E+04  0.80625306215E+02 0.  0.
         25    2    1    2    0    0  0.16993797641E+03 -0.40284690568E+02 -0.24364936509E+03  0.32483023143E+03  0.12509154258E+03 0.  0.
         24    2    1    2    0    0 -0.10252900639E+03  0.56423003809E+02  0.40273388915E+02  0.14734469508E+03  0.79954742212E+02 0.  0.
        -13    1    5    5    0    0 -0.37995946630E+02  0.66241121220E+02  0.24378881746E+02  0.80161761308E+02  0.00000000000E+00 0.  1.
         14    1    5    5    0    0 -0.64533059761E+02 -0.98181174113E+01  0.15894507168E+02  0.67182933769E+02  0.00000000000E+00 0. -1.
         13    1    3    3    0    0 -0.71387825289E+02 -0.29442495727E+02 -0.11420873825E+04  0.11446950124E+04  0.00000000000E+00 0. -1.
        -14    1    3    3    0    0  0.39788552723E+01  0.13304182486E+02 -0.43784688699E+02  0.45933990958E+02  0.00000000000E+00 0.  1.
          5    1    4    4  501    0  0.10546871650E+03 -0.80708154367E+02 -0.11711346886E+03  0.17711717401E+03  0.41800000000E+01 0.  1.
         -5    1    4    4    0  501  0.64469259912E+02  0.40423463799E+02 -0.12653589623E+03  0.14771305742E+03  0.41800000000E+01 0.  1.
</event>
<event>
11    1  0.7882745E-009  0.1516674E+03  0.7561462E-02  0.1095187E+00
         22   -1    0    0    0    0  0.00000000000E+00  0.00000000000E+00  0.18265028866E+04  0.18265028866E+04  0.00000000000E+00 0. -1.
         22   -1    0    0    0    0 -0.00000000000E+00 -0.00000000000E+00 -0.49515766174E+02  0.49515766174E+02  0.00000000000E+00 0. -1.
         24    2    1    2    0    0 -0.93381464672E+02 -0.81860770010E+01  0.57824681933E+02  0.13590113680E+03  0.79613537420E+02 0.  0.
         25    2    1    2    0    0  0.40327349823E+02  0.23084843001E+02  0.51562761108E+03  0.53261670478E+03  0.12509802471E+03 0.  0.
        -24    2    1    2    0    0  0.53054114849E+02 -0.14898766000E+02  0.12035348274E+04  0.12075008112E+04  0.80780046487E+02 0.  0.
        -13    1    3    3    0    0 -0.52034372014E+02 -0.33830613301E+02  0.61156249411E+02  0.87133077010E+02  0.00000000000E+00 0.  1.
         14    1    3    3    0    0 -0.41347092658E+02  0.25644536300E+02 -0.33315674785E+01  0.48768059785E+02  0.00000000000E+00 0. -1.
         11    1    5    5    0    0  0.65849195562E+02 -0.32532100389E+02  0.10277474513E+04  0.10303685155E+04  0.00000000000E+00 0. -1.
        -12    1    5    5    0    0 -0.12795080713E+02  0.17633334389E+02  0.17578737613E+03  0.17713229570E+03  0.00000000000E+00 0.  1.
          5    1    4    4  501    0  0.78083622433E+02  0.17369344066E+01  0.21375436717E+03  0.22761474232E+03  0.41800000000E+01 0.  1.
         -5    1    4    4    0  501 -0.37756272611E+02  0.21347908595E+02  0.30187324390E+03  0.30500196247E+03  0.41800000000E+01 0.  1.
</event>
<event>
11    1  0.9713446E-009  0.1843119E+03  0.7561462E-02  0.1066207E+00
         22   -1    0    0    0    0  0.00000000000E+00  0.00000000000E+00  0.45014532798E+03  0.45014532798E+03  0.00000000000E+00 0. -1.
         22   -1    0    0    0    0 -0.00000000000E+00 -0.00000000000E+00 -0.65961065619E+03  0.65961065619E+03  0.00000000000E+00 0. -1.
         24    2    1    2    0    0 -0.19997358329E+02  0.54382291288E+02 -0.34546256326E+03  0.35955818765E+03  0.81119539840E+02 0.  0.
         25    2    1    2    0    0  0.14637171902E+03 -0.58459865678E+01 -0.26043206785E+03  0.32393104158E+03  0.12509037551E+03 0.  0.
        -24    2    1    2    0    0 -0.12637436069E+03 -0.48536304720E+02  0.39642930290E+03  0.42626675493E+03  0.78872696464E+02 0.  0.
        -11    1    3    3    0    0  0.15891540854E+02  0.33124971539E+02 -0.55167350847E+02  0.66281531437E+02  0.00000000000E+00 0.  1.
         12    1    3    3    0    0 -0.35888899183E+02  0.21257319748E+02 -0.29029521242E+03  0.29327665621E+03  0.00000000000E+00 0. -1.
         11    1    5    5    0    0 -0.59475832576E+02 -0.14299483506E+02  0.28746062180E+03  0.29389702104E+03  0.00000000000E+00 0. -1.
        -12    1    5    5    0    0 -0.66898528119E+02 -0.34236821213E+02  0.10896868110E+03  0.13236973390E+03  0.00000000000E+00 0.  1.
          5    1    4    4  501    0  0.63486704862E+02 -0.60356518486E+02 -0.16144653368E+03  0.18372786031E+03  0.41800000000E+01 0.  1.
         -5    1    4    4    0  501  0.82885014161E+02  0.54510531918E+02 -0.98985534171E+02  0.14020318127E+03  0.41800000000E+01 0.  1.
</event>
<event>
11    1  0.7882745E-009  0.1899774E+03  0.7561462E-02  0.1061846E+00
         22   -1    0    0    0    0  0.00000000000E+00  0.00000000000E+00  0.18937278172E+04  0.18937278172E+04  0.00000000000E+00 0.  1.
         22   -1    0    0    0    0 -0.00000000000E+00 -0.00000000000E+00 -0.21428356597E+03  0.21428356597E+03  0.00000000000E+00 0.  1.
         24    2    1    2    0    0  0.14241012420E+03 -0.33418519072E+02 -0.14018121816E+03  0.21784048210E+03  0.80039120597E+02 0.  0.
         25    2    1    2    0    0 -0.12268495856E+03  0.18568941518E+02  0.19266078294E+03  0.26107782202E+03  0.12508815781E+03 0.  0.
        -24    2    1    2    0    0 -0.19725165643E+02  0.14849577554E+02  0.16269646865E+04  0.16290930790E+04  0.79502057196E+02 0.  0.
        -11    1    3    3    0    0  0.15103831286E+03 -0.36635176947E+02 -0.12244834088E+03  0.19785930437E+03  0.00000000000E+00 0.  1.
         12    1    3    3    0    0 -0.86281886505E+01  0.32166578749E+01 -0.17732877273E+02  0.19981177734E+02  0.00000000000E+00 0. -1.
         11    1    5    5    0    0 -0.13645893126E+02 -0.21678092068E+02  0.19817593459E+03  0.19982455086E+03  0.00000000000E+00 0. -1.
        -12    1    5    5    0    0 -0.60792725172E+01  0.36527669622E+02  0.14287887519E+04  0.14292685282E+04  0.00000000000E+00 0.  1.
          5    1    4    4  501    0 -0.14045718058E+03  0.10089281756E+02  0.11805986227E+03  0.18380864143E+03  0.41800000000E+01 0. -1.
         -5    1    4    4    0  501  0.17772222024E+02  0.84796597619E+01  0.74600920669E+02  0.77269180597E+02  0.41800000000E+01 0. -1.
</event>
<event>
11    1  0.7882745E-009  0.1324753E+03  0.7561462E-02  0.1116264E+00
         22   -1    0    0    0    0  0.00000000000E+00  0.00000000000E+00  0.39918917791E+03  0.39918917791E+03  0.00000000000E+00 0.  1.
         22   -1    0    0    0    0 -0.00000000000E+00 -0.00000000000E+00 -0.44032442591E+03  0.44032442591E+03  0.00000000000E+00 0.  1.
         24    2    1    2    0    0  0.13183087875E+02 -0.49372430738E+01 -0.23566958585E+03  0.25086686693E+03  0.84828421251E+02 0.  0.
         25    2    1    2    0    0  0.22694652061E+02 -0.20805748199E+02 -0.16728690786E+03  0.21113995822E+03  0.12508895246E+03 0.  0.
        -24    2    1    2    0    0 -0.35877739936E+02  0.25742991273E+02  0.36182124571E+03  0.37750677867E+03  0.98218329609E+02 0.  0.
        -13    1    3    3    0    0  0.48634326272E+02  0.54412830129E+01 -0.14058144614E+03  0.14885579684E+03  0.00000000000E+00 0.  1.
         14    1    3    3    0    0 -0.35451238398E+02 -0.10378526087E+02 -0.95088139711E+02  0.10201107009E+03  0.00000000000E+00 0. -1.
         11    1    5    5    0    0 -0.27753724259E+02  0.22881369848E+02  0.33755827320E+02  0.49328310071E+02  0.00000000000E+00 0. -1.
        -12    1    5    5    0    0 -0.81240156761E+01  0.28616214247E+01  0.32806541839E+03  0.32817846860E+03  0.00000000000E+00 0.  1.
          5    1    4    4  501    0 -0.11509459685E+02 -0.63458177586E+02 -0.12893492864E+03  0.14422585131E+03  0.41800000000E+01 0. -1.
         -5    1    4    4    0  501  0.34204111746E+02  0.42652429388E+02 -0.38351979221E+02  0.66914106907E+02  0.41800000000E+01 0. -1.
</event>
<event>
11    1  0.7882745E-009  0.1398873E+03  0.7561462E-02  0.1107684E+00
         22   -1    0    0    0    0  0.00000000000E+00  0.00000000000E+00  0.70483736631E+03  0.70483736631E+03  0.00000000000E+00 0.  1.
         22   -1    0    0    0    0 -0.00000000000E+00 -0.00000000000E+00 -0.88016410250E+03  0.88016410250E+03  0.00000000000E+00 0.  1.
         24    2    1    2    0    0  0.17640190613E+02 -0.43413975283E+02 -0.75786107766E+03  0.76367382726E+03  0.81537425913E+02 0.  0.
         25    2    1    2    0    0  0.24272834523E+02  0.88970803496E+02 -0.62711955803E+02  0.16758023627E+03  0.12508146073E+03 0.  0.
        -24    2    1    2    0    0 -0.41913025135E+02 -0.45556828213E+02  0.64524629728E+03  0.65374740528E+03  0.84916190915E+02 0.  0.
        -13    1    3    3    0    0  0.75769010082E+01  0.18597322665E+02 -0.38768787315E+03  0.38820762077E+03  0.00000000000E+00 0.  1.
         14    1    3    3    0    0  0.10063289605E+02 -0.62011297948E+02 -0.37017320451E+03  0.37546620648E+03  0.00000000000E+00 0. -1.
         11    1    5    5    0    0  0.44988271736E+00  0.23017830516E+02  0.19368709751E+03  0.19505054385E+03  0.00000000000E+00 0. -1.
        -12    1    5    5    0    0 -0.42362907853E+02 -0.68574658729E+02  0.45155919977E+03  0.45869686142E+03  0.00000000000E+00 0.  1.
          5    1    4    4  501    0 -0.30350538653E+02  0.90554831112E+02 -0.18975979110E+02  0.97462263556E+02  0.41800000000E+01 0. -1.
         -5    1    4    4    0  501  0.54623373175E+02 -0.15840276158E+01 -0.43735976693E+02  0.70117972716E+02  0.41800000000E+01 0. -1.
</event>
<event>
11    1  0.7882745E-009  0.1495894E+03  0.7561462E-02  0.1097299E+00
         22   -1    0    0    0    0  0.00000000000E+00  0.00000000000E+00  0.56192014999E+03  0.56192014999E+03  0.00000000000E+00 0.  1.
         22   -1    0    0    0    0 -0.00000000000E+00 -0.00000000000E+00 -0.68427181513E+03  0.68427181513E+03  0.00000000000E+00 0. -1.
         24    2    1    2    0    0 -0.86169566779E+02 -0.47310284704E+01 -0.57307594967E+03  0.58536541946E+03  0.82395711880E+02 0.  0.
         25    2    1    2    0    0  0.39598364677E+02  0.62052121952E+02 -0.45972271487E+02  0.15224476429E+03  0.12508605911E+03 0.  0.
        -24    2    1    2    0    0  0.46571202102E+02 -0.57321093482E+02  0.49669655603E+03  0.50858178137E+03  0.80581480200E+02 0.  0.
        -13    1    3    3    0    0  0.89934430710E+00  0.17621455450E+02 -0.23108623756E+03  0.23175886974E+03  0.00000000000E+00 0.  1.
         14    1    3    3    0    0 -0.87068911086E+02 -0.22352483921E+02 -0.34198971211E+03  0.35360654972E+03  0.00000000000E+00 0. -1.
         13    1    5    5    0    0 -0.20285549808E+02 -0.10616434352E+02  0.57746666082E+02  0.62119961791E+02  0.00000000000E+00 0. -1.
        -14    1    5    5    0    0  0.66856751911E+02 -0.46704659130E+02  0.43894988994E+03  0.44646181958E+03  0.00000000000E+00 0.  1.
          5    1    4    4  501    0 -0.42810239650E+02  0.12853269600E+02  0.18503940524E+01  0.44931275482E+02  0.41800000000E+01 0.  1.
         -5    1    4    4    0  501  0.82408604327E+02  0.49198852352E+02 -0.47822665539E+02  0.10731348880E+03  0.41800000000E+01 0.  1.
</event>
<event>
11    1  0.7882745E-009  0.1731485E+03  0.7561462E-02  0.1075324E+00
         22   -1    0    0    0    0  0.00000000000E+00  0.00000000000E+00  0.56920928191E+03  0.56920928191E+03  0.00000000000E+00 0. -1.
         22   -1    0    0    0    0 -0.00000000000E+00 -0.00000000000E+00 -0.10496812142E+04  0.10496812142E+04  0.00000000000E+00 0.  1.
         24    2    1    2    0    0 -0.10461057562E+03 -0.58127285936E+02 -0.96996838398E+03  0.98055659700E+03  0.79563937172E+02 0.  0.
         25    2    1    2    0    0  0.89890832371E+02  0.86240968584E+02  0.40228607566E+02  0.18106276573E+03  0.12509003902E+03 0.  0.
        -24    2    1    2    0    0  0.14719743252E+02 -0.28113682647E+02  0.44926784416E+03  0.45727113335E+03  0.79045832352E+02 0.  0.
        -13    1    3    3    0    0 -0.10060471859E+03 -0.33974366517E+02 -0.90357388535E+03  0.90979191757E+03  0.00000000000E+00 0.  1.
         14    1    3    3    0    0 -0.40058570297E+01 -0.24152919420E+02 -0.66394498629E+02  0.70764679433E+02  0.00000000000E+00 0. -1.
         13    1    5    5    0    0  0.10562685309E+02 -0.52522419904E+02  0.37901596941E+03  0.38278359419E+03  0.00000000000E+00 0. -1.
        -14    1    5    5    0    0  0.41570579430E+01  0.24408737257E+02  0.70251874748E+02  0.74487539165E+02  0.00000000000E+00 0.  1.
          5    1    4    4  501    0 -0.26718430636E+01  0.69500620953E+02 -0.15868344192E+02  0.71461540745E+02  0.41800000000E+01 0.  1.
         -5    1    4    4    0  501  0.92562675434E+02  0.16740347631E+02  0.56096951758E+02  0.10960122499E+03  0.41800000000E+01 0.  1.
</event>
<event>
11    1  0.1158338E-008  0.1740674E+03  0.7561462E-02  0.1074545E+00
         22   -1    0    0    0    0  0.00000000000E+00  0.00000000000E+00  0.48100812155E+03  0.48100812155E+03  0.00000000000E+00 0.  1.
         22   -1    0    0    0    0 -0.00000000000E+00 -0.00000000000E+00 -0.12985618155E+04  0.12985618155E+04  0.00000000000E+00 0. -1.
        -24    2    1    2    0    0  0.64356584841E+02  0.46468591118E+02 -0.11146543926E+04  0.11204038710E+04  0.80927864247E+02 0.  0.
         25    2    1    2    0    0  0.79737409013E+01 -0.14348542238E+03 -0.11510856313E+03  0.22259462294E+03  0.12508692129E+03 0.  0.
         24    2    1    2    0    0 -0.72330325743E+02  0.97016831266E+02  0.41220926182E+03  0.43657144308E+03  0.77680163551E+02 0.  0.
        -13    1    5    5    0    0 -0.76644085376E+02  0.10455427940E+03  0.40513340396E+03  0.42536923745E+03  0.00000000000E+00 0.  1.
         14    1    5    5    0    0  0.43137596338E+01 -0.75374481307E+01  0.70758578617E+01  0.11202205630E+02  0.00000000000E+00 0. -1.
         13    1    3    3    0    0  0.54734299492E+02  0.67308508169E+02 -0.74431258309E+03  0.74935138631E+03  0.00000000000E+00 0. -1.
        -14    1    3    3    0    0  0.96222853490E+01 -0.20839917051E+02 -0.37034180955E+03  0.37105248473E+03  0.00000000000E+00 0.  1.
          5    1    4    4  501    0  0.29824875978E+02  0.78759357902E+01  0.16620921561E-01  0.31129186754E+02  0.41800000000E+01 0. -1.
         -5    1    4    4    0  501 -0.21851135077E+02 -0.15136135817E+03 -0.11512518405E+03  0.19146543619E+03  0.41800000000E+01 0. -1.
</event>
<event>
11    1  0.7882745E-009  0.1408396E+03  0.7561462E-02  0.1106624E+00
         22   -1    0    0    0    0  0.00000000000E+00  0.00000000000E+00  0.18405861136E+03  0.18405861136E+03  0.00000000000E+00 0. -1.
         22   -1    0    0    0    0 -0.00000000000E+00 -0.00000000000E+00 -0.90006549470E+03  0.90006549470E+03  0.00000000000E+00 0. -1.
         24    2    1    2    0    0 -0.63511626391E+02 -0.32589320896E+01 -0.80931081399E+03  0.81729712347E+03  0.94584602671E+02 0.  0.
         25    2    1    2    0    0  0.87980594773E+02  0.14706025001E+02  0.15422403326E+02  0.15440767521E+03  0.12508807861E+03 0.  0.
        -24    2    1    2    0    0 -0.24468968382E+02 -0.11447092911E+02  0.77881527335E+02  0.11241930738E+03  0.76438223570E+02 0.  0.
        -13    1    3    3    0    0 -0.64259381145E+02 -0.24895824070E+02 -0.31221168229E+03  0.31972676566E+03  0.00000000000E+00 0.  1.
         14    1    3    3    0    0  0.74775475390E+00  0.21636891981E+02 -0.49709913170E+03  0.49757035781E+03  0.00000000000E+00 0. -1.
         11    1    5    5    0    0  0.21518636142E+01 -0.21770954713E+01  0.83600348545E+02  0.83656371775E+02  0.00000000000E+00 0. -1.
        -12    1    5    5    0    0 -0.26620831996E+02 -0.92699974397E+01 -0.57188212103E+01  0.28762935607E+02  0.00000000000E+00 0.  1.
          5    1    4    4  501    0  0.21955706323E+02 -0.44438491280E+02 -0.26391039017E+02  0.56309785009E+02  0.41800000000E+01 0. -1.
         -5    1    4    4    0  501  0.66024888449E+02  0.59144516280E+02  0.41813442343E+02  0.98097890198E+02  0.41800000000E+01 0. -1.
</event>
<event>
11    1  0.7882745E-009  0.1696596E+03  0.7561462E-02  0.1078328E+00
         22   -1    0    0    0    0  0.00000000000E+00  0.00000000000E+00  0.45274237727E+03  0.45274237727E+03  0.00000000000E+00 0.  1.
         22   -1    0    0    0    0 -0.00000000000E+00 -0.00000000000E+00 -0.20708139294E+03  0.20708139294E+03  0.00000000000E+00 0.  1.
        -24    2    1    2    0    0 -0.40116109100E+02  0.17123279839E+02 -0.10143560182E+03  0.13655897255E+03  0.80353361750E+02 0.  0.
         25    2    1    2    0    0  0.13328394651E+02  0.98619274949E+02  0.13914947066E+02  0.16044359053E+03  0.12508042411E+03 0.  0.
         24    2    1    2    0    0  0.26787714448E+02 -0.11574255479E+03  0.33318163908E+03  0.36282120713E+03  0.80717427411E+02 0.  0.
        -13    1    5    5    0    0 -0.37478356363E+01 -0.18558423351E+02  0.16580268278E+03  0.16688016948E+03  0.00000000000E+00 0.  1.
         14    1    5    5    0    0  0.30535550085E+02 -0.97184131437E+02  0.16737895630E+03  0.19594103765E+03  0.00000000000E+00 0. -1.
         11    1    3    3    0    0 -0.46969227059E+02  0.43533248573E+02 -0.74049121242E+02  0.97900584158E+02  0.00000000000E+00 0. -1.
        -12    1    3    3    0    0  0.68531179591E+01 -0.26409968734E+02 -0.27386480581E+02  0.38658388390E+02  0.00000000000E+00 0.  1.
          5    1    4    4  501    0  0.41282400789E+02  0.52220777741E+02 -0.44878225883E+02  0.80391378898E+02  0.41800000000E+01 0.  1.
         -5    1    4    4    0  501 -0.27954006138E+02  0.46398497208E+02  0.58793172949E+02  0.80052211636E+02  0.41800000000E+01 0.  1.
</event>
<event>
11    1  0.7882745E-009  0.1764086E+03  0.7561462E-02  0.1072585E+00
         22   -1    0    0    0    0  0.00000000000E+00  0.00000000000E+00  0.17232430295E+04  0.17232430295E+04  0.00000000000E+00 0. -1.
         22   -1    0    0    0    0 -0.00000000000E+00 -0.00000000000E+00 -0.86775607492E+02  0.86775607492E+02  0.00000000000E+00 0. -1.
         24    2    1    2    0    0 -0.59812621808E+02  0.96946974547E+02  0.23250577637E+02  0.14057512070E+03  0.79022209531E+02 0.  0.
         25    2    1    2    0    0  0.13975321731E+03 -0.14396711271E+03  0.54227214701E+03  0.59157838016E+03  0.12509359361E+03 0.  0.
        -24    2    1    2    0    0 -0.79940595499E+02  0.47020138162E+02  0.10709446973E+04  0.10778651361E+04  0.79179003956E+02 0.  0.
        -13    1    3    3    0    0  0.98672865950E+01  0.16078993544E+00 -0.12636124990E+02  0.16033117379E+02  0.00000000000E+00 0.  1.
         14    1    3    3    0    0 -0.69679908403E+02  0.96786184612E+02  0.35886702627E+02  0.12454200332E+03  0.00000000000E+00 0. -1.
         13    1    5    5    0    0 -0.84614058563E+02  0.53946000916E+02  0.10558875208E+04  0.10606451652E+04  0.00000000000E+00 0. -1.
        -14    1    5    5    0    0  0.46734630641E+01 -0.69258627544E+01  0.15057176531E+02  0.17219970877E+02  0.00000000000E+00 0.  1.
          5    1    4    4  501    0  0.12297033644E+02 -0.98650091611E+02  0.26433577984E+03  0.28244279866E+03  0.41800000000E+01 0. -1.
         -5    1    4    4    0  501  0.12745618366E+03 -0.45317021097E+02  0.27793636717E+03  0.30913558150E+03  0.41800000000E+01 0. -1.
</event>
<event>
11    1  0.7882745E-009  0.1413628E+03  0.7561462E-02  0.1106046E+00
         22   -1    0    0    0    0  0.00000000000E+00  0.00000000000E+00  0.38421044243E+02  0.38421044243E+02  0.00000000000E+00 0. -1.
         22   -1    0    0    0    0 -0.00000000000E+00 -0.00000000000E+00 -0.14211965753E+04  0.14211965753E+04  0.00000000000E+00 0. -1.
         24    2    1    2    0    0 -0.30886223617E+02  0.36502162811E+02 -0.42247422843E+03  0.43056062738E+03  0.67908861494E+02 0.  0.
         25    2    1    2    0    0  0.72906341327E+01 -0.95543374013E+02 -0.89262652624E+03  0.90642749404E+03  0.12508795679E+03 0.  0.
        -24    2    1    2    0    0  0.23595589484E+02  0.59041211202E+02 -0.67674776433E+02  0.12262949817E+03  0.80096828850E+02 0.  0.
        -11    1    3    3    0    0 -0.17446266974E+02 -0.17315888518E+02 -0.82266015330E+02  0.85859824742E+02  0.00000000000E+00 0.  1.
         12    1    3    3    0    0 -0.13439956643E+02  0.53818051329E+02 -0.34020821310E+03  0.34470080264E+03  0.00000000000E+00 0. -1.
         11    1    5    5    0    0  0.52343560717E+02  0.27399564356E+02 -0.44781098788E+02  0.74134548519E+02  0.00000000000E+00 0. -1.
        -12    1    5    5    0    0 -0.28747971233E+02  0.31641646846E+02 -0.22893677645E+02  0.48494949647E+02  0.00000000000E+00 0.  1.
          5    1    4    4  501    0 -0.14998934894E+02 -0.40377408864E+00 -0.10247267237E+02  0.18644301201E+02  0.41800000000E+01 0.  1.
         -5    1    4    4    0  501  0.22289569026E+02 -0.95139599925E+02 -0.88237925901E+03  0.88778319284E+03  0.41800000000E+01 0.  1.
</event>
<event>
11    1  0.7882745E-009  0.1643235E+03  0.7561462E-02  0.1083080E+00
         22   -1    0    0    0    0  0.00000000000E+00  0.00000000000E+00  0.44583300345E+03  0.44583300345E+03  0.00000000000E+00 0. -1.
         22   -1    0    0    0    0 -0.00000000000E+00 -0.00000000000E+00 -0.22212400082E+03  0.22212400082E+03  0.00000000000E+00 0.  1.
         24    2    1    2    0    0 -0.27080283391E+02 -0.98195787131E+02 -0.23044760421E+02  0.13161036454E+03  0.80090403373E+02 0.  0.
         25    2    1    2    0    0  0.95425512104E+02  0.76443924696E+02 -0.83028432295E+02  0.19362338856E+03  0.12508634635E+03 0.  0.
        -24    2    1    2    0    0 -0.68345228713E+02  0.21751862435E+02  0.32978219534E+03  0.34272325117E+03  0.59654980727E+02 0.  0.
        -11    1    3    3    0    0 -0.17851154326E+02 -0.92196607489E+02 -0.47171955102E+02  0.10509077739E+03  0.00000000000E+00 0.  1.
         12    1    3    3    0    0 -0.92291290653E+01 -0.59991796422E+01  0.24127194681E+02  0.26519587155E+02  0.00000000000E+00 0. -1.
         13    1    5    5    0    0 -0.75283762786E+02  0.18409015504E+02  0.23127185461E+03  0.24391229474E+03  0.00000000000E+00 0. -1.
        -14    1    5    5    0    0  0.69385340731E+01  0.33428469311E+01  0.98510340730E+02  0.98810956434E+02  0.00000000000E+00 0.  1.
          5    1    4    4  501    0  0.97557060034E+02  0.47633531227E+02 -0.10947437726E+03  0.15423503148E+03  0.41800000000E+01 0. -1.
         -5    1    4    4    0  501 -0.21315479301E+01  0.28810393469E+02  0.26445944962E+02  0.39388357078E+02  0.41800000000E+01 0. -1.
</event>
<event>
11    1  0.7882745E-009  0.1744559E+03  0.7561462E-02  0.1074218E+00
         22   -1    0    0    0    0  0.00000000000E+00  0.00000000000E+00  0.76854750128E+03  0.76854750128E+03  0.00000000000E+00 0.  1.
         22   -1    0    0    0    0 -0.00000000000E+00 -0.00000000000E+00 -0.23774738733E+03  0.23774738733E+03  0.00000000000E+00 0. -1.
        -24    2    1    2    0    0 -0.75561503583E+02 -0.11503188627E+03 -0.12955172043E+03  0.20507982668E+03  0.79575193121E+02 0.  0.
         25    2    1    2    0    0  0.67604944236E+00  0.93915350356E+02  0.27887103380E+02  0.15889219925E+03  0.12509392620E+03 0.  0.
         24    2    1    2    0    0  0.74885454141E+02  0.21116535916E+02  0.63246473100E+03  0.64232286269E+03  0.80704923259E+02 0.  0.
        -11    1    5    5    0    0  0.86843128249E+02  0.34508317443E+02  0.50135210226E+03  0.50998674820E+03  0.00000000000E+00 0.  1.
         12    1    5    5    0    0 -0.11957674108E+02 -0.13391781527E+02  0.13111262874E+03  0.13233611449E+03  0.00000000000E+00 0. -1.
         11    1    3    3    0    0 -0.34914996026E+02 -0.11228596415E+03 -0.10406932929E+03  0.15702744980E+03  0.00000000000E+00 0. -1.
        -12    1    3    3    0    0 -0.40646507558E+02 -0.27459221202E+01 -0.25482391140E+02  0.48052376873E+02  0.00000000000E+00 0.  1.
          5    1    4    4  501    0  0.11209462274E+02  0.46239277682E+02 -0.48543775276E+02  0.68100612061E+02  0.41800000000E+01 0. -1.
         -5    1    4    4    0  501 -0.10533412832E+02  0.47676072674E+02  0.76430878656E+02  0.90791587185E+02  0.41800000000E+01 0. -1.
</event>
<event>
11    1  0.7882745E-009  0.1554846E+03  0.7561462E-02  0.1091403E+00
         22   -1    0    0    0    0  0.00000000000E+00  0.00000000000E+00  0.80219481247E+03  0.80219481247E+03  0.00000000000E+00 0. -1.
         22   -1    0    0    0    0 -0.00000000000E+00 -0.00000000000E+00 -0.25224267108E+03  0.25224267108E+03  0.00000000000E+00 0. -1.
         24    2    1    2    0    0 -0.27777127668E+02 -0.22402802553E+02 -0.15222120459E+03  0.17330636069E+03  0.74768610690E+02 0.  0.
         25    2    1    2    0    0  0.59399319066E+02  0.10725119530E+03  0.67952839792E+01  0.17528250529E+03  0.12508670104E+03 0.  0.
        -24    2    1    2    0    0 -0.31622191397E+02 -0.84848392746E+02  0.69537806200E+03  0.70584861757E+03  0.80451283890E+02 0.  0.
        -11    1    3    3    0    0  0.13405278994E+02 -0.14175762707E+02 -0.49000178786E+01  0.20116260299E+02  0.00000000000E+00 0.  1.
         12    1    3    3    0    0 -0.41182406662E+02 -0.82270398461E+01 -0.14732118671E+03  0.15319010039E+03  0.00000000000E+00 0. -1.
         13    1    5    5    0    0  0.28525059216E+01 -0.52382772433E+02  0.55951900535E+03  0.56197296108E+03  0.00000000000E+00 0. -1.
        -14    1    5    5    0    0 -0.34474697319E+02 -0.32465620313E+02  0.13585905665E+03  0.14387565649E+03  0.00000000000E+00 0.  1.
          5    1    4    4  501    0  0.22245368521E+02  0.99211119386E+02  0.53460475050E+02  0.11494867299E+03  0.41800000000E+01 0. -1.
         -5    1    4    4    0  501  0.37153950544E+02  0.80400759127E+01 -0.46665191071E+02  0.60333832295E+02  0.41800000000E+01 0. -1.
</event>
<event>
11    1  0.7882745E-009  0.1474775E+03  0.7561462E-02  0.1099484E+00
         22   -1    0    0    0    0  0.00000000000E+00  0.00000000000E+00  0.76038928746E+03  0.76038928746E+03  0.00000000000E+00 0. -1.
         22   -1    0    0    0    0 -0.00000000000E+00 -0.00000000000E+00 -0.38097863776E+03  0.38097863776E+03  0.00000000000E+00 0.  1.
        -24    2    1    2    0    0 -0.10179548885E+02 -0.26931857787E+02 -0.33930593280E+03  0.34979697880E+03  0.80002888487E+02 0.  0.
         25    2    1    2    0    0 -0.42779021755E+02 -0.35344124409E+02  0.11698423560E+03  0.18003532669E+03  0.12509258829E+03 0.  0.
         24    2    1    2    0    0  0.52958570640E+02  0.62275982196E+02  0.60173234690E+03  0.61153561973E+03  0.72187870993E+02 0.  0.
        -11    1    5    5    0    0  0.10525853117E+02 -0.15652780534E+02  0.72356748890E+02  0.74775010747E+02  0.00000000000E+00 0.  1.
         12    1    5    5    0    0  0.42432717523E+02  0.77928762730E+02  0.52937559801E+03  0.53676060898E+03  0.00000000000E+00 0. -1.
         11    1    3    3    0    0 -0.31813473260E+02 -0.24320249133E+02 -0.78895324024E+02  0.88476232693E+02  0.00000000000E+00 0. -1.
        -12    1    3    3    0    0  0.21633924375E+02 -0.26116086545E+01 -0.26041060878E+03  0.26132074611E+03  0.00000000000E+00 0.  1.
          5    1    4    4  501    0 -0.42369701338E+02  0.56078290760E+00  0.13362100716E+03  0.14024104971E+03  0.41800000000E+01 0. -1.
         -5    1    4    4    0  501 -0.40932041668E+00 -0.35904907317E+02 -0.16636771558E+02  0.39794276981E+02  0.41800000000E+01 0. -1.
</event>
<event>
11    1  0.7882745E-009  0.3707709E+03  0.7561462E-02  0.9740168E-01
         22   -1    0    0    0    0  0.00000000000E+00  0.00000000000E+00  0.25882908075E+04  0.25882908075E+04  0.00000000000E+00 0.  1.
         22   -1    0    0    0    0 -0.00000000000E+00 -0.00000000000E+00 -0.84033552384E+03  0.84033552384E+03  0.00000000000E+00 0.  1.
         24    2    1    2    0    0 -0.13816902093E+03  0.68134290708E+02 -0.74483961185E+03  0.76478861957E+03  0.79891334548E+02 0.  0.
         25    2    1    2    0    0  0.29765793877E+03  0.24039032722E+03  0.51232283679E+03  0.65154444461E+03  0.12509083205E+03 0.  0.
        -24    2    1    2    0    0 -0.15948891785E+03 -0.30852461793E+03  0.19804720587E+04  0.20122932672E+04  0.80190167326E+02 0.  0.
        -11    1    3    3    0    0 -0.11173070447E+03  0.17281887390E+02 -0.42102732184E+03  0.43594313814E+03  0.00000000000E+00 0.  1.
         12    1    3    3    0    0 -0.26438316456E+02  0.50852403318E+02 -0.32381229001E+03  0.32884548143E+03  0.00000000000E+00 0. -1.
         11    1    5    5    0    0 -0.65202277844E+02 -0.53003061743E+02  0.48240885838E+03  0.48967230699E+03  0.00000000000E+00 0. -1.
        -12    1    5    5    0    0 -0.94286640002E+02 -0.25552155619E+03  0.14980632004E+04  0.15226209602E+04  0.00000000000E+00 0.  1.
          5    1    4    4  501    0  0.25161317459E+03  0.16096011966E+03  0.31640148194E+03  0.43513758735E+03  0.41800000000E+01 0. -1.
         -5    1    4    4    0  501  0.46044764181E+02  0.79430207562E+02  0.19592135485E+03  0.21640685726E+03  0.41800000000E+01 0. -1.
</event>
<event>
11    1  0.7882745E-009  0.3062079E+03  0.7561462E-02  0.9975976E-01
         22   -1    0    0    0    0  0.00000000000E+00  0.00000000000E+00  0.21791201887E+03  0.21791201887E+03  0.00000000000E+00 0. -1.
         22   -1    0    0    0    0 -0.00000000000E+00 -0.00000000000E+00 -0.90420917955E+03  0.90420917955E+03  0.00000000000E+00 0.  1.
        -24    2    1    2    0    0  0.16470035821E+03  0.22937515754E+03 -0.57939789137E+03  0.64965519082E+03  0.81306700500E+02 0.  0.
         25    2    1    2    0    0 -0.89225137071E+02 -0.26637301739E+03 -0.15739743300E+03  0.34545153092E+03  0.12508836407E+03 0.  0.
         24    2    1    2    0    0 -0.75475221144E+02  0.36997859845E+02  0.50498163686E+02  0.12701447667E+03  0.80729561551E+02 0.  0.
        -11    1    5    5    0    0 -0.73393650916E+02  0.98459771628E+00  0.12208697360E+02  0.74408666959E+02  0.00000000000E+00 0.  1.
         12    1    5    5    0    0 -0.20815702282E+01  0.36013262129E+02  0.38289466326E+02  0.52605809711E+02  0.00000000000E+00 0. -1.
         11    1    3    3    0    0 -0.40133627832E+00  0.38421906742E+02 -0.11258553037E+03  0.11896178226E+03  0.00000000000E+00 0. -1.
        -12    1    3    3    0    0  0.16510169449E+03  0.19095325080E+03 -0.46681236100E+03  0.53069340856E+03  0.00000000000E+00 0.  1.
          5    1    4    4  501    0 -0.41896975405E+02 -0.11108455678E+03 -0.13770726187E+03  0.18186780274E+03  0.41800000000E+01 0.  1.
         -5    1    4    4    0  501 -0.47328161666E+02 -0.15528846061E+03 -0.19690171126E+02  0.16358372818E+03  0.41800000000E+01 0.  1.
</event>
<event>
11    1  0.7882745E-009  0.1478925E+03  0.7561462E-02  0.1099052E+00
         22   -1    0    0    0    0  0.00000000000E+00  0.00000000000E+00  0.96864872959E+02  0.96864872959E+02  0.00000000000E+00 0.  1.
         22   -1    0    0    0    0 -0.00000000000E+00 -0.00000000000E+00 -0.19770336408E+04  0.19770336408E+04  0.00000000000E+00 0.  1.
        -24    2    1    2    0    0  0.64094700108E+02 -0.47401253359E+02 -0.16255940185E+04  0.16295482627E+04  0.80725571917E+02 0.  0.
         25    2    1    2    0    0 -0.41138179428E+02  0.64663595012E+02 -0.30970147961E+03  0.34268977114E+03  0.12509013728E+03 0.  0.
         24    2    1    2    0    0 -0.22956520680E+02 -0.17262341653E+02  0.55126730299E+02  0.10166047993E+03  0.80441944933E+02 0.  0.
        -11    1    5    5    0    0 -0.39088455598E+02  0.84839173389E+01  0.58738310045E+02  0.71063867622E+02  0.00000000000E+00 0.  1.
         12    1    5    5    0    0  0.16131934918E+02 -0.25746258992E+02 -0.36115797461E+01  0.30596612305E+02  0.00000000000E+00 0. -1.
         13    1    3    3    0    0 -0.10968183316E+02  0.54244369376E+01 -0.58374686155E+02  0.59643352899E+02  0.00000000000E+00 0. -1.
        -14    1    3    3    0    0  0.75062883424E+02 -0.52825690296E+02 -0.15672193324E+04  0.15699049098E+04  0.00000000000E+00 0.  1.
          5    1    4    4  501    0 -0.36583922705E+02  0.89717891341E+02 -0.13574046489E+03  0.16682514689E+03  0.41800000000E+01 0. -1.
         -5    1    4    4    0  501 -0.45542567234E+01 -0.25054296329E+02 -0.17396101472E+03  0.17586462424E+03  0.41800000000E+01 0. -1.
</event>
<event>
11    1  0.7882745E-009  0.3302462E+03  0.7561462E-02  0.9881451E-01
         22   -1    0    0    0    0  0.00000000000E+00  0.00000000000E+00  0.75120811775E+03  0.75120811775E+03  0.00000000000E+00 0.  1.
         22   -1    0    0    0    0 -0.00000000000E+00 -0.00000000000E+00 -0.16860319468E+04  0.16860319468E+04  0.00000000000E+00 0.  1.
        -24    2    1    2    0    0  0.88941151930E+00 -0.28720755637E+02 -0.13708772856E+04  0.13734341076E+04  0.78683179929E+02 0.  0.
         25    2    1    2    0    0  0.30466753864E+03  0.14391140056E+02 -0.17675432985E+03  0.37405713520E+03  0.12508890142E+03 0.  0.
         24    2    1    2    0    0 -0.30555695016E+03  0.14329615582E+02  0.61280778647E+03  0.68974882172E+03  0.81545485694E+02 0.  0.
        -11    1    5    5    0    0 -0.23379673963E+03 -0.23025453309E+02  0.43444485930E+03  0.49389616594E+03  0.00000000000E+00 0.  1.
         12    1    5    5    0    0 -0.71760210524E+02  0.37355068891E+02  0.17836292717E+03  0.19585265578E+03  0.00000000000E+00 0. -1.
         11    1    3    3    0    0  0.21357166399E+02 -0.21981425763E+02 -0.19792006667E+03  0.20027896651E+03  0.00000000000E+00 0. -1.
        -12    1    3    3    0    0 -0.20467754880E+02 -0.67393298742E+01 -0.11729572189E+04  0.11731551411E+04  0.00000000000E+00 0.  1.
          5    1    4    4  501    0  0.18594252695E+03  0.64419757662E+02 -0.13454052516E+03  0.23841802327E+03  0.41800000000E+01 0.  1.
         -5    1    4    4    0  501  0.11872501169E+03 -0.50028617606E+02 -0.42213804685E+02  0.13563911193E+03  0.41800000000E+01 0.  1.
</event>
<event>
11    1  0.7882745E-009  0.2975536E+03  0.7561462E-02  0.1001232E+00
         22   -1    0    0    0    0  0.00000000000E+00  0.00000000000E+00  0.18418739568E+04  0.18418739568E+04  0.00000000000E+00 0.  1.
         22   -1    0    0    0    0 -0.00000000000E+00 -0.00000000000E+00 -0.23589462927E+03  0.23589462927E+03  0.00000000000E+00 0.  1.
        -24    2    1    2    0    0  0.39831913398E+02  0.25936411822E+03 -0.92060216217E+02  0.28878620572E+03  0.77884928320E+02 0.  0.
         25    2    1    2    0    0 -0.47882604521E+02 -0.32058331515E+03  0.66004929341E+03  0.74590827609E+03  0.12509069044E+03 0.  0.
         24    2    1    2    0    0  0.80506911231E+01  0.61219196935E+02  0.10379902503E+04  0.10430741043E+04  0.82263135589E+02 0.  0.
        -11    1    5    5    0    0  0.36718903296E+02  0.21529071627E+02  0.72779592261E+03  0.72903956255E+03  0.00000000000E+00 0.  1.
         12    1    5    5    0    0 -0.28668212173E+02  0.39690125308E+02  0.31019432773E+03  0.31403454172E+03  0.00000000000E+00 0. -1.
         13    1    3    3    0    0 -0.14653083264E+02  0.10699947760E+02 -0.16708599128E+00  0.18144686521E+02  0.00000000000E+00 0. -1.
        -14    1    3    3    0    0  0.54484996663E+02  0.24866417046E+03 -0.91893130225E+02  0.27064151920E+03  0.00000000000E+00 0.  1.
          5    1    4    4  501    0  0.29212527899E+02 -0.32821538547E+02  0.13724079239E+03  0.14416356223E+03  0.41800000000E+01 0. -1.
         -5    1    4    4    0  501 -0.77095132421E+02 -0.28776177661E+03  0.52280850102E+03  0.60174471386E+03  0.41800000000E+01 0. -1.
</event>
<event>
11    1  0.7882745E-009  0.1404030E+03  0.7561462E-02  0.1107109E+00
         22   -1    0    0    0    0  0.00000000000E+00  0.00000000000E+00  0.38033107447E+02  0.38033107447E+02  0.00000000000E+00 0. -1.
         22   -1    0    0    0    0 -0.00000000000E+00 -0.00000000000E+00 -0.16584335097E+04  0.16584335097E+04  0.00000000000E+00 0. -1.
        -24    2    1    2    0    0 -0.47665915723E+02  0.56412367662E+02 -0.10334837205E+04  0.10390489301E+04  0.77972328394E+02 0.  0.
         25    2    1    2    0    0  0.14688676676E+02 -0.34107612655E+02 -0.54614105051E+03  0.56151592112E+03  0.12510394141E+03 0.  0.
         24    2    1    2    0    0  0.32977239047E+02 -0.22304755006E+02 -0.40775631271E+02  0.95901765886E+02  0.77132977406E+02 0.  0.
        -11    1    5    5    0    0  0.28077445882E+02  0.21877117707E+02 -0.36917220316E+02  0.51281891563E+02  0.00000000000E+00 0.  1.
         12    1    5    5    0    0  0.48997931652E+01 -0.44181872713E+02 -0.38584109549E+01  0.44619874323E+02  0.00000000000E+00 0. -1.
         11    1    3    3    0    0 -0.22177222203E+02  0.65779214597E+02 -0.90855170429E+03  0.91119972214E+03  0.00000000000E+00 0. -1.
        -12    1    3    3    0    0 -0.25488693520E+02 -0.93668469356E+01 -0.12493201616E+03  0.12784920798E+03  0.00000000000E+00 0.  1.
          5    1    4    4  501    0 -0.41874443043E+02 -0.54993659872E+01 -0.75530330022E+02  0.86637261958E+02  0.41800000000E+01 0. -1.
         -5    1    4    4    0  501  0.56563119719E+02 -0.28608246668E+02 -0.47061072048E+03  0.47487865916E+03  0.41800000000E+01 0. -1.
</event>
<event>
11    1  0.7882745E-009  0.1598423E+03  0.7561462E-02  0.1087226E+00
         22   -1    0    0    0    0  0.00000000000E+00  0.00000000000E+00  0.19001115496E+03  0.19001115496E+03  0.00000000000E+00 0.  1.
         22   -1    0    0    0    0 -0.00000000000E+00 -0.00000000000E+00 -0.12837268291E+04  0.12837268291E+04  0.00000000000E+00 0. -1.
        -24    2    1    2    0    0  0.28108023223E+01  0.74871727198E+02 -0.65763533851E+03  0.66689862592E+03  0.81583470499E+02 0.  0.
         25    2    1    2    0    0  0.95032432606E+02 -0.90407692525E+02 -0.58074105832E+03  0.60836860770E+03  0.12508985529E+03 0.  0.
         24    2    1    2    0    0 -0.97843234928E+02  0.15535965327E+02  0.14466072269E+03  0.19847075044E+03  0.93001340042E+02 0.  0.
        -11    1    5    5    0    0 -0.79079803714E+02 -0.30430315091E+02  0.10500961404E+03  0.13493197721E+03  0.00000000000E+00 0.  1.
         12    1    5    5    0    0 -0.18763431214E+02  0.45966280418E+02  0.39651108651E+02  0.63538773230E+02  0.00000000000E+00 0. -1.
         13    1    3    3    0    0 -0.16889185366E+02  0.35922209004E+02 -0.53948988462E+03  0.54094822792E+03  0.00000000000E+00 0. -1.
        -14    1    3    3    0    0  0.19699987688E+02  0.38949518194E+02 -0.11814545388E+03  0.12595039800E+03  0.00000000000E+00 0.  1.
          5    1    4    4  501    0  0.10247228927E+03 -0.41840769993E+02 -0.51154840138E+03  0.52340276982E+03  0.41800000000E+01 0. -1.
         -5    1    4    4    0  501 -0.74398566660E+01 -0.48566922532E+02 -0.69192656943E+02  0.84965837878E+02  0.41800000000E+01 0. -1.
</event>
<event>
11    1  0.7882745E-009  0.1425320E+03  0.7561462E-02  0.1104764E+00
         22   -1    0    0    0    0  0.00000000000E+00  0.00000000000E+00  0.17473392551E+04  0.17473392551E+04  0.00000000000E+00 0. -1.
         22   -1    0    0    0    0 -0.00000000000E+00 -0.00000000000E+00 -0.66725596860E+03  0.66725596860E+03  0.00000000000E+00 0. -1.
        -24    2    1    2    0    0  0.25036087699E+02  0.26488281053E+02 -0.51281284436E+03  0.52049138406E+03  0.81276274632E+02 0.  0.
         25    2    1    2    0    0  0.11762361328E+01  0.37000318932E+02 -0.12041968595E+03  0.17753620494E+03  0.12509115143E+03 0.  0.
         24    2    1    2    0    0 -0.26212323832E+02 -0.63488599985E+02  0.17133158168E+04  0.17165676347E+04  0.80221369329E+02 0.  0.
        -11    1    5    5    0    0 -0.53014542008E-01  0.71955559662E+01  0.83305462797E+03  0.83308570508E+03  0.00000000000E+00 0.  1.
         12    1    5    5    0    0 -0.26159309290E+02 -0.70684155951E+02  0.88026118882E+03  0.88348192959E+03  0.00000000000E+00 0. -1.
         11    1    3    3    0    0  0.18425444771E+02  0.26151893416E+02 -0.51287513667E+03  0.51387189489E+03  0.00000000000E+00 0. -1.
        -12    1    3    3    0    0  0.66106429281E+01  0.33638763736E+00  0.62292305933E-01  0.66194891719E+01  0.00000000000E+00 0.  1.
          5    1    4    4  501    0 -0.59780775293E+02  0.74528665352E+01 -0.73006829521E+02  0.94745743287E+02  0.41800000000E+01 0.  1.
         -5    1    4    4    0  501  0.60957011425E+02  0.29547452397E+02 -0.47412856432E+02  0.82790461650E+02  0.41800000000E+01 0.  1.
</event>
<event>
11    1  0.7882745E-009  0.2119112E+03  0.7561462E-02  0.1046406E+00
         22   -1    0    0    0    0  0.00000000000E+00  0.00000000000E+00  0.54328693668E+03  0.54328693668E+03  0.00000000000E+00 0.  1.
         22   -1    0    0    0    0 -0.00000000000E+00 -0.00000000000E+00 -0.90053678633E+03  0.90053678633E+03  0.00000000000E+00 0. -1.
         24    2    1    2    0    0  0.66044974617E+02  0.16024450982E+03 -0.66684065997E+03  0.69405070293E+03  0.83604251357E+02 0.  0.
         25    2    1    2    0    0 -0.57450123555E+02 -0.15253136558E+03 -0.16778083711E+03  0.26526151854E+03  0.12508768817E+03 0.  0.
        -24    2    1    2    0    0 -0.85948510628E+01 -0.77131442329E+01  0.47737164743E+03  0.48451150154E+03  0.82063032462E+02 0.  0.
        -11    1    3    3    0    0  0.62106108522E+02  0.16420472350E+03 -0.55574244958E+03  0.58281217403E+03  0.00000000000E+00 0.  1.
         12    1    3    3    0    0  0.39388660958E+01 -0.39602136843E+01 -0.11109821039E+03  0.11123852889E+03  0.00000000000E+00 0. -1.
         13    1    5    5    0    0 -0.10409370501E+02 -0.43440346764E+02  0.20568187851E+03  0.21047673000E+03  0.00000000000E+00 0. -1.
        -14    1    5    5    0    0  0.18145194386E+01  0.35727202532E+02  0.27168976891E+03  0.27403477154E+03  0.00000000000E+00 0.  1.
          5    1    4    4  501    0  0.35099983846E+02 -0.81109240520E+02 -0.72899101283E+02  0.11464060856E+03  0.41800000000E+01 0.  1.
         -5    1    4    4    0  501 -0.92550107400E+02 -0.71422125064E+02 -0.94881735830E+02  0.15062090998E+03  0.41800000000E+01 0.  1.
</event>
<event>
11    1  0.7882745E-009  0.1698727E+03  0.7561462E-02  0.1078143E+00
         22   -1    0    0    0    0  0.00000000000E+00  0.00000000000E+00  0.25426289780E+03  0.25426289780E+03  0.00000000000E+00 0.  1.
         22   -1    0    0    0    0 -0.00000000000E+00 -0.00000000000E+00 -0.60233573806E+03  0.60233573806E+03  0.00000000000E+00 0. -1.
         24    2    1    2    0    0  0.34897255946E+02 -0.11945470812E+02 -0.42015688666E+03  0.42933965119E+03  0.80250943513E+02 0.  0.
         25    2    1    2    0    0  0.57091607828E+02  0.84912207120E+02 -0.11275005161E+03  0.19704838196E+03  0.12508379628E+03 0.  0.
        -24    2    1    2    0    0 -0.91988863774E+02 -0.72966736308E+02  0.18483409800E+03  0.23021060271E+03  0.71043522909E+02 0.  0.
        -11    1    3    3    0    0  0.47084261448E+02 -0.13594248564E+02 -0.13013280124E+03  0.13905494320E+03  0.00000000000E+00 0.  1.
         12    1    3    3    0    0 -0.12187005502E+02  0.16487777521E+01 -0.29002408542E+03  0.29028470799E+03  0.00000000000E+00 0. -1.
         13    1    5    5    0    0 -0.36709982254E+00  0.84096952356E-01 -0.61404654453E+01  0.61520037762E+01  0.00000000000E+00 0. -1.
        -14    1    5    5    0    0 -0.91621763951E+02 -0.73050833260E+02  0.19097456345E+03  0.22405859893E+03  0.00000000000E+00 0.  1.
          5    1    4    4  501    0  0.33263032070E+02 -0.85960138046E+01  0.14304792128E+02  0.37448901634E+02  0.41800000000E+01 0. -1.
         -5    1    4    4    0  501  0.23828575758E+02  0.93508220924E+02 -0.12705484374E+03  0.15959948033E+03  0.41800000000E+01 0. -1.
</event>
<event>
11    1  0.7882745E-009  0.2418844E+03  0.7561462E-02  0.1028314E+00
         22   -1    0    0    0    0  0.00000000000E+00  0.00000000000E+00  0.21447885729E+04  0.21447885729E+04  0.00000000000E+00 0. -1.
         22   -1    0    0    0    0 -0.00000000000E+00 -0.00000000000E+00 -0.11715036665E+04  0.11715036665E+04  0.00000000000E+00 0. -1.
        -24    2    1    2    0    0 -0.10183074627E+02 -0.20345947855E+03 -0.10129965694E+04  0.10362396327E+04  0.78301164325E+02 0.  0.
         25    2    1    2    0    0 -0.26717162194E+02  0.24595013511E+03 -0.13821670242E+02  0.27756927785E+03  0.12509352391E+03 0.  0.
         24    2    1    2    0    0  0.36900236821E+02 -0.42490656558E+02  0.20001031461E+04  0.20024833289E+04  0.79748379461E+02 0.  0.
        -13    1    5    5    0    0  0.56199277999E+02 -0.32789247984E+02  0.98307872539E+03  0.98522955393E+03  0.00000000000E+00 0.  1.
         14    1    5    5    0    0 -0.19299041179E+02 -0.97014085736E+01  0.10170244207E+04  0.10172537749E+04  0.00000000000E+00 0. -1.
         11    1    3    3    0    0 -0.46809748899E+01 -0.18523543900E+03 -0.98567383139E+03  0.10029391713E+04  0.00000000000E+00 0. -1.
        -12    1    3    3    0    0 -0.55020997371E+01 -0.18224039547E+02 -0.27322738040E+02  0.33300461453E+02  0.00000000000E+00 0.  1.
          5    1    4    4  501    0 -0.64822764112E+01  0.35480249084E+01 -0.32482318437E+02  0.33573528252E+02  0.41800000000E+01 0.  1.
         -5    1    4    4    0  501 -0.20234885782E+02  0.24240211020E+03  0.18660648196E+02  0.24399574960E+03  0.41800000000E+01 0.  1.
</event>
<event>
11    1  0.7882745E-009  0.1615650E+03  0.7561462E-02  0.1085615E+00
         22   -1    0    0    0    0  0.00000000000E+00  0.00000000000E+00  0.70152541330E+03  0.70152541330E+03  0.00000000000E+00 0. -1.
         22   -1    0    0    0    0 -0.00000000000E+00 -0.00000000000E+00 -0.13998517632E+04  0.13998517632E+04  0.00000000000E+00 0.  1.
        -24    2    1    2    0    0 -0.73801170691E+02  0.66773901007E+02 -0.12387016795E+04  0.12452009338E+04  0.78981947327E+02 0.  0.
         25    2    1    2    0    0  0.15754109165E+03 -0.11757898488E+03 -0.61045280312E+02  0.24087226013E+03  0.12509558829E+03 0.  0.
         24    2    1    2    0    0 -0.83739920954E+02  0.50805083876E+02  0.60142060991E+03  0.61530398260E+03  0.85432488395E+02 0.  0.
        -13    1    5    5    0    0  0.10832833507E+02  0.31679123151E+02  0.15667066331E+03  0.16020803310E+03  0.00000000000E+00 0.  1.
         14    1    5    5    0    0 -0.94572754461E+02  0.19125960725E+02  0.44474994660E+03  0.45509594951E+03  0.00000000000E+00 0. -1.
         13    1    3    3    0    0  0.16711881732E+02  0.65966698924E+01 -0.21298981472E+03  0.21374626130E+03  0.00000000000E+00 0. -1.
        -14    1    3    3    0    0 -0.90513052423E+02  0.60177231114E+02 -0.10257118648E+04  0.10314546725E+04  0.00000000000E+00 0.  1.
          5    1    4    4  501    0 -0.17642858317E+02  0.33113703001E+01  0.27402012089E+01  0.18633752320E+02  0.41800000000E+01 0.  1.
         -5    1    4    4    0  501  0.17518394996E+03 -0.12089035518E+03 -0.63785481521E+02  0.22223850781E+03  0.41800000000E+01 0.  1.
</event>
<event>
11    1  0.7882745E-009  0.1269007E+03  0.7561462E-02  0.1123137E+00
         22   -1    0    0    0    0  0.00000000000E+00  0.00000000000E+00  0.21578525650E+03  0.21578525650E+03  0.00000000000E+00 0. -1.
         22   -1    0    0    0    0 -0.00000000000E+00 -0.00000000000E+00 -0.38256291576E+03  0.38256291576E+03  0.00000000000E+00 0.  1.
        -24    2    1    2    0    0 -0.27267389287E+02 -0.17993719428E+02 -0.22390337318E+03  0.23495139246E+03  0.63262562708E+02 0.  0.
         25    2    1    2    0    0  0.46893387039E+02  0.17157063606E+02 -0.11182806943E+03  0.17506193117E+03  0.12509119895E+03 0.  0.
         24    2    1    2    0    0 -0.19625997752E+02  0.83665582240E+00  0.16895378336E+03  0.18833484863E+03  0.80862565612E+02 0.  0.
        -13    1    5    5    0    0  0.80815560455E+01  0.91753534950E+01 -0.40866884966E+01  0.12891845591E+02  0.00000000000E+00 0.  1.
         14    1    5    5    0    0 -0.27707553798E+02 -0.83386976726E+01  0.17304047185E+03  0.17544300304E+03  0.00000000000E+00 0. -1.
         11    1    3    3    0    0 -0.26539431152E+02  0.11740488417E+02 -0.44684396161E+02  0.53281101100E+02  0.00000000000E+00 0. -1.
        -12    1    3    3    0    0 -0.72795813466E+00 -0.29734207845E+02 -0.17921897702E+03  0.18167029136E+03  0.00000000000E+00 0.  1.
          5    1    4    4  501    0  0.72244082491E+02 -0.20841775367E+02 -0.29619175396E+02  0.80921906840E+02  0.41800000000E+01 0.  1.
         -5    1    4    4    0  501 -0.25350695452E+02  0.37998838973E+02 -0.82208894031E+02  0.94140024331E+02  0.41800000000E+01 0.  1.
</event>
<event>
11    1  0.7882745E-009  0.1617196E+03  0.7561462E-02  0.1085471E+00
         22   -1    0    0    0    0  0.00000000000E+00  0.00000000000E+00  0.11704988522E+04  0.11704988522E+04  0.00000000000E+00 0.  1.
         22   -1    0    0    0    0 -0.00000000000E+00 -0.00000000000E+00 -0.17063143674E+03  0.17063143674E+03  0.00000000000E+00 0.  1.
        -24    2    1    2    0    0  0.54514104275E+02 -0.91819473119E+02 -0.97461514731E+02  0.16416341306E+03  0.77770663664E+02 0.  0.
         25    2    1    2    0    0 -0.38625253221E+02  0.74037086136E+02  0.11065577611E+03  0.18672245044E+03  0.12508865817E+03 0.  0.
         24    2    1    2    0    0 -0.15888851053E+02  0.17782386983E+02  0.98667315409E+03  0.99024442545E+03  0.80569474722E+02 0.  0.
        -13    1    5    5    0    0 -0.38172178680E+02  0.25094330731E+02  0.87210063347E+03  0.87329625876E+03  0.00000000000E+00 0.  1.
         14    1    5    5    0    0  0.22283327627E+02 -0.73119437474E+01  0.11457252062E+03  0.11694816669E+03  0.00000000000E+00 0. -1.
         11    1    3    3    0    0  0.21797702077E+02 -0.13043560696E+02  0.97056869854E+01  0.27193283202E+02  0.00000000000E+00 0. -1.
        -12    1    3    3    0    0  0.32716402197E+02 -0.78775912423E+02 -0.10716720172E+03  0.13697012986E+03  0.00000000000E+00 0.  1.
          5    1    4    4  501    0 -0.83397250716E+01 -0.29639966911E+02  0.59526945579E+02  0.67149149680E+02  0.41800000000E+01 0. -1.
         -5    1    4    4    0  501 -0.30285528150E+02  0.10367705305E+03  0.51128830534E+02  0.11957330076E+03  0.41800000000E+01 0. -1.
</event>
<event>
11    1  0.7882745E-009  0.1476918E+03  0.7561462E-02  0.1099261E+00
         22   -1    0    0    0    0  0.00000000000E+00  0.00000000000E+00  0.10339167930E+04  0.10339167930E+04  0.00000000000E+00 0.  1.
         22   -1    0    0    0    0 -0.00000000000E+00 -0.00000000000E+00 -0.13700185977E+03  0.13700185977E+03  0.00000000000E+00 0.  1.
        -24    2    1    2    0    0 -0.20891153556E+02  0.31505377377E+02 -0.94544762205E+02  0.12431115110E+03  0.71312839854E+02 0.  0.
         25    2    1    2    0    0 -0.63940394403E+01  0.47753150668E+02  0.16757856331E+03  0.21461881376E+03  0.12512958562E+03 0.  0.
         24    2    1    2    0    0  0.27285192996E+02 -0.79258528045E+02  0.82388113213E+03  0.83198868792E+03  0.79991630381E+02 0.  0.
        -13    1    5    5    0    0 -0.77606894208E+01 -0.57240804829E+02  0.67483459171E+03  0.67730234327E+03  0.00000000000E+00 0.  1.
         14    1    5    5    0    0  0.35045882417E+02 -0.22017723216E+02  0.14904654042E+03  0.15468634465E+03  0.00000000000E+00 0. -1.
         11    1    3    3    0    0 -0.99123655177E+01 -0.85491140192E+01  0.68258052805E+01  0.14762586440E+02  0.00000000000E+00 0. -1.
        -12    1    3    3    0    0 -0.10978788038E+02  0.40054491396E+02 -0.10137056749E+03  0.10954856466E+03  0.00000000000E+00 0.  1.
          5    1    4    4  501    0  0.15888328460E+02  0.54457182183E+02  0.13137649742E+02  0.58378882426E+02  0.41800000000E+01 0. -1.
         -5    1    4    4    0  501 -0.22282367900E+02 -0.67040315144E+01  0.15444091357E+03  0.15623993133E+03  0.41800000000E+01 0. -1.
</event>
<event>
11    1  0.7882745E-009  0.3405737E+03  0.7561462E-02  0.9843458E-01
         22   -1    0    0    0    0  0.00000000000E+00  0.00000000000E+00  0.39936502280E+03  0.39936502280E+03  0.00000000000E+00 0. -1.
         22   -1    0    0    0    0 -0.00000000000E+00 -0.00000000000E+00 -0.25706780058E+03  0.25706780058E+03  0.00000000000E+00 0.  1.
         24    2    1    2    0    0  0.67931165014E+02  0.15267080917E+03 -0.12500455168E+03  0.22348865468E+03  0.79987634514E+02 0.  0.
         25    2    1    2    0    0  0.51751370592E+02 -0.15708465477E+02  0.72256380051E+02  0.15425059882E+03  0.12508917832E+03 0.  0.
        -24    2    1    2    0    0 -0.11968253561E+03 -0.13696234370E+03  0.19504539385E+03  0.27869356988E+03  0.80899983389E+02 0.  0.
        -13    1    3    3    0    0  0.51508027563E+02  0.12976848440E+03 -0.13438723123E+03  0.19378561444E+03  0.00000000000E+00 0.  1.
         14    1    3    3    0    0  0.16423137451E+02  0.22902324772E+02  0.93826795497E+01  0.29703040236E+02  0.00000000000E+00 0. -1.
         13    1    5    5    0    0 -0.12905867283E+03 -0.13071251382E+03  0.19432476673E+03  0.26740235090E+03  0.00000000000E+00 0. -1.
        -14    1    5    5    0    0  0.93761372222E+01 -0.62498298735E+01  0.72062711792E+00  0.11291218982E+02  0.00000000000E+00 0.  1.
          5    1    4    4  501    0  0.48617849786E+02 -0.58911292711E+02  0.83729492681E+01  0.76953326154E+02  0.41800000000E+01 0. -1.
         -5    1    4    4    0  501  0.31335208052E+01  0.43202827234E+02  0.63883430783E+02  0.77297272670E+02  0.41800000000E+01 0. -1.
</event>
<event>
11    1  0.7882745E-009  0.1759699E+03  0.7561462E-02  0.1072950E+00
         22   -1    0    0    0    0  0.00000000000E+00  0.00000000000E+00  0.93823973083E+03  0.93823973083E+03  0.00000000000E+00 0.  1.
         22   -1    0    0    0    0 -0.00000000000E+00 -0.00000000000E+00 -0.20803318684E+03  0.20803318684E+03  0.00000000000E+00 0.  1.
         24    2    1    2    0    0  0.43652316197E+02 -0.11046670523E+03 -0.11640096710E+03  0.18600834334E+03  0.83315670656E+02 0.  0.
         25    2    1    2    0    0 -0.52733444900E+02  0.13897445049E+03  0.11937621403E+03  0.22802146789E+03  0.12509354595E+03 0.  0.
        -24    2    1    2    0    0  0.90811287031E+01 -0.28507745266E+02  0.72723129706E+03  0.73224310644E+03  0.80121464467E+02 0.  0.
        -13    1    3    3    0    0  0.34426492546E+02 -0.11355088523E+03 -0.12548367554E+03  0.17269956500E+03  0.00000000000E+00 0.  1.
         14    1    3    3    0    0  0.92258236515E+01  0.30841799967E+01  0.90827084394E+01  0.13308778340E+02  0.00000000000E+00 0. -1.
         13    1    5    5    0    0  0.15887602014E+02  0.22537555440E+02  0.13562810899E+03  0.13840282241E+03  0.00000000000E+00 0. -1.
        -14    1    5    5    0    0 -0.68064733112E+01 -0.51045300706E+02  0.59160318806E+03  0.59384028402E+03  0.00000000000E+00 0.  1.
          5    1    4    4  501    0 -0.69898671614E+02  0.15413987171E+03  0.11406491199E+03  0.20414015012E+03  0.41800000000E+01 0.  1.
         -5    1    4    4    0  501  0.17165226713E+02 -0.15165421217E+02  0.53113020476E+01  0.23881317766E+02  0.41800000000E+01 0.  1.
</event>
<event>
11    1  0.7882745E-009  0.1462205E+03  0.7561462E-02  0.1100804E+00
         22   -1    0    0    0    0  0.00000000000E+00  0.00000000000E+00  0.12666236279E+04  0.12666236279E+04  0.00000000000E+00 0.  1.
         22   -1    0    0    0    0 -0.00000000000E+00 -0.00000000000E+00 -0.33931573122E+03  0.33931573122E+03  0.00000000000E+00 0. -1.
        -24    2    1    2    0    0  0.15727734751E+02 -0.23506807431E+02 -0.29383912616E+03  0.30568065961E+03  0.79368141999E+02 0.  0.
         25    2    1    2    0    0 -0.78336082338E+02 -0.19047989596E+02  0.11491184119E+03  0.18802014289E+03  0.12508986843E+03 0.  0.
         24    2    1    2    0    0  0.62608347587E+02  0.42554797027E+02  0.11062351816E+04  0.11122385566E+04  0.87106909927E+02 0.  0.
        -13    1    5    5    0    0  0.10697928305E+02  0.55407894618E+02  0.39708046611E+03  0.40107028937E+03  0.00000000000E+00 0.  1.
         14    1    5    5    0    0  0.51910419282E+02 -0.12853097591E+02  0.70915471551E+03  0.71116826720E+03  0.00000000000E+00 0. -1.
         13    1    3    3    0    0  0.30913410090E+02 -0.38479516279E+02 -0.26637270580E+03  0.27090723595E+03  0.00000000000E+00 0. -1.
        -14    1    3    3    0    0 -0.15185675339E+02  0.14972708848E+02 -0.27466420357E+02  0.34773423660E+02  0.00000000000E+00 0.  1.
          5    1    4    4  501    0  0.23316868514E+02 -0.22264606046E+02 -0.25272923509E+01  0.32607493715E+02  0.41800000000E+01 0.  1.
         -5    1    4    4    0  501 -0.10165295085E+03  0.32166164504E+01  0.11743913354E+03  0.15541264918E+03  0.41800000000E+01 0.  1.
</event>
<event>
11    1  0.7882745E-009  0.1413542E+03  0.7561462E-02  0.1106056E+00
         22   -1    0    0    0    0  0.00000000000E+00  0.00000000000E+00  0.46946507621E+03  0.46946507621E+03  0.00000000000E+00 0. -1.
         22   -1    0    0    0    0 -0.00000000000E+00 -0.00000000000E+00 -0.47758894588E+03  0.47758894588E+03  0.00000000000E+00 0.  1.
        -24    2    1    2    0    0  0.56968698573E+02 -0.49661667005E+01 -0.39861832969E+03  0.41038018912E+03  0.79026776675E+02 0.  0.
         25    2    1    2    0    0 -0.59245097427E+02 -0.60833249332E+02  0.19936858461E+02  0.15252139516E+03  0.12511847131E+03 0.  0.
         24    2    1    2    0    0  0.22763988544E+01  0.65799416033E+02  0.37055760156E+03  0.38415243781E+03  0.76976712469E+02 0.  0.
        -11    1    5    5    0    0  0.29701603807E+02  0.63798634744E+02  0.21621390213E+03  0.22737832469E+03  0.00000000000E+00 0.  1.
         12    1    5    5    0    0 -0.27425204953E+02  0.20007812882E+01  0.15434369943E+03  0.15677411312E+03  0.00000000000E+00 0. -1.
         11    1    3    3    0    0 -0.11122199721E+01  0.28750964473E+02 -0.87986322660E+02  0.92571312871E+02  0.00000000000E+00 0. -1.
        -12    1    3    3    0    0  0.58080918545E+02 -0.33717131174E+02 -0.31063200703E+03  0.31780887625E+03  0.00000000000E+00 0.  1.
          5    1    4    4  501    0  0.92987959141E+01  0.11071590272E+02 -0.35587964307E+02  0.38639659938E+02  0.41800000000E+01 0.  1.
         -5    1    4    4    0  501 -0.68543893341E+02 -0.71904839604E+02  0.55524822768E+02  0.11388173522E+03  0.41800000000E+01 0.  1.
</event>
<event>
11    1  0.7882745E-009  0.1265913E+03  0.7561462E-02  0.1123530E+00
         22   -1    0    0    0    0  0.00000000000E+00  0.00000000000E+00  0.17514954653E+04  0.17514954653E+04  0.00000000000E+00 0.  1.
         22   -1    0    0    0    0 -0.00000000000E+00 -0.00000000000E+00 -0.35064548844E+02  0.35064548844E+02  0.00000000000E+00 0. -1.
        -24    2    1    2    0    0  0.72606374080E+00 -0.25145585059E+02  0.36483602197E+02  0.91403692195E+02  0.79942192246E+02 0.  0.
         25    2    1    2    0    0 -0.18281297986E+01 -0.24331275190E+00  0.66854322785E+03  0.68014684962E+03  0.12508512419E+03 0.  0.
         24    2    1    2    0    0  0.11020660578E+01  0.25388897811E+02  0.10114040864E+04  0.10150094723E+04  0.81610000724E+02 0.  0.
        -11    1    5    5    0    0  0.21316197535E+02  0.20020140717E+02  0.94359778583E+03  0.94405082900E+03  0.00000000000E+00 0.  1.
         12    1    5    5    0    0 -0.20214131477E+02  0.53687570942E+01  0.67806300590E+02  0.70958643334E+02  0.00000000000E+00 0. -1.
         11    1    3    3    0    0 -0.98001969960E+01 -0.47933817928E+02  0.22814728674E+01  0.48978565524E+02  0.00000000000E+00 0. -1.
        -12    1    3    3    0    0  0.10526260737E+02  0.22788232869E+02  0.34202129330E+02  0.42425126671E+02  0.00000000000E+00 0.  1.
          5    1    4    4  501    0 -0.51949432983E+02 -0.34837000405E+02  0.38874288625E+03  0.39376498599E+03  0.41800000000E+01 0.  1.
         -5    1    4    4    0  501  0.50121303185E+02  0.34593687653E+02  0.27980034160E+03  0.28638186363E+03  0.41800000000E+01 0.  1.
</event>
<event>
11    1  0.7882745E-009  0.2827143E+03  0.7561462E-02  0.1007784E+00
         22   -1    0    0    0    0  0.00000000000E+00  0.00000000000E+00  0.93980100537E+03  0.93980100537E+03  0.00000000000E+00 0. -1.
         22   -1    0    0    0    0 -0.00000000000E+00 -0.00000000000E+00 -0.92142942582E+03  0.92142942582E+03  0.00000000000E+00 0. -1.
        -24    2    1    2    0    0 -0.56361966468E+02  0.17185926839E+03 -0.50150071201E+03  0.53943274369E+03  0.82294844491E+02 0.  0.
         25    2    1    2    0    0  0.16721611326E+03  0.63607332648E+02 -0.34888408814E+03  0.41155158055E+03  0.12508986849E+03 0.  0.
         24    2    1    2    0    0 -0.11085414679E+03 -0.23546660103E+03  0.86875637970E+03  0.91024610695E+03  0.77956179242E+02 0.  0.
        -13    1    5    5    0    0 -0.98975072930E+02 -0.14014481414E+03  0.47810056765E+03  0.50795352817E+03  0.00000000000E+00 0.  1.
         14    1    5    5    0    0 -0.11879073857E+02 -0.95321786894E+02  0.39065581205E+03  0.40229257878E+03  0.00000000000E+00 0. -1.
         11    1    3    3    0    0 -0.57596691201E+02  0.94601115959E+02 -0.20473324782E+03  0.23277124552E+03  0.00000000000E+00 0. -1.
        -12    1    3    3    0    0  0.12347247329E+01  0.77258152427E+02 -0.29676746418E+03  0.30666149817E+03  0.00000000000E+00 0.  1.
          5    1    4    4  501    0  0.86381301177E+02 -0.26454781704E+02 -0.20105522437E+03  0.22045920329E+03  0.41800000000E+01 0.  1.
         -5    1    4    4    0  501  0.80834812078E+02  0.90062114352E+02 -0.14782886377E+03  0.19109237727E+03  0.41800000000E+01 0.  1.
</event>
<event>
11    1  0.7882745E-009  0.1980946E+03  0.7561462E-02  0.1055879E+00
         22   -1    0    0    0    0  0.00000000000E+00  0.00000000000E+00  0.36602077706E+03  0.36602077706E+03  0.00000000000E+00 0.  1.
         22   -1    0    0    0    0 -0.00000000000E+00 -0.00000000000E+00 -0.66762183267E+03  0.66762183267E+03  0.00000000000E+00 0. -1.
         24    2    1    2    0    0 -0.15707115995E+02 -0.57869499707E+02 -0.45899325658E+03  0.46857835444E+03  0.72768620795E+02 0.  0.
         25    2    1    2    0    0 -0.13032406902E+03  0.10395699502E+03 -0.11834782528E+03  0.23967831366E+03  0.12509223203E+03 0.  0.
        -24    2    1    2    0    0  0.14603118501E+03 -0.46087495311E+02  0.27574002625E+03  0.32538594163E+03  0.79964271494E+02 0.  0.
        -13    1    3    3    0    0 -0.13468202569E+02 -0.78923841000E+01 -0.14586467634E+02  0.21364626026E+02  0.00000000000E+00 0.  1.
         14    1    3    3    0    0 -0.22389134254E+01 -0.49977115607E+02 -0.44440678894E+03  0.44721372841E+03  0.00000000000E+00 0. -1.
         11    1    5    5    0    0 -0.76744838858E+01 -0.13001708680E+02  0.18211822605E+02  0.23656132695E+02  0.00000000000E+00 0. -1.
        -12    1    5    5    0    0  0.15370566890E+03 -0.33085786630E+02  0.25752820365E+03  0.30172980894E+03  0.00000000000E+00 0.  1.
          5    1    4    4  501    0 -0.79503860060E+01  0.83002627506E+02 -0.37960760331E+02  0.91712248557E+02  0.41800000000E+01 0.  1.
         -5    1    4    4    0  501 -0.12237368301E+03  0.20954367512E+02 -0.80387064945E+02  0.14796606510E+03  0.41800000000E+01 0.  1.
</event>
<event>
11    1  0.7882745E-009  0.1579865E+03  0.7561462E-02  0.1088987E+00
         22   -1    0    0    0    0  0.00000000000E+00  0.00000000000E+00  0.10351158981E+04  0.10351158981E+04  0.00000000000E+00 0. -1.
         22   -1    0    0    0    0 -0.00000000000E+00 -0.00000000000E+00 -0.60313537805E+02  0.60313537805E+02  0.00000000000E+00 0. -1.
         24    2    1    2    0    0 -0.83481345961E+02 -0.28544386992E+02  0.12091211205E+03  0.16978067725E+03  0.80136273790E+02 0.  0.
         25    2    1    2    0    0  0.96372915918E+02  0.50905759569E+02  0.17353477393E+03  0.24008438903E+03  0.12508821213E+03 0.  0.
        -24    2    1    2    0    0 -0.12891569957E+02 -0.22361372577E+02  0.68035547437E+03  0.68556436967E+03  0.80303859788E+02 0.  0.
        -11    1    3    3    0    0  0.26216812116E+01 -0.30502069311E+02  0.48024510932E+02  0.56952639051E+02  0.00000000000E+00 0.  1.
         12    1    3    3    0    0 -0.86103027173E+02  0.19576823199E+01  0.72887601115E+02  0.11282803820E+03  0.00000000000E+00 0. -1.
         13    1    5    5    0    0 -0.16117843499E+02 -0.76041104961E+01  0.65987537732E+03  0.66011599054E+03  0.00000000000E+00 0. -1.
        -14    1    5    5    0    0  0.32262735421E+01 -0.14757262081E+02  0.20480097049E+02  0.25448379128E+02  0.00000000000E+00 0.  1.
          5    1    4    4  501    0  0.11665520146E+03  0.39825948455E+02  0.88336286599E+02  0.15170798967E+03  0.41800000000E+01 0. -1.
         -5    1    4    4    0  501 -0.20282285545E+02  0.11079811114E+02  0.85198487328E+02  0.88376399362E+02  0.41800000000E+01 0. -1.
</event>
<event>
11    1  0.7882745E-009  0.3027739E+03  0.7561462E-02  0.9990240E-01
         22   -1    0    0    0    0  0.00000000000E+00  0.00000000000E+00  0.79858101189E+03  0.79858101189E+03  0.00000000000E+00 0. -1.
         22   -1    0    0    0    0 -0.00000000000E+00 -0.00000000000E+00 -0.11632120061E+03  0.11632120061E+03  0.00000000000E+00 0. -1.
        -24    2    1    2    0    0  0.10099515371E+03  0.56069678376E+02  0.73395604634E+02  0.15793313907E+03  0.78817077665E+02 0.  0.
         25    2    1    2    0    0  0.75990808652E+02  0.71588645518E+02  0.85078336298E+02  0.18380655559E+03  0.12508792668E+03 0.  0.
         24    2    1    2    0    0 -0.17698596236E+03 -0.12765832389E+03  0.52378587035E+03  0.57316251784E+03  0.80888536586E+02 0.  0.
        -13    1    5    5    0    0 -0.25650711854E+02 -0.19462273547E+02  0.24850718452E+02  0.40673053953E+02  0.00000000000E+00 0.  1.
         14    1    5    5    0    0 -0.15133525051E+03 -0.10819605035E+03  0.49893515189E+03  0.53248946389E+03  0.00000000000E+00 0. -1.
         13    1    3    3    0    0  0.51540804753E+02  0.66308051682E+02  0.24131286393E+02  0.87381526969E+02  0.00000000000E+00 0. -1.
        -14    1    3    3    0    0  0.49454348957E+02 -0.10238373306E+02  0.49264318241E+02  0.70551612104E+02  0.00000000000E+00 0.  1.
          5    1    4    4  501    0 -0.26228290447E+02 -0.13184973350E+00  0.45611831066E+02  0.52781172186E+02  0.41800000000E+01 0.  1.
         -5    1    4    4    0  501  0.10221909910E+03  0.71720495251E+02  0.39466505232E+02  0.13102538340E+03  0.41800000000E+01 0.  1.
</event>
<event>
11    1  0.7882745E-009  0.2049018E+03  0.7561462E-02  0.1051110E+00
         22   -1    0    0    0    0  0.00000000000E+00  0.00000000000E+00  0.64834713411E+03  0.64834713411E+03  0.00000000000E+00 0. -1.
         22   -1    0    0    0    0 -0.00000000000E+00 -0.00000000000E+00 -0.30524928920E+03  0.30524928920E+03  0.00000000000E+00 0. -1.
        -24    2    1    2    0    0 -0.91103742717E+01  0.17767906940E+02 -0.11906565660E+03  0.14427926272E+03  0.79001124258E+02 0.  0.
         25    2    1    2    0    0  0.53966838132E+02 -0.17203666868E+03 -0.83498892301E+02  0.23479445983E+03  0.12508932153E+03 0.  0.
         24    2    1    2    0    0 -0.44856463860E+02  0.15426876174E+03  0.54566239380E+03  0.57452270076E+03  0.80733713415E+02 0.  0.
        -13    1    5    5    0    0 -0.17115155688E+02  0.12492875846E+03  0.29784682104E+03  0.32343910098E+03  0.00000000000E+00 0.  1.
         14    1    5    5    0    0 -0.27741308172E+02  0.29340003280E+02  0.24781557277E+03  0.25108359978E+03  0.00000000000E+00 0. -1.
         11    1    3    3    0    0 -0.15946304666E+00  0.39626095529E+02 -0.11320934990E+03  0.11994419444E+03  0.00000000000E+00 0. -1.
        -12    1    3    3    0    0 -0.89509112250E+01 -0.21858188589E+02 -0.58563067002E+01  0.24335068283E+02  0.00000000000E+00 0.  1.
          5    1    4    4  501    0  0.22640732379E+02 -0.67245315053E+01 -0.60302511397E+02  0.64897514339E+02  0.41800000000E+01 0.  1.
         -5    1    4    4    0  501  0.31326105754E+02 -0.16531213717E+03 -0.23196380904E+02  0.16989694549E+03  0.41800000000E+01 0.  1.
</event>
<event>
11    1  0.7882745E-009  0.1631315E+03  0.7561462E-02  0.1084168E+00
         22   -1    0    0    0    0  0.00000000000E+00  0.00000000000E+00  0.62644435945E+03  0.62644435945E+03  0.00000000000E+00 0. -1.
         22   -1    0    0    0    0 -0.00000000000E+00 -0.00000000000E+00 -0.96332332876E+03  0.96332332876E+03  0.00000000000E+00 0. -1.
        -24    2    1    2    0    0 -0.16317946472E+02 -0.69591901065E+02 -0.61760625511E+03  0.62685848231E+03  0.80029759647E+02 0.  0.
         25    2    1    2    0    0 -0.65867802516E+02  0.13342504373E+03 -0.30554670691E+03  0.36214397417E+03  0.12509459710E+03 0.  0.
         24    2    1    2    0    0  0.82185748988E+02 -0.63833142665E+02  0.58627399271E+03  0.60076523173E+03  0.79827950535E+02 0.  0.
        -11    1    5    5    0    0  0.73014717932E+01 -0.15561378285E+02  0.15709102758E+02  0.23286130935E+02  0.00000000000E+00 0.  1.
         12    1    5    5    0    0  0.74884277194E+02 -0.48271764381E+02  0.57056488995E+03  0.57747910079E+03  0.00000000000E+00 0. -1.
         13    1    3    3    0    0 -0.37794228894E+02 -0.75913243788E+02 -0.47641271863E+03  0.48390112915E+03  0.00000000000E+00 0. -1.
        -14    1    3    3    0    0  0.21476282422E+02  0.63213427224E+01 -0.14119353647E+03  0.14295735316E+03  0.00000000000E+00 0.  1.
          5    1    4    4  501    0  0.17521261765E+02  0.76556099631E+02 -0.20519722651E+03  0.21975259993E+03  0.41800000000E+01 0. -1.
         -5    1    4    4    0  501 -0.83389064281E+02  0.56868944100E+02 -0.10034948040E+03  0.14239137425E+03  0.41800000000E+01 0. -1.
</event>
<event>
11    1  0.7882745E-009  0.1303146E+03  0.7561462E-02  0.1118883E+00
         22   -1    0    0    0    0  0.00000000000E+00  0.00000000000E+00  0.43535647233E+03  0.43535647233E+03  0.00000000000E+00 0.  1.
         22   -1    0    0    0    0 -0.00000000000E+00 -0.00000000000E+00 -0.92572686800E+02  0.92572686800E+02  0.00000000000E+00 0.  1.
        -24    2    1    2    0    0 -0.12544316506E+02  0.30436558772E+02 -0.24761552500E+02  0.90595861165E+02  0.80689104541E+02 0.  0.
         25    2    1    2    0    0  0.40893361066E+02 -0.42976264901E+02  0.15265392533E+03  0.20607971135E+03  0.12508557145E+03 0.  0.
         24    2    1    2    0    0 -0.28349044559E+02  0.12539706129E+02  0.21489141270E+03  0.23125358662E+03  0.79617771351E+02 0.  0.
        -11    1    5    5    0    0 -0.54059743986E+02  0.18282856886E+02  0.16853024395E+03  0.17793021638E+03  0.00000000000E+00 0.  1.
         12    1    5    5    0    0  0.25710699427E+02 -0.57431507564E+01  0.46361168744E+02  0.53323370232E+02  0.00000000000E+00 0. -1.
         13    1    3    3    0    0  0.27808192956E+02  0.36665277599E+02 -0.93784788806E+01  0.46963752437E+02  0.00000000000E+00 0. -1.
        -14    1    3    3    0    0 -0.40352509462E+02 -0.62287188273E+01 -0.15383073619E+02  0.43632108728E+02  0.00000000000E+00 0.  1.
          5    1    4    4  501    0 -0.14104414466E+02  0.37355348381E+02  0.55297362850E+02  0.68334671276E+02  0.41800000000E+01 0. -1.
         -5    1    4    4    0  501  0.54997775532E+02 -0.80331613283E+02  0.97356562481E+02  0.13774504007E+03  0.41800000000E+01 0. -1.
</event>
<event>
11    1  0.7882745E-009  0.1364915E+03  0.7561462E-02  0.1111541E+00
         22   -1    0    0    0    0  0.00000000000E+00  0.00000000000E+00  0.19862187179E+03  0.19862187179E+03  0.00000000000E+00 0.  1.
         22   -1    0    0    0    0 -0.00000000000E+00 -0.00000000000E+00 -0.40822135134E+03  0.40822135134E+03  0.00000000000E+00 0.  1.
        -24    2    1    2    0    0  0.46853351869E+02 -0.64454261945E+02 -0.25928832272E+03  0.29123557462E+03  0.10601008049E+03 0.  0.
         25    2    1    2    0    0  0.36823127725E+02  0.10336241528E+02 -0.62868389090E+02  0.14513195064E+03  0.12509223847E+03 0.  0.
         24    2    1    2    0    0 -0.83676479594E+02  0.54118020417E+02  0.11255723225E+03  0.17047569787E+03  0.80388554283E+02 0.  0.
        -11    1    5    5    0    0 -0.89089441845E+02  0.67905774148E+02  0.10619425467E+03  0.15435459998E+03  0.00000000000E+00 0.  1.
         12    1    5    5    0    0  0.54129622514E+01 -0.13787753731E+02  0.63629775848E+01  0.16121097885E+02  0.00000000000E+00 0. -1.
         13    1    3    3    0    0 -0.48081330497E+01 -0.15080190163E+02  0.56673322269E+01  0.16812166230E+02  0.00000000000E+00 0. -1.
        -14    1    3    3    0    0  0.51661484919E+02 -0.49374071782E+02 -0.26495565494E+03  0.27442340839E+03  0.00000000000E+00 0.  1.
          5    1    4    4  501    0  0.78520565970E+01 -0.54117858911E+02 -0.47812577158E+02  0.72759276937E+02  0.41800000000E+01 0.  1.
         -5    1    4    4    0  501  0.28971071128E+02  0.64454100439E+02 -0.15055811931E+02  0.72372673701E+02  0.41800000000E+01 0.  1.
</event>
<event>
11    1  0.7882745E-009  0.1848355E+03  0.7561462E-02  0.1065797E+00
         22   -1    0    0    0    0  0.00000000000E+00  0.00000000000E+00  0.82182641903E+03  0.82182641903E+03  0.00000000000E+00 0. -1.
         22   -1    0    0    0    0 -0.00000000000E+00 -0.00000000000E+00 -0.77675951410E+03  0.77675951410E+03  0.00000000000E+00 0.  1.
         24    2    1    2    0    0 -0.22313379794E+02 -0.30422922610E+02 -0.68989643615E+03  0.69541899526E+03  0.78911629172E+02 0.  0.
         25    2    1    2    0    0  0.15130066248E+03  0.62884487045E+02  0.65795720827E+02  0.21638607657E+03  0.12508999990E+03 0.  0.
        -24    2    1    2    0    0 -0.12898728269E+03 -0.32461564435E+02  0.66916762026E+03  0.68678086130E+03  0.78684021105E+02 0.  0.
        -11    1    3    3    0    0 -0.83671293105E+01  0.59569336921E+01 -0.55275815204E+03  0.55285356882E+03  0.00000000000E+00 0.  1.
         12    1    3    3    0    0 -0.13946250483E+02 -0.36379856302E+02 -0.13713828411E+03  0.14256542644E+03  0.00000000000E+00 0. -1.
         13    1    5    5    0    0 -0.11263865173E+03 -0.98862470808E+01  0.62031194622E+03  0.63053319847E+03  0.00000000000E+00 0. -1.
        -14    1    5    5    0    0 -0.16348630960E+02 -0.22575317354E+02  0.48855674037E+02  0.56247662827E+02  0.00000000000E+00 0.  1.
          5    1    4    4  501    0  0.88210951914E+02 -0.41572727434E+00  0.87503920107E+02  0.12432116996E+03  0.41800000000E+01 0.  1.
         -5    1    4    4    0  501  0.63089710569E+02  0.63300214319E+02 -0.21708199279E+02  0.92064906607E+02  0.41800000000E+01 0.  1.
</event>
<event>
11    1  0.7882745E-009  0.1391235E+03  0.7561462E-02  0.1108541E+00
         22   -1    0    0    0    0  0.00000000000E+00  0.00000000000E+00  0.33079682022E+03  0.33079682022E+03  0.00000000000E+00 0. -1.
         22   -1    0    0    0    0 -0.00000000000E+00 -0.00000000000E+00 -0.12645038200E+04  0.12645038200E+04  0.00000000000E+00 0.  1.
        -24    2    1    2    0    0 -0.19197530012E+02  0.57293646623E+02 -0.12003059231E+04  0.12045302493E+04  0.80670350098E+02 0.  0.
         25    2    1    2    0    0  0.18528000335E+02 -0.82938008902E+02  0.51611182442E+02  0.15978937438E+03  0.12508768882E+03 0.  0.
         24    2    1    2    0    0  0.66952967736E+00  0.25644362279E+02  0.21498774083E+03  0.23098101657E+03  0.80463778942E+02 0.  0.
        -13    1    5    5    0    0 -0.22792474221E+02 -0.88763736127E+00  0.13714340505E+02  0.26615182071E+02  0.00000000000E+00 0.  1.
         14    1    5    5    0    0  0.23462003898E+02  0.26531999640E+02  0.20127340033E+03  0.20436583450E+03  0.00000000000E+00 0. -1.
         13    1    3    3    0    0 -0.22697015555E+02  0.35519987977E+02 -0.22145944716E+03  0.22543538053E+03  0.00000000000E+00 0. -1.
        -14    1    3    3    0    0  0.34994855430E+01  0.21773658646E+02 -0.97884647594E+03  0.97909486878E+03  0.00000000000E+00 0.  1.
          5    1    4    4  501    0 -0.37900010633E+02 -0.14287187272E+02 -0.20205104990E+02  0.45456057834E+02  0.41800000000E+01 0.  1.
         -5    1    4    4    0  501  0.56428010968E+02 -0.68650821630E+02  0.71816287432E+02  0.11433331655E+03  0.41800000000E+01 0.  1.
</event>
<event>
11    1  0.7882745E-009  0.2204346E+03  0.7561462E-02  0.1040946E+00
         22   -1    0    0    0    0  0.00000000000E+00  0.00000000000E+00  0.15637247558E+03  0.15637247558E+03  0.00000000000E+00 0.  1.
         22   -1    0    0    0    0 -0.00000000000E+00 -0.00000000000E+00 -0.73134083980E+03  0.73134083980E+03  0.00000000000E+00 0. -1.
        -24    2    1    2    0    0 -0.14143951108E+03  0.29239665132E+02 -0.21206197748E+03  0.26897706343E+03  0.80735896884E+02 0.  0.
         25    2    1    2    0    0  0.23481461863E+03 -0.58742013712E+01 -0.40684973069E+03  0.48615630766E+03  0.12509532665E+03 0.  0.
         24    2    1    2    0    0 -0.93375107549E+02 -0.23365463761E+02  0.43943343955E+02  0.13257994429E+03  0.79884720337E+02 0.  0.
        -13    1    5    5    0    0 -0.75067631694E+02 -0.70463241156E+00  0.62802350049E+02  0.97876355708E+02  0.00000000000E+00 0.  1.
         14    1    5    5    0    0 -0.18307475855E+02 -0.22660831349E+02 -0.18859006094E+02  0.34703588582E+02  0.00000000000E+00 0. -1.
         13    1    3    3    0    0 -0.12278765833E+03  0.50421349464E+02 -0.19534214100E+03  0.23617297383E+03  0.00000000000E+00 0. -1.
        -14    1    3    3    0    0 -0.18651852753E+02 -0.21181684332E+02 -0.16719836487E+02  0.32804089599E+02  0.00000000000E+00 0.  1.
          5    1    4    4  501    0  0.92810006885E+02 -0.22324277645E+02 -0.64904072835E+02  0.11550792969E+03  0.41800000000E+01 0.  1.
         -5    1    4    4    0  501  0.14200461175E+03  0.16450076274E+02 -0.34194565786E+03  0.37064837797E+03  0.41800000000E+01 0.  1.
</event>
<event>
11    1  0.7882745E-009  0.1444934E+03  0.7561462E-02  0.1102642E+00
         22   -1    0    0    0    0  0.00000000000E+00  0.00000000000E+00  0.12813609095E+04  0.12813609095E+04  0.00000000000E+00 0. -1.
         22   -1    0    0    0    0 -0.00000000000E+00 -0.00000000000E+00 -0.24198463162E+04  0.24198463162E+04  0.00000000000E+00 0. -1.
        -24    2    1    2    0    0 -0.18629603756E+02  0.52793248755E+02 -0.24046644834E+04  0.24066156556E+04  0.79078738944E+02 0.  0.
         25    2    1    2    0    0 -0.30678350175E+02 -0.92279656919E+02  0.67972245647E+03  0.69794538212E+03  0.12509373419E+03 0.  0.
         24    2    1    2    0    0  0.49307953931E+02  0.39486408163E+02  0.58645662025E+03  0.59664618795E+03  0.89804540074E+02 0.  0.
        -13    1    5    5    0    0  0.12586386125E+02  0.50551366298E+02  0.15566436240E+03  0.16415008825E+03  0.00000000000E+00 0.  1.
         14    1    5    5    0    0  0.36721567806E+02 -0.11064958134E+02  0.43079225784E+03  0.43249609970E+03  0.00000000000E+00 0. -1.
         11    1    3    3    0    0  0.22664068213E+02  0.59021814544E+01 -0.12819409998E+04  0.12821549137E+04  0.00000000000E+00 0. -1.
        -12    1    3    3    0    0 -0.41293671970E+02  0.46891067301E+02 -0.11227234836E+04  0.11244607419E+04  0.00000000000E+00 0.  1.
          5    1    4    4  501    0 -0.51080354982E+02  0.10602201546E+02  0.26721516387E+03  0.27229216945E+03  0.41800000000E+01 0. -1.
         -5    1    4    4    0  501  0.20402004808E+02 -0.10288185846E+03  0.41250729261E+03  0.42565321267E+03  0.41800000000E+01 0. -1.
</event>
<event>
11    1  0.7882745E-009  0.1279504E+03  0.7561462E-02  0.1121813E+00
         22   -1    0    0    0    0  0.00000000000E+00  0.00000000000E+00  0.15792580272E+04  0.15792580272E+04  0.00000000000E+00 0.  1.
         22   -1    0    0    0    0 -0.00000000000E+00 -0.00000000000E+00 -0.33155897005E+02  0.33155897005E+02  0.00000000000E+00 0.  1.
        -24    2    1    2    0    0  0.22806080562E+01 -0.28495851674E+02  0.48292685526E+02  0.98569788924E+02  0.81034591857E+02 0.  0.
         25    2    1    2    0    0 -0.10435741307E+02  0.13522081727E+02  0.59933646989E+03  0.61248254059E+03  0.12505561558E+03 0.  0.
         24    2    1    2    0    0  0.81551332510E+01  0.14973769947E+02  0.89847297478E+03  0.90136159470E+03  0.70059389131E+02 0.  0.
        -11    1    5    5    0    0  0.85486978007E+01 -0.67226512085E+01  0.81627662314E+03  0.81634906735E+03  0.00000000000E+00 0.  1.
         12    1    5    5    0    0 -0.39356454973E+00  0.21696421156E+02  0.82196351637E+02  0.85012527351E+02  0.00000000000E+00 0. -1.
         11    1    3    3    0    0  0.29039543129E+02  0.16538920836E+02  0.21419583556E+02  0.39694200172E+02  0.00000000000E+00 0. -1.
        -12    1    3    3    0    0 -0.26758935073E+02 -0.45034772511E+02  0.26873101970E+02  0.58875588752E+02  0.00000000000E+00 0.  1.
          5    1    4    4  501    0  0.39040576761E+02 -0.26136370928E+02  0.11975037607E+03  0.12870470655E+03  0.41800000000E+01 0.  1.
         -5    1    4    4    0  501 -0.49476318068E+02  0.39658452656E+02  0.47958609382E+03  0.48377783403E+03  0.41800000000E+01 0.  1.
</event>
<event>
11    1  0.7882745E-009  0.1386014E+03  0.7561462E-02  0.1109130E+00
         22   -1    0    0    0    0  0.00000000000E+00  0.00000000000E+00  0.29030700362E+03  0.29030700362E+03  0.00000000000E+00 0. -1.
         22   -1    0    0    0    0 -0.00000000000E+00 -0.00000000000E+00 -0.34074683016E+03  0.34074683016E+03  0.00000000000E+00 0.  1.
         24    2    1    2    0    0 -0.23734449307E+02 -0.62927845488E+02 -0.21292177834E+03  0.23836052786E+03  0.83407551981E+02 0.  0.
         25    2    1    2    0    0  0.60198625167E+02  0.57706560618E+01 -0.56544874543E+02  0.14999994315E+03  0.12508191381E+03 0.  0.
        -24    2    1    2    0    0 -0.36464175860E+02  0.57157189426E+02  0.21902682635E+03  0.24269336277E+03  0.79565930191E+02 0.  0.
        -11    1    3    3    0    0 -0.48393463464E+02 -0.51968958566E+02 -0.19040330297E+03  0.20321446244E+03  0.00000000000E+00 0.  1.
         12    1    3    3    0    0  0.24659014157E+02 -0.10958886921E+02 -0.22518475369E+02  0.35146065423E+02  0.00000000000E+00 0. -1.
         13    1    5    5    0    0  0.47496160043E+01  0.36010070725E+02  0.17519398514E+03  0.17891958102E+03  0.00000000000E+00 0. -1.
        -14    1    5    5    0    0 -0.41213791864E+02  0.21147118701E+02  0.43832841211E+02  0.63773781743E+02  0.00000000000E+00 0.  1.
          5    1    4    4  501    0 -0.31845461357E+02  0.29674790675E+02 -0.16742349187E+02  0.46824195315E+02  0.41800000000E+01 0. -1.
         -5    1    4    4    0  501  0.92044086524E+02 -0.23904134613E+02 -0.39802525357E+02  0.10317574783E+03  0.41800000000E+01 0. -1.
</event>
<event>
11    1  0.7882745E-009  0.1538126E+03  0.7561462E-02  0.1093046E+00
         22   -1    0    0    0    0  0.00000000000E+00  0.00000000000E+00  0.16949631248E+03  0.16949631248E+03  0.00000000000E+00 0.  1.
         22   -1    0    0    0    0 -0.00000000000E+00 -0.00000000000E+00 -0.17451635868E+04  0.17451635868E+04  0.00000000000E+00 0.  1.
         24    2    1    2    0    0 -0.84724619021E+02 -0.37071093911E+02 -0.15292186180E+04  0.15343037347E+04  0.83820293311E+02 0.  0.
         25    2    1    2    0    0  0.75882434078E+02 -0.47430228252E+02 -0.15696833706E+03  0.21975834580E+03  0.12508757475E+03 0.  0.
        -24    2    1    2    0    0  0.88421849430E+01  0.84501322163E+02  0.11051968077E+03  0.16059781877E+03  0.79739587875E+02 0.  0.
        -13    1    3    3    0    0 -0.72999235295E+02  0.10970034095E+01 -0.12629058468E+04  0.12650143358E+04  0.00000000000E+00 0.  1.
         14    1    3    3    0    0 -0.11725383726E+02 -0.38168097321E+02 -0.26631277113E+03  0.26928939887E+03  0.00000000000E+00 0. -1.
         11    1    5    5    0    0  0.21138543296E+02 -0.76674726447E+01  0.30686410679E+02  0.38043185327E+02  0.00000000000E+00 0. -1.
        -12    1    5    5    0    0 -0.12296358353E+02  0.92168794808E+02  0.79833270089E+02  0.12255463344E+03  0.00000000000E+00 0.  1.
          5    1    4    4  501    0  0.10145500282E+03 -0.53469990437E+02 -0.15529902596E+03  0.19309950114E+03  0.41800000000E+01 0. -1.
         -5    1    4    4    0  501 -0.25572568743E+02  0.60397621854E+01 -0.16693110978E+01  0.26658844666E+02  0.41800000000E+01 0. -1.
</event>
<event>
11    1  0.7882745E-009  0.1773203E+03  0.7561462E-02  0.1071831E+00
         22   -1    0    0    0    0  0.00000000000E+00  0.00000000000E+00  0.38082847856E+04  0.38082847856E+04  0.00000000000E+00 0. -1.
         22   -1    0    0    0    0 -0.00000000000E+00 -0.00000000000E+00 -0.74404665188E+03  0.74404665188E+03  0.00000000000E+00 0.  1.
         24    2    1    2    0    0  0.28355013136E+02 -0.12006317391E+03 -0.65005183231E+03  0.66612742007E+03  0.77066092207E+02 0.  0.
         25    2    1    2    0    0 -0.79952842571E+02  0.14762940274E+03  0.43168413182E+02  0.21377514985E+03  0.12509758275E+03 0.  0.
        -24    2    1    2    0    0  0.51597829435E+02 -0.27566228824E+02  0.36711215528E+04  0.36724288675E+04  0.78600881701E+02 0.  0.
        -11    1    3    3    0    0  0.43120145055E+02 -0.29375865945E+02 -0.28154065616E+03  0.28633447134E+03  0.00000000000E+00 0.  1.
         12    1    3    3    0    0 -0.14765131919E+02 -0.90687307968E+02 -0.36851117615E+03  0.37979294872E+03  0.00000000000E+00 0. -1.
         11    1    5    5    0    0  0.48291828631E+02  0.21595715333E+01  0.31966954317E+04  0.31970609076E+04  0.00000000000E+00 0. -1.
        -12    1    5    5    0    0  0.33060008039E+01 -0.29725800357E+02  0.47442612115E+03  0.47536795988E+03  0.00000000000E+00 0.  1.
          5    1    4    4  501    0 -0.66597873048E+02  0.59488909984E+02  0.77344081868E+02  0.11821077153E+03  0.41800000000E+01 0. -1.
         -5    1    4    4    0  501 -0.13354969522E+02  0.88140492751E+02 -0.34175668686E+02  0.95564378319E+02  0.41800000000E+01 0. -1.
</event>
<event>
11    1  0.7882745E-009  0.1610670E+03  0.7561462E-02  0.1086078E+00
         22   -1    0    0    0    0  0.00000000000E+00  0.00000000000E+00  0.79055532236E+02  0.79055532236E+02  0.00000000000E+00 0.  1.
         22   -1    0    0    0    0 -0.00000000000E+00 -0.00000000000E+00 -0.15157546115E+04  0.15157546115E+04  0.00000000000E+00 0.  1.
         24    2    1    2    0    0  0.77609636397E+02  0.48462720737E+02 -0.11881929164E+04  0.11944887136E+04  0.81418606775E+02 0.  0.
         25    2    1    2    0    0 -0.11951945672E+03  0.43212976139E+02 -0.17941654433E+03  0.25295585188E+03  0.12507639579E+03 0.  0.
        -24    2    1    2    0    0  0.41909820318E+02 -0.91675696877E+02 -0.69089618567E+02  0.14736557822E+03  0.82355156562E+02 0.  0.
        -13    1    3    3    0    0  0.47267401927E+02 -0.10356187502E+01 -0.85266910211E+03  0.85397885073E+03  0.00000000000E+00 0.  1.
         14    1    3    3    0    0  0.30342234470E+02  0.49498339488E+02 -0.33552381426E+03  0.34050986291E+03  0.00000000000E+00 0. -1.
         13    1    5    5    0    0 -0.19007489292E+02 -0.20048843012E+02 -0.40614770339E+02  0.49120263894E+02  0.00000000000E+00 0. -1.
        -14    1    5    5    0    0  0.60917309610E+02 -0.71626853865E+02 -0.28474848228E+02  0.98245314322E+02  0.00000000000E+00 0.  1.
          5    1    4    4  501    0 -0.65034951825E+01 -0.11624584005E+02  0.15607006873E+02  0.20939853543E+02  0.41800000000E+01 0. -1.
         -5    1    4    4    0  501 -0.11301596153E+03  0.54837560144E+02 -0.19502355120E+03  0.23201599834E+03  0.41800000000E+01 0. -1.
</event>
<event>
11    1  0.7882745E-009  0.1510442E+03  0.7561462E-02  0.1095817E+00
         22   -1    0    0    0    0  0.00000000000E+00  0.00000000000E+00  0.69062736445E+02  0.69062736445E+02  0.00000000000E+00 0.  1.
         22   -1    0    0    0    0 -0.00000000000E+00 -0.00000000000E+00 -0.18129370731E+04  0.18129370731E+04  0.00000000000E+00 0. -1.
        -24    2    1    2    0    0  0.67025148924E+01  0.70632421284E+02 -0.13028583546E+04  0.13072926496E+04  0.80872225894E+02 0.  0.
         25    2    1    2    0    0  0.65720532692E+02 -0.10675197134E+03 -0.42458798997E+03  0.46004095771E+03  0.12509016646E+03 0.  0.
         24    2    1    2    0    0 -0.72423047585E+02  0.36119550055E+02 -0.16427992145E+02  0.11466620228E+03  0.79553373923E+02 0.  0.
        -13    1    5    5    0    0 -0.44712863585E+02  0.61218539742E+02 -0.71515359670E+01  0.76145218135E+02  0.00000000000E+00 0.  1.
         14    1    5    5    0    0 -0.27710184000E+02 -0.25098989687E+02 -0.92764561777E+01  0.38520984149E+02  0.00000000000E+00 0. -1.
         11    1    3    3    0    0  0.38642225472E+02  0.22449257343E+02 -0.77286012886E+03  0.77415112835E+03  0.00000000000E+00 0. -1.
        -12    1    3    3    0    0 -0.31939710580E+02  0.48183163941E+02 -0.52999822572E+03  0.53314152124E+03  0.00000000000E+00 0.  1.
          5    1    4    4  501    0  0.51447196234E+02 -0.13268982909E+03 -0.30228638981E+03  0.33413760430E+03  0.41800000000E+01 0. -1.
         -5    1    4    4    0  501  0.14273336458E+02  0.25937857754E+02 -0.12230160016E+03  0.12590335341E+03  0.41800000000E+01 0. -1.
</event>
<event>
11    1  0.7882745E-009  0.1420344E+03  0.7561462E-02  0.1105308E+00
         22   -1    0    0    0    0  0.00000000000E+00  0.00000000000E+00  0.41274739464E+03  0.41274739464E+03  0.00000000000E+00 0.  1.
         22   -1    0    0    0    0 -0.00000000000E+00 -0.00000000000E+00 -0.15807406208E+04  0.15807406208E+04  0.00000000000E+00 0. -1.
         24    2    1    2    0    0 -0.30257765248E+02 -0.58718782051E+02 -0.13532370312E+04  0.13570630921E+04  0.77500617373E+02 0.  0.
         25    2    1    2    0    0  0.57667099126E+02  0.64601575821E+02 -0.19522172703E+03  0.24750119841E+03  0.12508582089E+03 0.  0.
        -24    2    1    2    0    0 -0.27409333878E+02 -0.58827937694E+01  0.38046553205E+03  0.38892372492E+03  0.75642341871E+02 0.  0.
        -11    1    3    3    0    0  0.84074350566E+01 -0.29734598305E+02 -0.16652776626E+03  0.16937038772E+03  0.00000000000E+00 0.  1.
         12    1    3    3    0    0 -0.38665200305E+02 -0.28984183747E+02 -0.11867092649E+04  0.11876927044E+04  0.00000000000E+00 0. -1.
         13    1    5    5    0    0 -0.12808963517E+02  0.32208465766E+02  0.24528908644E+03  0.24772603969E+03  0.00000000000E+00 0. -1.
        -14    1    5    5    0    0 -0.14600370361E+02 -0.38091259536E+02  0.13517644561E+03  0.14119768523E+03  0.00000000000E+00 0.  1.
          5    1    4    4  501    0  0.29505307563E+02  0.10037434634E+03 -0.11796513722E+03  0.15773020820E+03  0.41800000000E+01 0.  1.
         -5    1    4    4    0  501  0.28161791563E+02 -0.35772770518E+02 -0.77256589811E+02  0.89770990213E+02  0.41800000000E+01 0.  1.
</event>
<event>
11    1  0.7882745E-009  0.1521804E+03  0.7561462E-02  0.1094671E+00
         22   -1    0    0    0    0  0.00000000000E+00  0.00000000000E+00  0.13737395066E+04  0.13737395066E+04  0.00000000000E+00 0.  1.
         22   -1    0    0    0    0 -0.00000000000E+00 -0.00000000000E+00 -0.40486182495E+03  0.40486182495E+03  0.00000000000E+00 0.  1.
        -24    2    1    2    0    0 -0.57583340003E+01  0.85821781443E+02 -0.37598038659E+03  0.39679239457E+03  0.93190217868E+02 0.  0.
         25    2    1    2    0    0  0.18862683377E+02 -0.11353264960E+03  0.42242296589E+03  0.45533812695E+03  0.12508470888E+03 0.  0.
         24    2    1    2    0    0 -0.13104349377E+02  0.27710868153E+02  0.92243510240E+03  0.92647081007E+03  0.80759071211E+02 0.  0.
        -13    1    5    5    0    0 -0.17038119527E+02  0.50456817310E+02  0.80670803432E+03  0.80846400079E+03  0.00000000000E+00 0.  1.
         14    1    5    5    0    0  0.39337701499E+01 -0.22745949158E+02  0.11572706808E+03  0.11800680928E+03  0.00000000000E+00 0. -1.
         11    1    3    3    0    0  0.27056985732E+02 -0.15777335184E+01 -0.14759750193E+03  0.15006529344E+03  0.00000000000E+00 0. -1.
        -12    1    3    3    0    0 -0.32815319732E+02  0.87399514961E+02 -0.22838288467E+03  0.24672710113E+03  0.00000000000E+00 0.  1.
          5    1    4    4  501    0 -0.26626334884E+02 -0.11030097117E+03  0.36282818954E+03  0.38018026445E+03  0.41800000000E+01 0.  1.
         -5    1    4    4    0  501  0.45489018262E+02 -0.32316784238E+01  0.59594776348E+02  0.75157862502E+02  0.41800000000E+01 0.  1.
</event>
<event>
11    1  0.7882745E-009  0.1344982E+03  0.7561462E-02  0.1113862E+00
         22   -1    0    0    0    0  0.00000000000E+00  0.00000000000E+00  0.55018066848E+03  0.55018066848E+03  0.00000000000E+00 0. -1.
         22   -1    0    0    0    0 -0.00000000000E+00 -0.00000000000E+00 -0.55880376751E+03  0.55880376751E+03  0.00000000000E+00 0. -1.
        -24    2    1    2    0    0 -0.75411982421E+01  0.31646526954E+02 -0.43331667556E+03  0.44170491033E+03  0.79256003894E+02 0.  0.
         25    2    1    2    0    0 -0.24367313669E+01  0.18001765954E+02 -0.82594790237E+02  0.15098966604E+03  0.12508388641E+03 0.  0.
         24    2    1    2    0    0  0.99779296090E+01 -0.49648292908E+02  0.50728836677E+03  0.51628985962E+03  0.81542749682E+02 0.  0.
        -13    1    5    5    0    0 -0.12336710877E+02 -0.12328763745E+02  0.17966090069E+02  0.25039433762E+02  0.00000000000E+00 0.  1.
         14    1    5    5    0    0  0.22314640486E+02 -0.37319529163E+02  0.48932227670E+03  0.49125042586E+03  0.00000000000E+00 0. -1.
         13    1    3    3    0    0 -0.35031232415E+01 -0.18565427120E+02 -0.27316853888E+03  0.27382110509E+03  0.00000000000E+00 0. -1.
        -14    1    3    3    0    0 -0.40380750006E+01  0.50211954074E+02 -0.16014813668E+03  0.16788380525E+03  0.00000000000E+00 0.  1.
          5    1    4    4  501    0  0.44041844624E+02 -0.34488600268E+02 -0.34250468295E+02  0.65724535789E+02  0.41800000000E+01 0.  1.
         -5    1    4    4    0  501 -0.46478575991E+02  0.52490366222E+02 -0.48344321942E+02  0.85265130249E+02  0.41800000000E+01 0.  1.
</event>
<event>
11    1  0.7882745E-009  0.1893003E+03  0.7561462E-02  0.1062359E+00
         22   -1    0    0    0    0  0.00000000000E+00  0.00000000000E+00  0.47416733429E+03  0.47416733429E+03  0.00000000000E+00 0.  1.
         22   -1    0    0    0    0 -0.00000000000E+00 -0.00000000000E+00 -0.16574894909E+04  0.16574894909E+04  0.00000000000E+00 0.  1.
         24    2    1    2    0    0 -0.12780126295E+03  0.53850213860E+02 -0.14837801219E+04  0.14925077003E+04  0.82114413691E+02 0.  0.
         25    2    1    2    0    0  0.21113723116E+03 -0.67608509762E+02 -0.59110528848E+02  0.26132482606E+03  0.12508704617E+03 0.  0.
        -24    2    1    2    0    0 -0.83335968209E+02  0.13758295902E+02  0.35956849416E+03  0.37782429882E+03  0.79545738350E+02 0.  0.
        -13    1    3    3    0    0 -0.91225609893E+01  0.85288628609E+01 -0.54817657163E+03  0.54831880900E+03  0.00000000000E+00 0.  1.
         14    1    3    3    0    0 -0.11867870196E+03  0.45321350999E+02 -0.93560355027E+03  0.94418889129E+03  0.00000000000E+00 0. -1.
         13    1    5    5    0    0  0.50906202571E+01 -0.58783876889E+01  0.82262882073E+00  0.78196275230E+01  0.00000000000E+00 0. -1.
        -14    1    5    5    0    0 -0.88426588466E+02  0.19636683591E+02  0.35874586533E+03  0.37000467130E+03  0.00000000000E+00 0.  1.
          5    1    4    4  501    0  0.10308048680E+03 -0.51191778878E+02 -0.91678349600E+02  0.14720250395E+03  0.41800000000E+01 0. -1.
         -5    1    4    4    0  501  0.10805674436E+03 -0.16416730884E+02  0.32567820752E+02  0.11412232211E+03  0.41800000000E+01 0. -1.
</event>
<event>
11    1  0.7882745E-009  0.1353428E+03  0.7561462E-02  0.1112873E+00
         22   -1    0    0    0    0  0.00000000000E+00  0.00000000000E+00  0.10541209968E+04  0.10541209968E+04  0.00000000000E+00 0. -1.
         22   -1    0    0    0    0 -0.00000000000E+00 -0.00000000000E+00 -0.11880244506E+04  0.11880244506E+04  0.00000000000E+00 0. -1.
        -24    2    1    2    0    0 -0.41996565678E+02  0.29776072455E+02 -0.11688140464E+04  0.11727186250E+04  0.80575258834E+02 0.  0.
         25    2    1    2    0    0  0.75493376286E+02 -0.28588569163E+02  0.36846552216E+03  0.39741261968E+03  0.12511352086E+03 0.  0.
         24    2    1    2    0    0 -0.33496810609E+02 -0.11875032922E+01  0.66644507037E+03  0.67201420273E+03  0.79565132847E+02 0.  0.
        -11    1    5    5    0    0  0.10644860824E+02 -0.29411010631E+02  0.17391222074E+03  0.17670252157E+03  0.00000000000E+00 0.  1.
         12    1    5    5    0    0 -0.44141671433E+02  0.28223507339E+02  0.49253284964E+03  0.49531168116E+03  0.00000000000E+00 0. -1.
         11    1    3    3    0    0  0.91604835845E+01 -0.13608033653E+02 -0.55647517857E+03  0.55671690957E+03  0.00000000000E+00 0. -1.
        -12    1    3    3    0    0 -0.51157049262E+02  0.43384106108E+02 -0.61233886780E+03  0.61600171539E+03  0.00000000000E+00 0.  1.
          5    1    4    4  501    0 -0.28445613776E+02  0.14272893286E+02  0.12746135810E+03  0.13144100820E+03  0.41800000000E+01 0. -1.
         -5    1    4    4    0  501  0.10393899006E+03 -0.42861462449E+02  0.24100416406E+03  0.26597161148E+03  0.41800000000E+01 0. -1.
</event>
<event>
11    1  0.7882745E-009  0.1481666E+03  0.7561462E-02  0.1098767E+00
         22   -1    0    0    0    0  0.00000000000E+00  0.00000000000E+00  0.37271172704E+03  0.37271172704E+03  0.00000000000E+00 0.  1.
         22   -1    0    0    0    0 -0.00000000000E+00 -0.00000000000E+00 -0.93556164630E+03  0.93556164630E+03  0.00000000000E+00 0. -1.
         24    2    1    2    0    0 -0.17372743830E+02  0.44154987077E+02 -0.58138486060E+03  0.58840143614E+03  0.77177838813E+02 0.  0.
         25    2    1    2    0    0  0.74506739328E+02 -0.97741125915E+02 -0.31947131477E+03  0.36443898695E+03  0.12509705173E+03 0.  0.
        -24    2    1    2    0    0 -0.57133995497E+02  0.53586138838E+02  0.33800625611E+03  0.35543295025E+03  0.77127072015E+02 0.  0.
        -11    1    3    3    0    0  0.46107128185E+01  0.30668912947E+02 -0.72391847507E+02  0.78755447300E+02  0.00000000000E+00 0.  1.
         12    1    3    3    0    0 -0.21983456649E+02  0.13486074130E+02 -0.50899301309E+03  0.50964598884E+03  0.00000000000E+00 0. -1.
         11    1    5    5    0    0 -0.26442206376E+02  0.18693587084E+02  0.30663745664E+02  0.44597149844E+02  0.00000000000E+00 0. -1.
        -12    1    5    5    0    0 -0.30691789122E+02  0.34892551754E+02  0.30734251045E+03  0.31083580041E+03  0.00000000000E+00 0.  1.
          5    1    4    4  501    0  0.82873145519E+02 -0.10541727689E+03 -0.18026597597E+03  0.22470882272E+03  0.41800000000E+01 0. -1.
         -5    1    4    4    0  501 -0.83664061916E+01  0.76761509777E+01 -0.13920533880E+03  0.13973016424E+03  0.41800000000E+01 0. -1.
</event>
<event>
11    1  0.7882745E-009  0.1450944E+03  0.7561462E-02  0.1101999E+00
         22   -1    0    0    0    0  0.00000000000E+00  0.00000000000E+00  0.29047917354E+03  0.29047917354E+03  0.00000000000E+00 0. -1.
         22   -1    0    0    0    0 -0.00000000000E+00 -0.00000000000E+00 -0.44590679359E+03  0.44590679359E+03  0.00000000000E+00 0. -1.
        -24    2    1    2    0    0 -0.97860990440E+01  0.40440324143E+02 -0.34772980942E+03  0.35894080182E+03  0.78684758990E+02 0.  0.
         25    2    1    2    0    0  0.24548306795E+02 -0.10591106448E+03  0.93523875891E+01  0.16599597837E+03  0.12508966679E+03 0.  0.
         24    2    1    2    0    0 -0.14762207751E+02  0.65470740339E+02  0.18294980178E+03  0.21144918694E+03  0.82071846993E+02 0.  0.
        -11    1    5    5    0    0 -0.12653876272E+02 -0.16603773474E+02  0.19636945561E+02  0.28660347333E+02  0.00000000000E+00 0.  1.
         12    1    5    5    0    0 -0.21083314786E+01  0.82074513813E+02  0.16331285622E+03  0.18278883961E+03  0.00000000000E+00 0. -1.
         13    1    3    3    0    0 -0.31203381511E+01  0.29228726743E+02 -0.34416629809E+03  0.34541930421E+03  0.00000000000E+00 0. -1.
        -14    1    3    3    0    0 -0.66657608929E+01  0.11211597400E+02 -0.35635113274E+01  0.13521497607E+02  0.00000000000E+00 0.  1.
          5    1    4    4  501    0  0.52669131493E+02 -0.67633546089E+02  0.53402183162E+02  0.10108214251E+03  0.41800000000E+01 0.  1.
         -5    1    4    4    0  501 -0.28120824698E+02 -0.38277518393E+02 -0.44049795573E+02  0.64913835860E+02  0.41800000000E+01 0.  1.
</event>
<event>
11    1  0.7882745E-009  0.1348661E+03  0.7561462E-02  0.1113431E+00
         22   -1    0    0    0    0  0.00000000000E+00  0.00000000000E+00  0.28376341645E+03  0.28376341645E+03  0.00000000000E+00 0.  1.
         22   -1    0    0    0    0 -0.00000000000E+00 -0.00000000000E+00 -0.53765042374E+03  0.53765042374E+03  0.00000000000E+00 0.  1.
        -24    2    1    2    0    0 -0.16353356931E+02 -0.20128372676E+02 -0.36908680527E+03  0.37873024968E+03  0.80863765227E+02 0.  0.
         25    2    1    2    0    0  0.48977693815E+02 -0.18608320388E+02 -0.12538855741E+03  0.18470414143E+03  0.12509294726E+03 0.  0.
         24    2    1    2    0    0 -0.32624336885E+02  0.38736693064E+02  0.24058835540E+03  0.25797944908E+03  0.78139366835E+02 0.  0.
        -13    1    5    5    0    0 -0.34377893043E+02  0.54321665982E+02  0.23058230048E+03  0.23937602265E+03  0.00000000000E+00 0.  1.
         14    1    5    5    0    0  0.17535561584E+01 -0.15584972918E+02  0.10006054920E+02  0.18603426435E+02  0.00000000000E+00 0. -1.
         11    1    3    3    0    0 -0.10313762303E+02  0.12859598965E+02 -0.12805335001E+02  0.20873897165E+02  0.00000000000E+00 0. -1.
        -12    1    3    3    0    0 -0.60395946279E+01 -0.32987971641E+02 -0.35628147027E+03  0.35785635252E+03  0.00000000000E+00 0.  1.
          5    1    4    4  501    0  0.89424835103E+00 -0.65849979163E+02 -0.45815747156E+02  0.80334142949E+02  0.41800000000E+01 0.  1.
         -5    1    4    4    0  501  0.48083445464E+02  0.47241658775E+02 -0.79572810256E+02  0.10436999848E+03  0.41800000000E+01 0.  1.
</event>
<event>
11    1  0.7882745E-009  0.1550045E+03  0.7561462E-02  0.1091872E+00
         22   -1    0    0    0    0  0.00000000000E+00  0.00000000000E+00  0.33368227520E+04  0.33368227520E+04  0.00000000000E+00 0. -1.
         22   -1    0    0    0    0 -0.00000000000E+00 -0.00000000000E+00 -0.10609206447E+03  0.10609206447E+03  0.00000000000E+00 0.  1.
        -24    2    1    2    0    0 -0.95085160352E+02 -0.14188706163E+02 -0.52526197537E+02  0.13821377286E+03  0.84270626422E+02 0.  0.
         25    2    1    2    0    0  0.45070566057E+02 -0.23201930141E+02  0.45505917839E+03  0.47465444253E+03  0.12509315924E+03 0.  0.
         24    2    1    2    0    0  0.50014594294E+02  0.37390636303E+02  0.28281977067E+04  0.28300466011E+04  0.81006030506E+02 0.  0.
        -11    1    5    5    0    0  0.50174530340E+02  0.26342980292E+02  0.88255632220E+03  0.88437384513E+03  0.00000000000E+00 0.  1.
         12    1    5    5    0    0 -0.15993604561E+00  0.11047656012E+02  0.19456413845E+04  0.19456727560E+04  0.00000000000E+00 0. -1.
         13    1    3    3    0    0  0.96030358226E+01  0.14644949658E+02  0.17626198774E+00  0.17513535216E+02  0.00000000000E+00 0. -1.
        -14    1    3    3    0    0 -0.10468819617E+03 -0.28833655820E+02 -0.52702459524E+02  0.12070023764E+03  0.00000000000E+00 0.  1.
          5    1    4    4  501    0 -0.14280170668E+02 -0.35020980161E+02  0.40081229671E+02  0.55266352310E+02  0.41800000000E+01 0.  1.
         -5    1    4    4    0  501  0.59350736725E+02  0.11819050020E+02  0.41497794872E+03  0.41938809022E+03  0.41800000000E+01 0.  1.
</event>
<event>
11    1  0.7882745E-009  0.1280215E+03  0.7561462E-02  0.1121724E+00
         22   -1    0    0    0    0  0.00000000000E+00  0.00000000000E+00  0.67660040775E+02  0.67660040775E+02  0.00000000000E+00 0.  1.
         22   -1    0    0    0    0 -0.00000000000E+00 -0.00000000000E+00 -0.14051028421E+04  0.14051028421E+04  0.00000000000E+00 0.  1.
         24    2    1    2    0    0  0.23357049307E+02 -0.15464469146E+02 -0.10849753091E+04  0.10882287128E+04  0.79281828690E+02 0.  0.
         25    2    1    2    0    0 -0.17426442379E+02  0.11392641662E+02 -0.27391312887E+03  0.30184130155E+03  0.12508515490E+03 0.  0.
        -24    2    1    2    0    0 -0.59306069279E+01  0.40718274842E+01  0.21445636656E+02  0.82692868556E+02  0.79538942040E+02 0.  0.
        -11    1    3    3    0    0  0.20817615612E+02  0.30868490631E+02 -0.42773217461E+03  0.42934956624E+03  0.00000000000E+00 0.  1.
         12    1    3    3    0    0  0.25394336944E+01 -0.46332959777E+02 -0.65724313452E+03  0.65887914655E+03  0.00000000000E+00 0. -1.
         11    1    5    5    0    0  0.29562409567E+02  0.96589852628E+01 -0.12258328443E+02  0.33429009437E+02  0.00000000000E+00 0. -1.
        -12    1    5    5    0    0 -0.35493016495E+02 -0.55871577787E+01  0.33703965099E+02  0.49263859119E+02  0.00000000000E+00 0.  1.
          5    1    4    4  501    0 -0.57455583110E+02  0.40091124574E+02 -0.10867814715E+03  0.12937099508E+03  0.41800000000E+01 0. -1.
         -5    1    4    4    0  501  0.40029140732E+02 -0.28698482913E+02 -0.16523498172E+03  0.17247030647E+03  0.41800000000E+01 0. -1.
</event>
<event>
11    1  0.7882745E-009  0.1459362E+03  0.7561462E-02  0.1101105E+00
         22   -1    0    0    0    0  0.00000000000E+00  0.00000000000E+00  0.42823067777E+03  0.42823067777E+03  0.00000000000E+00 0.  1.
         22   -1    0    0    0    0 -0.00000000000E+00 -0.00000000000E+00 -0.45778871563E+03  0.45778871563E+03  0.00000000000E+00 0.  1.
         24    2    1    2    0    0 -0.15608468381E+02 -0.32324971957E+02 -0.40098015922E+03  0.41047175851E+03  0.80084008062E+02 0.  0.
         25    2    1    2    0    0 -0.62515024155E+02  0.31174514266E+02  0.81767765032E+02  0.16496019800E+03  0.12508365577E+03 0.  0.
        -24    2    1    2    0    0  0.78123492536E+02  0.11504576905E+01  0.28965435634E+03  0.31058743688E+03  0.80376029791E+02 0.  0.
        -13    1    3    3    0    0 -0.39375034172E+02  0.59496746492E+01 -0.13682891623E+03  0.14250594465E+03  0.00000000000E+00 0.  1.
         14    1    3    3    0    0  0.23766565791E+02 -0.38274646606E+02 -0.26415124299E+03  0.26796581386E+03  0.00000000000E+00 0. -1.
         11    1    5    5    0    0  0.72519625208E+02  0.28769527488E+02  0.16132033394E+03  0.17919551304E+03  0.00000000000E+00 0. -1.
        -12    1    5    5    0    0  0.56038673284E+01 -0.27619069798E+02  0.12833402240E+03  0.13139192384E+03  0.00000000000E+00 0.  1.
          5    1    4    4  501    0 -0.35927294660E+02  0.63787276258E+02  0.95587989850E+02  0.12047457540E+03  0.41800000000E+01 0. -1.
         -5    1    4    4    0  501 -0.26587729495E+02 -0.32612761992E+02 -0.13820224818E+02  0.44485622604E+02  0.41800000000E+01 0. -1.
</event>
<event>
11    1  0.7882745E-009  0.1354957E+03  0.7561462E-02  0.1112695E+00
         22   -1    0    0    0    0  0.00000000000E+00  0.00000000000E+00  0.24400086616E+04  0.24400086616E+04  0.00000000000E+00 0. -1.
         22   -1    0    0    0    0 -0.00000000000E+00 -0.00000000000E+00 -0.14118128062E+04  0.14118128062E+04  0.00000000000E+00 0. -1.
         24    2    1    2    0    0  0.21150537842E+02 -0.47533000375E+02 -0.13976563685E+04  0.14010363781E+04  0.82175890659E+02 0.  0.
         25    2    1    2    0    0 -0.15551738160E+02  0.56875783205E+02  0.39756065330E+03  0.42092857947E+03  0.12509869979E+03 0.  0.
        -24    2    1    2    0    0 -0.55987996820E+01 -0.93427828292E+01  0.20282915705E+04  0.20298565103E+04  0.78943797714E+02 0.  0.
        -11    1    3    3    0    0  0.13235523545E+02  0.18829629213E+02 -0.16853263102E+03  0.17009697745E+03  0.00000000000E+00 0.  1.
         12    1    3    3    0    0  0.79150142966E+01 -0.66362629589E+02 -0.12291237374E+04  0.12309394006E+04  0.00000000000E+00 0. -1.
         13    1    5    5    0    0 -0.18621140820E+02 -0.82457539017E+01  0.19705217110E+04  0.19706269441E+04  0.00000000000E+00 0. -1.
        -14    1    5    5    0    0  0.13022341138E+02 -0.10970289276E+01  0.57769859520E+02  0.59229566182E+02  0.00000000000E+00 0.  1.
          5    1    4    4  501    0  0.54634228055E+02  0.27412896240E+02  0.15498132241E+03  0.16665247808E+03  0.41800000000E+01 0.  1.
         -5    1    4    4    0  501 -0.70185966215E+02  0.29462886964E+02  0.24257933090E+03  0.25427610139E+03  0.41800000000E+01 0.  1.
</event>
<event>
11    1  0.7882745E-009  0.2110994E+03  0.7561462E-02  0.1046941E+00
         22   -1    0    0    0    0  0.00000000000E+00  0.00000000000E+00  0.28151573408E+03  0.28151573408E+03  0.00000000000E+00 0. -1.
         22   -1    0    0    0    0 -0.00000000000E+00 -0.00000000000E+00 -0.11135773246E+04  0.11135773246E+04  0.00000000000E+00 0.  1.
         24    2    1    2    0    0 -0.59471656819E+02  0.58861287223E+02 -0.73436898467E+03  0.74352035334E+03  0.80766212573E+02 0.  0.
         25    2    1    2    0    0  0.19294547284E+03  0.44393094384E+02 -0.29678206828E+03  0.37805535925E+03  0.12509019261E+03 0.  0.
        -24    2    1    2    0    0 -0.13347381602E+03 -0.10325438161E+03  0.19908946248E+03  0.27351734603E+03  0.81843739084E+02 0.  0.
        -13    1    3    3    0    0 -0.62899395662E+02  0.53832133935E+02 -0.73248547019E+03  0.73714937201E+03  0.00000000000E+00 0.  1.
         14    1    3    3    0    0  0.34277388422E+01  0.50291532880E+01 -0.18835144833E+01  0.63709813352E+01  0.00000000000E+00 0. -1.
         11    1    5    5    0    0 -0.39407570739E+00  0.11048421582E+02  0.19808006584E+02  0.22684356723E+02  0.00000000000E+00 0. -1.
        -12    1    5    5    0    0 -0.13307974032E+03 -0.11430280319E+03  0.17928145589E+03  0.25083298931E+03  0.00000000000E+00 0.  1.
          5    1    4    4  501    0  0.50394098051E+02  0.62345586727E+02 -0.56863386418E+02  0.98374053580E+02  0.41800000000E+01 0. -1.
         -5    1    4    4    0  501  0.14255137479E+03 -0.17952492343E+02 -0.23991868186E+03  0.27968130567E+03  0.41800000000E+01 0. -1.
</event>
<event>
11    1  0.7882745E-009  0.1296394E+03  0.7561462E-02  0.1119713E+00
         22   -1    0    0    0    0  0.00000000000E+00  0.00000000000E+00  0.18024839569E+04  0.18024839569E+04  0.00000000000E+00 0.  1.
         22   -1    0    0    0    0 -0.00000000000E+00 -0.00000000000E+00 -0.90692707712E+03  0.90692707712E+03  0.00000000000E+00 0.  1.
         24    2    1    2    0    0 -0.30453859272E+02 -0.23392512893E+01 -0.76949511146E+03  0.77429459647E+03  0.80476617241E+02 0.  0.
         25    2    1    2    0    0  0.12782525997E+02 -0.26921086153E+02 -0.10310855113E+03  0.16482402723E+03  0.12508976291E+03 0.  0.
        -24    2    1    2    0    0  0.17671333274E+02  0.29260337442E+02  0.17681605423E+04  0.17702924103E+04  0.79844042564E+02 0.  0.
        -13    1    3    3    0    0  0.69911590815E+01  0.35175668200E+01 -0.62067147975E+03  0.62072081917E+03  0.00000000000E+00 0.  1.
         14    1    3    3    0    0 -0.37445018353E+02 -0.58568181094E+01 -0.14882363171E+03  0.15357377730E+03  0.00000000000E+00 0. -1.
         11    1    5    5    0    0 -0.30701949560E+02  0.92010439116E+01  0.88542332495E+03  0.88600323548E+03  0.00000000000E+00 0. -1.
        -12    1    5    5    0    0  0.48373282834E+02  0.20059293531E+02  0.88273721739E+03  0.88428917483E+03  0.00000000000E+00 0.  1.
          5    1    4    4  501    0  0.32333347235E+02  0.18044369593E+02  0.12398480134E+02  0.39271355045E+02  0.41800000000E+01 0.  1.
         -5    1    4    4    0  501 -0.19550821238E+02 -0.44965455746E+02 -0.11550703126E+03  0.12555267218E+03  0.41800000000E+01 0.  1.
</event>
<event>
11    1  0.7882745E-009  0.1336586E+03  0.7561462E-02  0.1114854E+00
         22   -1    0    0    0    0  0.00000000000E+00  0.00000000000E+00  0.22682484267E+04  0.22682484267E+04  0.00000000000E+00 0. -1.
         22   -1    0    0    0    0 -0.00000000000E+00 -0.00000000000E+00 -0.39909820026E+02  0.39909820026E+02  0.00000000000E+00 0.  1.
        -24    2    1    2    0    0 -0.45554757775E+02 -0.34923087477E+02  0.85379302846E+02  0.13069248128E+03  0.80598023014E+02 0.  0.
         25    2    1    2    0    0 -0.34209090699E+01  0.35796933488E+02  0.24714523840E+03  0.27932269080E+03  0.12508906293E+03 0.  0.
         24    2    1    2    0    0  0.48975666845E+02 -0.87384601144E+00  0.18958140655E+04  0.18981430747E+04  0.80229555739E+02 0.  0.
        -11    1    5    5    0    0 -0.14105647665E+02  0.10818188030E+02  0.13560043888E+03  0.13676067239E+03  0.00000000000E+00 0.  1.
         12    1    5    5    0    0  0.63081314510E+02 -0.11692034042E+02  0.17602136266E+04  0.17613824023E+04  0.00000000000E+00 0. -1.
         13    1    3    3    0    0 -0.39243590207E+02  0.11199431369E+01  0.85519870031E+02  0.94100806666E+02  0.00000000000E+00 0. -1.
        -14    1    3    3    0    0 -0.63111675679E+01 -0.36043030614E+02 -0.14056718582E+00  0.36591674614E+02  0.00000000000E+00 0.  1.
          5    1    4    4  501    0 -0.16149583850E+02 -0.44101665230E+02  0.11540488595E+03  0.12466565701E+03  0.41800000000E+01 0. -1.
         -5    1    4    4    0  501  0.12728674780E+02  0.79898598718E+02  0.13174035245E+03  0.15465703379E+03  0.41800000000E+01 0. -1.
</event>
<event>
11    1  0.7882745E-009  0.1414184E+03  0.7561462E-02  0.1105985E+00
         22   -1    0    0    0    0  0.00000000000E+00  0.00000000000E+00  0.15095253641E+04  0.15095253641E+04  0.00000000000E+00 0. -1.
         22   -1    0    0    0    0 -0.00000000000E+00 -0.00000000000E+00 -0.16344968809E+03  0.16344968809E+03  0.00000000000E+00 0.  1.
        -24    2    1    2    0    0  0.65360175753E+02 -0.12102832392E+01 -0.13213465402E+03  0.16924431806E+03  0.83130349707E+02 0.  0.
         25    2    1    2    0    0 -0.84954828815E+02 -0.38442152763E+02  0.57297755261E+03  0.59384030002E+03  0.12509158279E+03 0.  0.
         24    2    1    2    0    0  0.19594653062E+02  0.39652436002E+02  0.90523277742E+03  0.90989043411E+03  0.80609891803E+02 0.  0.
        -11    1    5    5    0    0 -0.31781949495E+01 -0.73322090938E+01  0.61156426933E+03  0.61161647928E+03  0.00000000000E+00 0.  1.
         12    1    5    5    0    0  0.22772848012E+02  0.46984645096E+02  0.29366850809E+03  0.29827395483E+03  0.00000000000E+00 0. -1.
         11    1    3    3    0    0  0.21052410257E+02 -0.13243154368E+02  0.43458078340E+01  0.25248191241E+02  0.00000000000E+00 0. -1.
        -12    1    3    3    0    0  0.44307765496E+02  0.12032871129E+02 -0.13648046185E+03  0.14399612682E+03  0.00000000000E+00 0.  1.
          5    1    4    4  501    0 -0.10638915744E+03  0.27332967997E+01  0.44711103417E+03  0.45962144533E+03  0.41800000000E+01 0. -1.
         -5    1    4    4    0  501  0.21434328620E+02 -0.41175449563E+02  0.12586651844E+03  0.13421885469E+03  0.41800000000E+01 0. -1.
</event>
<event>
11    1  0.7882745E-009  0.1347194E+03  0.7561462E-02  0.1113603E+00
         22   -1    0    0    0    0  0.00000000000E+00  0.00000000000E+00  0.69024141948E+03  0.69024141948E+03  0.00000000000E+00 0. -1.
         22   -1    0    0    0    0 -0.00000000000E+00 -0.00000000000E+00 -0.18522382859E+03  0.18522382859E+03  0.00000000000E+00 0.  1.
        -24    2    1    2    0    0  0.45923099873E+01 -0.19967724929E+02 -0.88871230787E+02  0.12322365637E+03  0.82862382764E+02 0.  0.
         25    2    1    2    0    0 -0.43231793421E+02 -0.12459255026E+02 -0.16933313762E+02  0.13401056499E+03  0.12509146021E+03 0.  0.
         24    2    1    2    0    0  0.38639483433E+02  0.32426979954E+02  0.61082213544E+03  0.61823102671E+03  0.81002484775E+02 0.  0.
        -11    1    5    5    0    0  0.32897377688E+02  0.10013637903E+02  0.82203180271E+02  0.89105966408E+02  0.00000000000E+00 0.  1.
         12    1    5    5    0    0  0.57421057452E+01  0.22413342051E+02  0.52861895517E+03  0.52912506030E+03  0.00000000000E+00 0. -1.
         13    1    3    3    0    0 -0.31512656775E+02 -0.24056740587E+02 -0.74022722365E+02  0.83971052935E+02  0.00000000000E+00 0. -1.
        -14    1    3    3    0    0  0.36104966762E+02  0.40890156584E+01 -0.14848508422E+02  0.39252603433E+02  0.00000000000E+00 0.  1.
          5    1    4    4  501    0  0.43118231474E+02  0.52754126217E+01 -0.13544971240E+02  0.45694097099E+02  0.41800000000E+01 0.  1.
         -5    1    4    4    0  501 -0.86350024895E+02 -0.17734667647E+02 -0.33883425212E+01  0.88316467892E+02  0.41800000000E+01 0.  1.
</event>
<event>
11    1  0.7882745E-009  0.1262659E+03  0.7561462E-02  0.1123944E+00
         22   -1    0    0    0    0  0.00000000000E+00  0.00000000000E+00  0.94988718729E+03  0.94988718729E+03  0.00000000000E+00 0. -1.
         22   -1    0    0    0    0 -0.00000000000E+00 -0.00000000000E+00 -0.39446579264E+03  0.39446579264E+03  0.00000000000E+00 0.  1.
         24    2    1    2    0    0 -0.53020181787E+02  0.93752403552E+01 -0.33840299783E+03  0.35197355209E+03  0.80434803541E+02 0.  0.
         25    2    1    2    0    0  0.48618234673E+02  0.82738203410E+01  0.50817703934E+02  0.14374604075E+03  0.12509315071E+03 0.  0.
        -24    2    1    2    0    0  0.44019471140E+01 -0.17649060696E+02  0.84300668855E+03  0.84863338708E+03  0.95851355004E+02 0.  0.
        -11    1    3    3    0    0 -0.39735671043E+02 -0.30627897389E+00 -0.33194092243E+03  0.33431092316E+03  0.00000000000E+00 0.  1.
         12    1    3    3    0    0 -0.13284510744E+02  0.96815193291E+01 -0.64620754019E+01  0.17662628930E+02  0.00000000000E+00 0. -1.
         13    1    5    5    0    0  0.12689879935E+02 -0.55259855736E+02  0.40721588988E+03  0.41114409357E+03  0.00000000000E+00 0. -1.
        -14    1    5    5    0    0 -0.82879328208E+01  0.37610795040E+02  0.43579079867E+03  0.43748929351E+03  0.00000000000E+00 0.  1.
          5    1    4    4  501    0  0.15715977631E+00  0.24659892299E+02  0.80608645698E+02  0.84400006804E+02  0.41800000000E+01 0.  1.
         -5    1    4    4    0  501  0.48461074897E+02 -0.16386071958E+02 -0.29790941764E+02  0.59346033949E+02  0.41800000000E+01 0.  1.
</event>
<event>
11    1  0.7882745E-009  0.1618615E+03  0.7561462E-02  0.1085339E+00
         22   -1    0    0    0    0  0.00000000000E+00  0.00000000000E+00  0.53347810012E+03  0.53347810012E+03  0.00000000000E+00 0.  1.
         22   -1    0    0    0    0 -0.00000000000E+00 -0.00000000000E+00 -0.21296579855E+03  0.21296579855E+03  0.00000000000E+00 0. -1.
         24    2    1    2    0    0  0.63160846614E+02 -0.77798697403E+02 -0.37456723780E+02  0.13430258580E+03  0.81192663050E+02 0.  0.
         25    2    1    2    0    0 -0.39316985453E+02  0.10095367692E+03 -0.64966148355E+02  0.17778260429E+03  0.12509429933E+03 0.  0.
        -24    2    1    2    0    0 -0.23843861162E+02 -0.23154979520E+02  0.42293517370E+03  0.43435870858E+03  0.93212894891E+02 0.  0.
        -11    1    3    3    0    0 -0.13789612170E+02 -0.66677650071E+01  0.10993466624E+02  0.18853880302E+02  0.00000000000E+00 0.  1.
         12    1    3    3    0    0  0.76950458785E+02 -0.71130932396E+02 -0.48450190404E+02  0.11544870550E+03  0.00000000000E+00 0. -1.
         13    1    5    5    0    0 -0.11780315827E+02 -0.27926500285E+02  0.35384941437E+02  0.46591408432E+02  0.00000000000E+00 0. -1.
        -14    1    5    5    0    0 -0.12063545335E+02  0.47715207649E+01  0.38755023226E+03  0.38776730015E+03  0.00000000000E+00 0.  1.
          5    1    4    4  501    0 -0.58529773019E+02  0.56953265304E+01 -0.53915048763E+02  0.79890399655E+02  0.41800000000E+01 0. -1.
         -5    1    4    4    0  501  0.19212787567E+02  0.95258350393E+02 -0.11051099592E+02  0.97892204633E+02  0.41800000000E+01 0. -1.
</event>
<event>
11    1  0.7882745E-009  0.1258181E+03  0.7561462E-02  0.1124517E+00
         22   -1    0    0    0    0  0.00000000000E+00  0.00000000000E+00  0.41063959019E+03  0.41063959019E+03  0.00000000000E+00 0. -1.
         22   -1    0    0    0    0 -0.00000000000E+00 -0.00000000000E+00 -0.18745490076E+04  0.18745490076E+04  0.00000000000E+00 0. -1.
        -24    2    1    2    0    0 -0.31116852563E+02 -0.21749298191E+02 -0.16640739421E+04  0.16664916182E+04  0.81307677312E+02 0.  0.
         25    2    1    2    0    0  0.42318048809E+02  0.26265540560E+02 -0.17873679764E+03  0.22377567092E+03  0.12509201489E+03 0.  0.
         24    2    1    2    0    0 -0.11201196246E+02 -0.45162423696E+01  0.37890132234E+03  0.39492130863E+03  0.11068317261E+03 0.  0.
        -11    1    5    5    0    0  0.44606422979E+02  0.24341879431E+01  0.88626699936E+02  0.99248930390E+02  0.00000000000E+00 0.  1.
         12    1    5    5    0    0 -0.55807619225E+02 -0.69504303127E+01  0.29027462240E+03  0.29567237824E+03  0.00000000000E+00 0. -1.
         11    1    3    3    0    0 -0.16935800230E+02 -0.49581256698E+01 -0.15610355498E+04  0.15611352895E+04  0.00000000000E+00 0. -1.
        -12    1    3    3    0    0 -0.14181052332E+02 -0.16791172521E+02 -0.10303839229E+03  0.10535632874E+03  0.00000000000E+00 0.  1.
          5    1    4    4  501    0  0.12821571652E+02  0.10707483258E+02 -0.18810016018E+03  0.18888670032E+03  0.41800000000E+01 0.  1.
         -5    1    4    4    0  501  0.29496477158E+02  0.15558057303E+02  0.93633625405E+01  0.34888970604E+02  0.41800000000E+01 0.  1.
</event>
<event>
11    1  0.1505685E-008  0.1552162E+03  0.7561462E-02  0.1091665E+00
         22   -1    0    0    0    0  0.00000000000E+00  0.00000000000E+00  0.10081573455E+04  0.10081573455E+04  0.00000000000E+00 0. -1.
         22   -1    0    0    0    0 -0.00000000000E+00 -0.00000000000E+00 -0.43309946499E+03  0.43309946499E+03  0.00000000000E+00 0.  1.
         24    2    1    2    0    0  0.32621269085E+02 -0.39446443372E+02 -0.31699390332E+03  0.33244786604E+03  0.86117825106E+02 0.  0.
         25    2    1    2    0    0 -0.92998361240E+02 -0.30220112436E+02 -0.43991628504E+02  0.16475562720E+03  0.12508878017E+03 0.  0.
        -24    2    1    2    0    0  0.60377092155E+02  0.69666555808E+02  0.93604341234E+03  0.94405331725E+03  0.80997368958E+02 0.  0.
        -11    1    3    3    0    0  0.29534819878E+01 -0.16509186873E+02 -0.27742644921E+03  0.27793292541E+03  0.00000000000E+00 0.  1.
         12    1    3    3    0    0  0.29667787097E+02 -0.22937256500E+02 -0.39567454113E+02  0.54514940630E+02  0.00000000000E+00 0. -1.
         13    1    5    5    0    0  0.32835937126E+02  0.31788816668E+02  0.77479537837E+03  0.77614213001E+03  0.00000000000E+00 0. -1.
        -14    1    5    5    0    0  0.27541155029E+02  0.37877739141E+02  0.16124803397E+03  0.16791118724E+03  0.00000000000E+00 0.  1.
          5    1    4    4  501    0 -0.10077676952E+03  0.23843912071E+02 -0.23548358648E+02  0.10628493314E+03  0.41800000000E+01 0.  1.
         -5    1    4    4    0  501  0.77784082785E+01 -0.54064024506E+02 -0.20443269855E+02  0.58470694057E+02  0.41800000000E+01 0.  1.
</event>
<event>
11    1  0.7882745E-009  0.2007583E+03  0.7561462E-02  0.1053989E+00
         22   -1    0    0    0    0  0.00000000000E+00  0.00000000000E+00  0.27488734173E+04  0.27488734173E+04  0.00000000000E+00 0. -1.
         22   -1    0    0    0    0 -0.00000000000E+00 -0.00000000000E+00 -0.99662559793E+02  0.99662559793E+02  0.00000000000E+00 0. -1.
         24    2    1    2    0    0  0.60058120707E+01 -0.11539061457E+02 -0.38893458405E+02  0.90405787223E+02  0.80568514563E+02 0.  0.
         25    2    1    2    0    0  0.11941324020E+03  0.10566274649E+03  0.29110614073E+03  0.35470992617E+03  0.12510878717E+03 0.  0.
        -24    2    1    2    0    0 -0.12541905227E+03 -0.94123685037E+02  0.23969981752E+04  0.24034202637E+04  0.78990539538E+02 0.  0.
        -13    1    3    3    0    0 -0.16035635121E+02  0.30184973263E+02 -0.12909964223E+02  0.36536849629E+02  0.00000000000E+00 0.  1.
         14    1    3    3    0    0  0.22041447192E+02 -0.41724034719E+02 -0.25983494182E+02  0.53868937594E+02  0.00000000000E+00 0. -1.
         13    1    5    5    0    0 -0.93324199155E+02 -0.52038175728E+02  0.20076129095E+04  0.20104544193E+04  0.00000000000E+00 0. -1.
        -14    1    5    5    0    0 -0.32094853119E+02 -0.42085509310E+02  0.38938526565E+03  0.39296584431E+03  0.00000000000E+00 0.  1.
          5    1    4    4  501    0  0.15632526295E+02  0.53280960814E+02  0.19809015917E+03  0.20576787948E+03  0.41800000000E+01 0. -1.
         -5    1    4    4    0  501  0.10378071391E+03  0.52381785680E+02  0.93015981555E+02  0.14894204670E+03  0.41800000000E+01 0. -1.
</event>
<event>
11    1  0.7882745E-009  0.1503793E+03  0.7561462E-02  0.1096492E+00
         22   -1    0    0    0    0  0.00000000000E+00  0.00000000000E+00  0.20162092319E+03  0.20162092319E+03  0.00000000000E+00 0. -1.
         22   -1    0    0    0    0 -0.00000000000E+00 -0.00000000000E+00 -0.10437977609E+04  0.10437977609E+04  0.00000000000E+00 0.  1.
         24    2    1    2    0    0 -0.64689560181E+02  0.56065347473E+02 -0.65503189220E+03  0.66535324620E+03  0.79373169594E+02 0.  0.
         25    2    1    2    0    0  0.48709838209E+02 -0.61511613045E+02 -0.35966108649E+03  0.38879285375E+03  0.12508980419E+03 0.  0.
        -24    2    1    2    0    0  0.15979721972E+02  0.54462655712E+01  0.17251614103E+03  0.19127258408E+03  0.80860182937E+02 0.  0.
        -13    1    3    3    0    0 -0.50488018561E+02  0.58369303316E+02 -0.63966027540E+03  0.64429906372E+03  0.00000000000E+00 0.  1.
         14    1    3    3    0    0 -0.14201541620E+02 -0.23039558429E+01 -0.15371616797E+02  0.21054182479E+02  0.00000000000E+00 0. -1.
         13    1    5    5    0    0 -0.38746474696E+01  0.20414258003E+02  0.16351372187E+03  0.16482867488E+03  0.00000000000E+00 0. -1.
        -14    1    5    5    0    0  0.19854369441E+02 -0.14967992432E+02  0.90024191561E+01  0.26443909204E+02  0.00000000000E+00 0.  1.
          5    1    4    4  501    0 -0.65478606649E+01  0.23598802880E+02 -0.13993950063E+02  0.28514575483E+02  0.41800000000E+01 0.  1.
         -5    1    4    4    0  501  0.55257698874E+02 -0.85110415924E+02 -0.34566713643E+03  0.36027827827E+03  0.41800000000E+01 0.  1.
</event>
<event>
11    1  0.7882745E-009  0.1404690E+03  0.7561462E-02  0.1107036E+00
         22   -1    0    0    0    0  0.00000000000E+00  0.00000000000E+00  0.13219219818E+03  0.13219219818E+03  0.00000000000E+00 0. -1.
         22   -1    0    0    0    0 -0.00000000000E+00 -0.00000000000E+00 -0.81444178083E+03  0.81444178083E+03  0.00000000000E+00 0. -1.
         24    2    1    2    0    0 -0.81120418061E+01  0.14796845722E+01 -0.58984396138E+03  0.59525148454E+03  0.79626857181E+02 0.  0.
         25    2    1    2    0    0  0.64809697530E+02 -0.28992485923E+02 -0.17099346946E+03  0.22344441596E+03  0.12509108399E+03 0.  0.
        -24    2    1    2    0    0 -0.56697655724E+02  0.27512801351E+02  0.78587848184E+02  0.12793807851E+03  0.78870296360E+02 0.  0.
        -11    1    3    3    0    0  0.31305533750E+02  0.11312744131E+01 -0.40714610625E+03  0.40834944356E+03  0.00000000000E+00 0.  1.
         12    1    3    3    0    0 -0.39417575556E+02  0.34841015913E+00 -0.18269785513E+03  0.18690204098E+03  0.00000000000E+00 0. -1.
         11    1    5    5    0    0 -0.41540534857E+02  0.47012861845E+02  0.81739669704E+02  0.10303979240E+03  0.00000000000E+00 0. -1.
        -12    1    5    5    0    0 -0.15157120867E+02 -0.19500060494E+02 -0.31518215197E+01  0.24898286108E+02  0.00000000000E+00 0.  1.
          5    1    4    4  501    0  0.51369711273E+02 -0.35951460763E+02 -0.18922338684E+03  0.19938484720E+03  0.41800000000E+01 0.  1.
         -5    1    4    4    0  501  0.13439986257E+02  0.69589748398E+01  0.18229917378E+02  0.24059568762E+02  0.41800000000E+01 0.  1.
</event>
<event>
11    1  0.7882745E-009  0.2046122E+03  0.7561462E-02  0.1051309E+00
         22   -1    0    0    0    0  0.00000000000E+00  0.00000000000E+00  0.99982135982E+03  0.99982135982E+03  0.00000000000E+00 0. -1.
         22   -1    0    0    0    0 -0.00000000000E+00 -0.00000000000E+00 -0.24739755693E+03  0.24739755693E+03  0.00000000000E+00 0.  1.
         24    2    1    2    0    0  0.16043802643E+03  0.59838430435E+02 -0.73673328303E+02  0.20353402678E+03  0.81715008851E+02 0.  0.
         25    2    1    2    0    0 -0.14619619546E+03 -0.33194632132E+02 -0.17138217188E+02  0.19600029661E+03  0.12508871498E+03 0.  0.
        -24    2    1    2    0    0 -0.14241830975E+02 -0.26643798303E+02  0.84323534838E+03  0.84768459336E+03  0.81305567531E+02 0.  0.
        -11    1    3    3    0    0  0.10253752636E+03  0.76952878484E+02 -0.60389649053E+02  0.14171308878E+03  0.00000000000E+00 0.  1.
         12    1    3    3    0    0  0.57900500073E+02 -0.17114448049E+02 -0.13283679250E+02  0.61820937999E+02  0.00000000000E+00 0. -1.
         11    1    5    5    0    0  0.20956194774E+02  0.16154960274E+02  0.42067769771E+03  0.42150903927E+03  0.00000000000E+00 0. -1.
        -12    1    5    5    0    0 -0.35198025749E+02 -0.42798758576E+02  0.42255765067E+03  0.42617555408E+03  0.00000000000E+00 0.  1.
          5    1    4    4  501    0 -0.15625368586E+03 -0.51568591306E+02  0.57459186064E+01  0.16469675751E+03  0.41800000000E+01 0. -1.
         -5    1    4    4    0  501  0.10057490404E+02  0.18373959174E+02 -0.22884135795E+02  0.31303539097E+02  0.41800000000E+01 0. -1.
</event>
<event>
11    1  0.1064983E-008  0.1985448E+03  0.7561462E-02  0.1055558E+00
         22   -1    0    0    0    0  0.00000000000E+00  0.00000000000E+00  0.10343613162E+04  0.10343613162E+04  0.00000000000E+00 0. -1.
         22   -1    0    0    0    0 -0.00000000000E+00 -0.00000000000E+00 -0.15630031734E+04  0.15630031734E+04  0.00000000000E+00 0.  1.
        -24    2    1    2    0    0 -0.69777253757E+02 -0.15599001619E+02 -0.12987391645E+04  0.13030849201E+04  0.78706400399E+02 0.  0.
         25    2    1    2    0    0  0.12151596538E+01  0.15423399607E+03 -0.21574694170E+03  0.29322984859E+03  0.12508956428E+03 0.  0.
         24    2    1    2    0    0  0.68562094103E+02 -0.13863499445E+03  0.98584424907E+03  0.10010497209E+04  0.79317324349E+02 0.  0.
        -11    1    5    5    0    0 -0.11074147066E+02 -0.40093078046E+02  0.36838010529E+03  0.37072091068E+03  0.00000000000E+00 0.  1.
         12    1    5    5    0    0  0.79636241170E+02 -0.98541916402E+02  0.61746414378E+03  0.63032881026E+03  0.00000000000E+00 0. -1.
         13    1    3    3    0    0 -0.18605380841E+02  0.16022161156E+01 -0.53307926543E+02  0.56484177652E+02  0.00000000000E+00 0. -1.
        -14    1    3    3    0    0 -0.51171872916E+02 -0.17201217735E+02 -0.12454312380E+04  0.12466007424E+04  0.00000000000E+00 0.  1.
          5    1    4    4  501    0 -0.37243535989E+02  0.62200807503E+02 -0.16705318992E+03  0.18215450060E+03  0.41800000000E+01 0.  1.
         -5    1    4    4    0  501  0.38458695643E+02  0.92033188564E+02 -0.48693751785E+02  0.11107534799E+03  0.41800000000E+01 0.  1.
</event>
<event>
11    1  0.7882745E-009  0.1576683E+03  0.7561462E-02  0.1089291E+00
         22   -1    0    0    0    0  0.00000000000E+00  0.00000000000E+00  0.46393557951E+02  0.46393557951E+02  0.00000000000E+00 0.  1.
         22   -1    0    0    0    0 -0.00000000000E+00 -0.00000000000E+00 -0.28546111287E+04  0.28546111287E+04  0.00000000000E+00 0. -1.
         24    2    1    2    0    0  0.93216028234E+02  0.13173786194E+02 -0.21789771369E+04  0.21824493089E+04  0.79251791899E+02 0.  0.
         25    2    1    2    0    0 -0.10274333308E+03 -0.40445898498E+02 -0.60673925151E+03  0.62926387421E+03  0.12509372836E+03 0.  0.
        -24    2    1    2    0    0  0.95273048420E+01  0.27272112303E+02 -0.22501182417E+02  0.89291503545E+02  0.81437901177E+02 0.  0.
        -11    1    3    3    0    0  0.78180715510E+02  0.27855912326E+02 -0.10494465449E+04  0.10527232431E+04  0.00000000000E+00 0.  1.
         12    1    3    3    0    0  0.15035312725E+02 -0.14682126132E+02 -0.11295305920E+04  0.11297260658E+04  0.00000000000E+00 0. -1.
         13    1    5    5    0    0 -0.23180229862E+02  0.19880938732E+01 -0.38482959155E+02  0.44969030666E+02  0.00000000000E+00 0. -1.
        -14    1    5    5    0    0  0.32707534704E+02  0.25284018430E+02  0.15981776739E+02  0.44322472879E+02  0.00000000000E+00 0.  1.
          5    1    4    4  501    0 -0.88396836238E+02 -0.81506751283E+02 -0.49171309712E+03  0.50621793077E+03  0.41800000000E+01 0. -1.
         -5    1    4    4    0  501 -0.14346496838E+02  0.41060852785E+02 -0.11502615439E+03  0.12304594344E+03  0.41800000000E+01 0. -1.
</event>
<event>
11    1  0.7882745E-009  0.1473967E+03  0.7561462E-02  0.1099569E+00
         22   -1    0    0    0    0  0.00000000000E+00  0.00000000000E+00  0.64319848633E+02  0.64319848633E+02  0.00000000000E+00 0. -1.
         22   -1    0    0    0    0 -0.00000000000E+00 -0.00000000000E+00 -0.20541033890E+04  0.20541033890E+04  0.00000000000E+00 0. -1.
        -24    2    1    2    0    0 -0.36232616898E+01 -0.55885714850E+01 -0.15368254536E+04  0.15389662446E+04  0.80871917065E+02 0.  0.
         25    2    1    2    0    0 -0.72334366089E+02  0.24310174138E+02 -0.44156814305E+03  0.46524427862E+03  0.12508624521E+03 0.  0.
         24    2    1    2    0    0  0.75957627779E+02 -0.18721602653E+02 -0.11389943790E+02  0.11421271451E+03  0.82430296089E+02 0.  0.
        -11    1    5    5    0    0  0.28118001101E+02 -0.36612895937E+02 -0.35011685046E+02  0.57939142421E+02  0.00000000000E+00 0.  1.
         12    1    5    5    0    0  0.47839626678E+02  0.17891293283E+02  0.23621741256E+02  0.56273572092E+02  0.00000000000E+00 0. -1.
         11    1    3    3    0    0  0.30179989596E+02  0.30258954373E+01 -0.11909392107E+04  0.11913253927E+04  0.00000000000E+00 0. -1.
        -12    1    3    3    0    0 -0.33803251286E+02 -0.86144669223E+01 -0.34588624287E+03  0.34764085180E+03  0.00000000000E+00 0.  1.
          5    1    4    4  501    0 -0.49067070513E+02 -0.14509292187E+02 -0.52137441810E+02  0.73170227600E+02  0.41800000000E+01 0.  1.
         -5    1    4    4    0  501 -0.23267295576E+02  0.38819466326E+02 -0.38943070124E+03  0.39207405102E+03  0.41800000000E+01 0.  1.
</event>
<event>
11    1  0.7882745E-009  0.1327191E+03  0.7561462E-02  0.1115973E+00
         22   -1    0    0    0    0  0.00000000000E+00  0.00000000000E+00  0.17436876330E+03  0.17436876330E+03  0.00000000000E+00 0.  1.
         22   -1    0    0    0    0 -0.00000000000E+00 -0.00000000000E+00 -0.87157064991E+03  0.87157064991E+03  0.00000000000E+00 0.  1.
        -24    2    1    2    0    0 -0.11366075644E+02  0.45861794900E+02 -0.72981159699E+03  0.73629403549E+03  0.85272783972E+02 0.  0.
         25    2    1    2    0    0  0.40063877871E+02 -0.15845051310E+01 -0.86144741287E+02  0.15708693342E+03  0.12509101979E+03 0.  0.
         24    2    1    2    0    0 -0.28697802228E+02 -0.44277289769E+02  0.11875445167E+03  0.15255844430E+03  0.79921316891E+02 0.  0.
        -11    1    5    5    0    0 -0.35663802188E+01 -0.63736119041E+02  0.75227988479E+02  0.98662364602E+02  0.00000000000E+00 0.  1.
         12    1    5    5    0    0 -0.25131422009E+02  0.19458829272E+02  0.43526463191E+02  0.53896079697E+02  0.00000000000E+00 0. -1.
         11    1    3    3    0    0 -0.33051576287E+02 -0.11426438963E+02 -0.32465195846E+03  0.32653003588E+03  0.00000000000E+00 0. -1.
        -12    1    3    3    0    0  0.21685500643E+02  0.57288233863E+02 -0.40515963853E+03  0.40976399961E+03  0.00000000000E+00 0.  1.
          5    1    4    4  501    0 -0.10909598398E+02 -0.12946702150E+02  0.27148102470E+02  0.32266519823E+02  0.41800000000E+01 0. -1.
         -5    1    4    4    0  501  0.50973476269E+02  0.11362197019E+02 -0.11329284376E+03  0.12482041360E+03  0.41800000000E+01 0. -1.
</event>
<event>
11    1  0.8155019E-009  0.1535024E+03  0.7561462E-02  0.1093353E+00
         22   -1    0    0    0    0  0.00000000000E+00  0.00000000000E+00  0.21922654619E+04  0.21922654619E+04  0.00000000000E+00 0. -1.
         22   -1    0    0    0    0 -0.00000000000E+00 -0.00000000000E+00 -0.16864140793E+03  0.16864140793E+03  0.00000000000E+00 0.  1.
         24    2    1    2    0    0  0.23207215920E+02  0.91342017624E+02 -0.10046354121E+03  0.16325251204E+03  0.87615754986E+02 0.  0.
         25    2    1    2    0    0  0.42071391433E+02 -0.71502558108E+02  0.12473630589E+03  0.19516471094E+03  0.12508997000E+03 0.  0.
        -24    2    1    2    0    0 -0.65278607352E+02 -0.19839459516E+02  0.19993512893E+04  0.20024896468E+04  0.88906170014E+02 0.  0.
        -11    1    3    3    0    0  0.20791872235E+02  0.10450792572E+03 -0.10452548339E+03  0.14926414561E+03  0.00000000000E+00 0.  1.
         12    1    3    3    0    0  0.24153436843E+01 -0.13165908092E+02  0.40619421818E+01  0.13988366427E+02  0.00000000000E+00 0. -1.
         13    1    5    5    0    0 -0.30224630318E+02 -0.43807328723E+02  0.16004044505E+04  0.16012891729E+04  0.00000000000E+00 0. -1.
        -14    1    5    5    0    0 -0.35053977034E+02  0.23967869208E+02  0.39894683879E+03  0.40120047388E+03  0.00000000000E+00 0.  1.
          5    1    4    4  501    0  0.34334671393E+02  0.82337228613E+01 -0.11239897217E+02  0.37289027089E+02  0.41800000000E+01 0. -1.
         -5    1    4    4    0  501  0.77367200398E+01 -0.79736280969E+02  0.13597620310E+03  0.15787568385E+03  0.41800000000E+01 0. -1.
</event>
<event>
11    1  0.7882745E-009  0.1490291E+03  0.7561462E-02  0.1097875E+00
         22   -1    0    0    0    0  0.00000000000E+00  0.00000000000E+00  0.44336389382E+02  0.44336389382E+02  0.00000000000E+00 0.  1.
         22   -1    0    0    0    0 -0.00000000000E+00 -0.00000000000E+00 -0.11224733442E+04  0.11224733442E+04  0.00000000000E+00 0.  1.
        -24    2    1    2    0    0 -0.29690712421E+02  0.35430094436E+02 -0.59812146704E+03  0.60573293562E+03  0.83822848692E+02 0.  0.
         25    2    1    2    0    0  0.97502654675E+02 -0.55635799679E+02 -0.36757810972E+03  0.40418261818E+03  0.12509121557E+03 0.  0.
         24    2    1    2    0    0 -0.67811942255E+02  0.20205705243E+02 -0.11243737807E+03  0.15689417980E+03  0.83467895817E+02 0.  0.
        -13    1    5    5    0    0 -0.64835046020E+01  0.43199834400E+02 -0.39916102938E+02  0.59173953711E+02  0.00000000000E+00 0.  1.
         14    1    5    5    0    0 -0.61328437653E+02 -0.22994129157E+02 -0.72521275132E+02  0.97720226092E+02  0.00000000000E+00 0. -1.
         11    1    3    3    0    0  0.20443180728E+02 -0.14421270598E+02 -0.15923142791E+03  0.16118481416E+03  0.00000000000E+00 0. -1.
        -12    1    3    3    0    0 -0.50133893148E+02  0.49851365033E+02 -0.43889003913E+03  0.44454812145E+03  0.00000000000E+00 0.  1.
          5    1    4    4  501    0  0.53372302198E+02 -0.31452739693E+02 -0.34197700777E+03  0.34756815694E+03  0.41800000000E+01 0.  1.
         -5    1    4    4    0  501  0.44130352477E+02 -0.24183059985E+02 -0.25601101960E+02  0.56614461241E+02  0.41800000000E+01 0.  1.
</event>
<event>
11    1  0.7882745E-009  0.1523508E+03  0.7561462E-02  0.1094501E+00
         22   -1    0    0    0    0  0.00000000000E+00  0.00000000000E+00  0.29481593353E+03  0.29481593353E+03  0.00000000000E+00 0. -1.
         22   -1    0    0    0    0 -0.00000000000E+00 -0.00000000000E+00 -0.66666831383E+03  0.66666831383E+03  0.00000000000E+00 0.  1.
        -24    2    1    2    0    0 -0.17953254973E+02  0.26353816725E+01 -0.56857040683E+03  0.57457343765E+03  0.80827366215E+02 0.  0.
         25    2    1    2    0    0 -0.34747470281E+02 -0.73568124425E+02 -0.87767314789E+01  0.14948016348E+03  0.12509049778E+03 0.  0.
         24    2    1    2    0    0  0.52700725254E+02  0.70932742752E+02  0.20549475800E+03  0.23743064623E+03  0.79601480936E+02 0.  0.
        -13    1    5    5    0    0 -0.17195115417E+02  0.31365016193E+02  0.41245957378E+02  0.54595468997E+02  0.00000000000E+00 0.  1.
         14    1    5    5    0    0  0.69895840670E+02  0.39567726559E+02  0.16424880063E+03  0.18283517724E+03  0.00000000000E+00 0. -1.
         11    1    3    3    0    0  0.20697367072E+02 -0.26709855969E+02 -0.20239329674E+03  0.20519464899E+03  0.00000000000E+00 0. -1.
        -12    1    3    3    0    0 -0.38650622045E+02  0.29345237641E+02 -0.36617711009E+03  0.36937878866E+03  0.00000000000E+00 0.  1.
          5    1    4    4  501    0 -0.72034347559E+02 -0.82099166054E+02  0.26765128850E+01  0.10933369296E+03  0.41800000000E+01 0.  1.
         -5    1    4    4    0  501  0.37286877278E+02  0.85310416291E+01 -0.11453244364E+02  0.40146470516E+02  0.41800000000E+01 0.  1.
</event>
<event>
11    1  0.7882745E-009  0.1615521E+03  0.7561462E-02  0.1085626E+00
         22   -1    0    0    0    0  0.00000000000E+00  0.00000000000E+00  0.66161253061E+03  0.66161253061E+03  0.00000000000E+00 0. -1.
         22   -1    0    0    0    0 -0.00000000000E+00 -0.00000000000E+00 -0.31376702455E+03  0.31376702455E+03  0.00000000000E+00 0.  1.
         24    2    1    2    0    0 -0.16602035891E+02  0.10041899186E+03 -0.24016826416E+03  0.27301840849E+03  0.80614234121E+02 0.  0.
         25    2    1    2    0    0  0.21210290054E+02 -0.10351381392E+03  0.69419251441E+02  0.17785455477E+03  0.12509286193E+03 0.  0.
        -24    2    1    2    0    0 -0.46082541636E+01  0.30948220593E+01  0.51859451877E+03  0.52450659190E+03  0.78333109986E+02 0.  0.
        -13    1    3    3    0    0  0.40266331679E+01  0.52648532558E+02 -0.20119128418E+03  0.20800484269E+03  0.00000000000E+00 0.  1.
         14    1    3    3    0    0 -0.20628669059E+02  0.47770459299E+02 -0.38976979982E+02  0.65013565794E+02  0.00000000000E+00 0. -1.
         13    1    5    5    0    0 -0.14720976742E+02 -0.26702618010E+02  0.41787756472E+03  0.41898853930E+03  0.00000000000E+00 0. -1.
        -14    1    5    5    0    0  0.10112722578E+02  0.29797440069E+02  0.10071695405E+03  0.10551805260E+03  0.00000000000E+00 0.  1.
          5    1    4    4  501    0  0.18432162042E+02 -0.13204774143E+03  0.47776562797E+02  0.14169129460E+03  0.41800000000E+01 0.  1.
         -5    1    4    4    0  501  0.27781280123E+01  0.28533927509E+02  0.21642688643E+02  0.36163260169E+02  0.41800000000E+01 0.  1.
</event>
<event>
11    1  0.7882745E-009  0.1348595E+03  0.7561462E-02  0.1113438E+00
         22   -1    0    0    0    0  0.00000000000E+00  0.00000000000E+00  0.11664559545E+03  0.11664559545E+03  0.00000000000E+00 0. -1.
         22   -1    0    0    0    0 -0.00000000000E+00 -0.00000000000E+00 -0.89158297317E+03  0.89158297317E+03  0.00000000000E+00 0. -1.
         24    2    1    2    0    0 -0.10497461331E+01 -0.62090924025E+00 -0.61071871593E+03  0.61611011990E+03  0.81319384885E+02 0.  0.
         25    2    1    2    0    0  0.37374922053E+02 -0.34242600445E+02 -0.23703539345E+03  0.27277197902E+03  0.12509729935E+03 0.  0.
        -24    2    1    2    0    0 -0.36325175920E+02  0.34863509685E+02  0.72816731658E+02  0.11934646970E+03  0.80039494671E+02 0.  0.
        -13    1    3    3    0    0  0.14191909306E+02 -0.38180632141E+02 -0.29415863309E+03  0.29696543971E+03  0.00000000000E+00 0.  1.
         14    1    3    3    0    0 -0.15241655439E+02  0.37559722900E+02 -0.31656008284E+03  0.31914468019E+03  0.00000000000E+00 0. -1.
         13    1    5    5    0    0 -0.55432317876E+02  0.24376846464E+02  0.22655891558E+02  0.64654945139E+02  0.00000000000E+00 0. -1.
        -14    1    5    5    0    0  0.19107141956E+02  0.10486663221E+02  0.50160840100E+02  0.54691524561E+02  0.00000000000E+00 0.  1.
          5    1    4    4  501    0  0.67187577133E+02 -0.63786183397E+02 -0.15912864379E+03  0.18417992667E+03  0.41800000000E+01 0. -1.
         -5    1    4    4    0  501 -0.29812655079E+02  0.29543582952E+02 -0.77906749664E+02  0.88592052351E+02  0.41800000000E+01 0. -1.
</event>
<event>
11    1  0.7882745E-009  0.1780631E+03  0.7561462E-02  0.1071220E+00
         22   -1    0    0    0    0  0.00000000000E+00  0.00000000000E+00  0.18693136539E+03  0.18693136539E+03  0.00000000000E+00 0. -1.
         22   -1    0    0    0    0 -0.00000000000E+00 -0.00000000000E+00 -0.91361243150E+03  0.91361243150E+03  0.00000000000E+00 0. -1.
         24    2    1    2    0    0 -0.28666427277E+02  0.10163130249E+02 -0.29229733285E+03  0.30487771460E+03  0.81164258134E+02 0.  0.
         25    2    1    2    0    0  0.15321514052E+03 -0.21280183180E+02 -0.56293323535E+03  0.59705061510E+03  0.12509150270E+03 0.  0.
        -24    2    1    2    0    0 -0.12454871324E+03  0.11117052931E+02  0.12854950208E+03  0.19861546719E+03  0.85364855087E+02 0.  0.
        -13    1    3    3    0    0 -0.39053800518E+02 -0.26193818433E+02 -0.19241479304E+03  0.19807768183E+03  0.00000000000E+00 0.  1.
         14    1    3    3    0    0  0.10387373241E+02  0.36356948681E+02 -0.99882539812E+02  0.10680003277E+03  0.00000000000E+00 0. -1.
         11    1    5    5    0    0 -0.86096000084E+02  0.39070194634E+02  0.50396128125E+02  0.10713902683E+03  0.00000000000E+00 0. -1.
        -12    1    5    5    0    0 -0.38452713161E+02 -0.27953141703E+02  0.78153373959E+02  0.91476440364E+02  0.00000000000E+00 0.  1.
          5    1    4    4  501    0  0.62871936382E+02 -0.32195370110E+02 -0.85397744438E+02  0.11090387458E+03  0.41800000000E+01 0. -1.
         -5    1    4    4    0  501  0.90343204139E+02  0.10915186930E+02 -0.47753549092E+03  0.48614674053E+03  0.41800000000E+01 0. -1.
</event>
<event>
11    1  0.7882745E-009  0.1824099E+03  0.7561462E-02  0.1067710E+00
         22   -1    0    0    0    0  0.00000000000E+00  0.00000000000E+00  0.98761481663E+03  0.98761481663E+03  0.00000000000E+00 0.  1.
         22   -1    0    0    0    0 -0.00000000000E+00 -0.00000000000E+00 -0.44635397857E+03  0.44635397857E+03  0.00000000000E+00 0.  1.
         24    2    1    2    0    0 -0.21120782925E+02  0.11086354759E+02 -0.35124712655E+03  0.36112991361E+03  0.80444240676E+02 0.  0.
         25    2    1    2    0    0  0.13663816583E+03 -0.72616593044E+02  0.36106206370E+02  0.20222334942E+03  0.12508983558E+03 0.  0.
        -24    2    1    2    0    0 -0.11551738290E+03  0.61530238284E+02  0.85640175824E+03  0.87061553218E+03  0.86123152375E+02 0.  0.
        -11    1    3    3    0    0 -0.23202854148E+02 -0.86664541235E+00 -0.34772039933E+03  0.34849476270E+03  0.00000000000E+00 0.  1.
         12    1    3    3    0    0  0.20820712230E+01  0.11953000172E+02 -0.35267272204E+01  0.12635150912E+02  0.00000000000E+00 0. -1.
         11    1    5    5    0    0 -0.45658799054E+02 -0.16297685050E+02  0.19161775780E+03  0.19765552250E+03  0.00000000000E+00 0. -1.
        -12    1    5    5    0    0 -0.69858583848E+02  0.77827923334E+02  0.66478400044E+03  0.67296000968E+03  0.00000000000E+00 0.  1.
          5    1    4    4  501    0  0.10887360408E+03 -0.10463716726E+03  0.47109556416E+02  0.15823773615E+03  0.41800000000E+01 0. -1.
         -5    1    4    4    0  501  0.27764561744E+02  0.32020574214E+02 -0.11003350046E+02  0.43985613262E+02  0.41800000000E+01 0. -1.
</event>
<event>
11    1  0.7882745E-009  0.1479080E+03  0.7561462E-02  0.1099036E+00
         22   -1    0    0    0    0  0.00000000000E+00  0.00000000000E+00  0.79633665203E+02  0.79633665203E+02  0.00000000000E+00 0. -1.
         22   -1    0    0    0    0 -0.00000000000E+00 -0.00000000000E+00 -0.15871392244E+04  0.15871392244E+04  0.00000000000E+00 0. -1.
         24    2    1    2    0    0  0.28254733280E+02 -0.78256336752E+02 -0.88335491334E+03  0.89099858869E+03  0.81487409557E+02 0.  0.
         25    2    1    2    0    0 -0.58666060058E+02  0.49923432807E+02 -0.66106482753E+03  0.67719261722E+03  0.12509627845E+03 0.  0.
        -24    2    1    2    0    0  0.30411326778E+02  0.28332903945E+02  0.36914181661E+02  0.98581683708E+02  0.81413078266E+02 0.  0.
        -11    1    3    3    0    0 -0.18834040819E+02 -0.10525156837E+01 -0.65585557910E+02  0.68244371850E+02  0.00000000000E+00 0.  1.
         12    1    3    3    0    0  0.47088774099E+02 -0.77203821068E+02 -0.81776935543E+03  0.82275421684E+03  0.00000000000E+00 0. -1.
         13    1    5    5    0    0  0.34025597965E+02 -0.22187132347E+02  0.19145716304E+02  0.44906220187E+02  0.00000000000E+00 0. -1.
        -14    1    5    5    0    0 -0.36142711878E+01  0.50520036291E+02  0.17768465357E+02  0.53675463521E+02  0.00000000000E+00 0.  1.
          5    1    4    4  501    0 -0.60185622592E+02  0.85459116831E+02 -0.56641709737E+03  0.57599598125E+03  0.41800000000E+01 0. -1.
         -5    1    4    4    0  501  0.15195625347E+01 -0.35535684024E+02 -0.94647730156E+02  0.10119663598E+03  0.41800000000E+01 0. -1.
</event>
<event>
11    1  0.7882745E-009  0.1561611E+03  0.7561462E-02  0.1090744E+00
         22   -1    0    0    0    0  0.00000000000E+00  0.00000000000E+00  0.14009733373E+04  0.14009733373E+04  0.00000000000E+00 0.  1.
         22   -1    0    0    0    0 -0.00000000000E+00 -0.00000000000E+00 -0.16807564498E+03  0.16807564498E+03  0.00000000000E+00 0.  1.
         24    2    1    2    0    0 -0.95686911668E+02  0.14333108749E+02 -0.56613856415E+02  0.13754439442E+03  0.79698862144E+02 0.  0.
         25    2    1    2    0    0  0.75533239360E+02 -0.56125410192E+02  0.19160293141E+02  0.15770184191E+03  0.12508965661E+03 0.  0.
        -24    2    1    2    0    0  0.20153672309E+02  0.41792301443E+02  0.12703512556E+04  0.12738027460E+04  0.81414716345E+02 0.  0.
        -11    1    3    3    0    0 -0.74216703182E+02  0.45251627302E+02 -0.32293501594E+02  0.92729170436E+02  0.00000000000E+00 0.  1.
         12    1    3    3    0    0 -0.21470208487E+02 -0.30918518554E+02 -0.24320354821E+02  0.44815223983E+02  0.00000000000E+00 0. -1.
         13    1    5    5    0    0 -0.26078855217E+01 -0.19541490573E+02  0.12139169986E+03  0.12298217641E+03  0.00000000000E+00 0. -1.
        -14    1    5    5    0    0  0.22761557830E+02  0.61333792016E+02  0.11489595558E+04  0.11508205696E+04  0.00000000000E+00 0.  1.
          5    1    4    4  501    0  0.72966135223E+02  0.21565665059E+02 -0.45171109884E+01  0.76334864188E+02  0.41800000000E+01 0. -1.
         -5    1    4    4    0  501  0.25671041362E+01 -0.77691075251E+02  0.23677404129E+02  0.81366977722E+02  0.41800000000E+01 0. -1.
</event>
<event>
11    1  0.7882745E-009  0.1357016E+03  0.7561462E-02  0.1112455E+00
         22   -1    0    0    0    0  0.00000000000E+00  0.00000000000E+00  0.35134747685E+03  0.35134747685E+03  0.00000000000E+00 0.  1.
         22   -1    0    0    0    0 -0.00000000000E+00 -0.00000000000E+00 -0.35976820965E+03  0.35976820965E+03  0.00000000000E+00 0.  1.
         24    2    1    2    0    0 -0.50021713970E+02 -0.49706012872E+01 -0.28331603304E+03  0.29943680934E+03  0.82870679180E+02 0.  0.
         25    2    1    2    0    0  0.76779519783E+02  0.13727297473E+02  0.22422384996E+02  0.14910075490E+03  0.12507892871E+03 0.  0.
        -24    2    1    2    0    0 -0.26757805814E+02 -0.87566961862E+01  0.25247291524E+03  0.26257812226E+03  0.66423169621E+02 0.  0.
        -11    1    3    3    0    0  0.30846332112E+01 -0.28871962013E+02 -0.16533380025E+03  0.16786414346E+03  0.00000000000E+00 0.  1.
         12    1    3    3    0    0 -0.53106347181E+02  0.23901360726E+02 -0.11798223278E+03  0.13157266588E+03  0.00000000000E+00 0. -1.
         11    1    5    5    0    0  0.56939808857E+01 -0.15461852889E+01 -0.17786991148E+01  0.61624571248E+01  0.00000000000E+00 0. -1.
        -12    1    5    5    0    0 -0.32451786699E+02 -0.72105108973E+01  0.25425161435E+03  0.25641566514E+03  0.00000000000E+00 0.  1.
          5    1    4    4  501    0  0.10873122649E+03  0.20248049619E+02  0.31348792074E+02  0.11503339642E+03  0.41800000000E+01 0. -1.
         -5    1    4    4    0  501 -0.31951706708E+02 -0.65207521459E+01 -0.89264070773E+01  0.34067358475E+02  0.41800000000E+01 0. -1.
</event>
<event>
11    1  0.7882745E-009  0.1481724E+03  0.7561462E-02  0.1098761E+00
         22   -1    0    0    0    0  0.00000000000E+00  0.00000000000E+00  0.17255683013E+04  0.17255683013E+04  0.00000000000E+00 0. -1.
         22   -1    0    0    0    0 -0.00000000000E+00 -0.00000000000E+00 -0.59714467871E+03  0.59714467871E+03  0.00000000000E+00 0. -1.
        -24    2    1    2    0    0 -0.51371414099E+02  0.29562427242E+02 -0.47964334433E+03  0.49050175077E+03  0.83793021491E+02 0.  0.
         25    2    1    2    0    0  0.11724397739E+03  0.13937982025E+02 -0.42841306604E+02  0.17726429450E+03  0.12508730942E+03 0.  0.
         24    2    1    2    0    0 -0.65872563288E+02 -0.43500409267E+02  0.16509082735E+04  0.16549469347E+04  0.84378604989E+02 0.  0.
        -13    1    5    5    0    0  0.16308616811E+02  0.83948168287E+01  0.27020884375E+03  0.27083069097E+03  0.00000000000E+00 0.  1.
         14    1    5    5    0    0 -0.82181180098E+02 -0.51895226096E+02  0.13806994297E+04  0.13841162437E+04  0.00000000000E+00 0. -1.
         13    1    3    3    0    0 -0.67839731174E+02  0.19467199231E+02 -0.24219294104E+03  0.25226696507E+03  0.00000000000E+00 0. -1.
        -14    1    3    3    0    0  0.16468317074E+02  0.10095228011E+02 -0.23745040329E+03  0.23823478570E+03  0.00000000000E+00 0.  1.
          5    1    4    4  501    0  0.60655536166E+02 -0.43160404433E+02 -0.59097074757E+02  0.95141217268E+02  0.41800000000E+01 0. -1.
         -5    1    4    4    0  501  0.56588441221E+02  0.57098386458E+02  0.16255768154E+02  0.82123077233E+02  0.41800000000E+01 0. -1.
</event>
<event>
11    1  0.7882745E-009  0.1657396E+03  0.7561462E-02  0.1081800E+00
         22   -1    0    0    0    0  0.00000000000E+00  0.00000000000E+00  0.91403309263E+03  0.91403309263E+03  0.00000000000E+00 0. -1.
         22   -1    0    0    0    0 -0.00000000000E+00 -0.00000000000E+00 -0.30826299670E+03  0.30826299670E+03  0.00000000000E+00 0. -1.
        -24    2    1    2    0    0  0.52732568025E+02  0.88033682352E+02 -0.22812745568E+03  0.26224722530E+03  0.78745274026E+02 0.  0.
         25    2    1    2    0    0 -0.83685655288E+02 -0.16949362093E+03  0.16485733441E+03  0.28027899342E+03  0.12508795709E+03 0.  0.
         24    2    1    2    0    0  0.30953087263E+02  0.81459938576E+02  0.66904021720E+03  0.67976987060E+03  0.82936418658E+02 0.  0.
        -13    1    5    5    0    0 -0.79883615200E+01 -0.12370995008E+02  0.16098716256E+03  0.16165927733E+03  0.00000000000E+00 0.  1.
         14    1    5    5    0    0  0.38941448783E+02  0.93830933583E+02  0.50805305465E+03  0.51811059328E+03  0.00000000000E+00 0. -1.
         11    1    3    3    0    0  0.36863568451E+02  0.41057727341E+02 -0.19489796215E+03  0.20255832569E+03  0.00000000000E+00 0. -1.
        -12    1    3    3    0    0  0.15868999574E+02  0.46975955011E+02 -0.33229493529E+02  0.59688899612E+02  0.00000000000E+00 0.  1.
          5    1    4    4  501    0 -0.61076283950E+01 -0.10028086737E+03  0.20977007487E+02  0.10271836607E+03  0.41800000000E+01 0.  1.
         -5    1    4    4    0  501 -0.77578026893E+02 -0.69212753562E+02  0.14388032692E+03  0.17756062735E+03  0.41800000000E+01 0.  1.
</event>
<event>
11    1  0.7882745E-009  0.1367899E+03  0.7561462E-02  0.1111197E+00
         22   -1    0    0    0    0  0.00000000000E+00  0.00000000000E+00  0.38791838938E+03  0.38791838938E+03  0.00000000000E+00 0.  1.
         22   -1    0    0    0    0 -0.00000000000E+00 -0.00000000000E+00 -0.14294150644E+04  0.14294150644E+04  0.00000000000E+00 0.  1.
        -24    2    1    2    0    0 -0.33186999839E+02  0.44460129545E+02 -0.13631746642E+04  0.13667822895E+04  0.82283543645E+02 0.  0.
         25    2    1    2    0    0  0.10486077584E+02 -0.53912460021E+02  0.22048958748E+02  0.13838503924E+03  0.12509097223E+03 0.  0.
         24    2    1    2    0    0  0.22700922255E+02  0.94523304763E+01  0.29962903046E+03  0.31216612507E+03  0.84056262826E+02 0.  0.
        -11    1    5    5    0    0  0.30531088373E+02  0.16470505016E+02  0.29964968545E+03  0.30165105484E+03  0.00000000000E+00 0.  1.
         12    1    5    5    0    0 -0.78301661187E+01 -0.70181745395E+01 -0.20654988662E-01  0.10515070230E+02  0.00000000000E+00 0. -1.
         11    1    3    3    0    0 -0.12537524540E+02  0.25055585649E+02 -0.11782492332E+03  0.12111021612E+03  0.00000000000E+00 0. -1.
        -12    1    3    3    0    0 -0.20649475298E+02  0.19404543896E+02 -0.12453497409E+04  0.12456720733E+04  0.00000000000E+00 0.  1.
          5    1    4    4  501    0 -0.33191453401E+02 -0.14506173828E+02 -0.39077107656E+02  0.53447117796E+02  0.41800000000E+01 0.  1.
         -5    1    4    4    0  501  0.43677530985E+02 -0.39406286193E+02  0.61126066404E+02  0.84937921440E+02  0.41800000000E+01 0.  1.
</event>
<event>
11    1  0.7882745E-009  0.1834342E+03  0.7561462E-02  0.1066898E+00
         22   -1    0    0    0    0  0.00000000000E+00  0.00000000000E+00  0.14938449476E+04  0.14938449476E+04  0.00000000000E+00 0. -1.
         22   -1    0    0    0    0 -0.00000000000E+00 -0.00000000000E+00 -0.25109581149E+03  0.25109581149E+03  0.00000000000E+00 0.  1.
         24    2    1    2    0    0  0.13550372174E+03 -0.18634900526E+02 -0.17287202696E+03  0.23465916588E+03  0.80446679889E+02 0.  0.
         25    2    1    2    0    0 -0.12304677467E+03 -0.10138500033E+03  0.19586082119E+03  0.28183055117E+03  0.12509025242E+03 0.  0.
        -24    2    1    2    0    0 -0.12456947069E+02  0.12001990085E+03  0.12197603418E+04  0.12284510420E+04  0.81955591375E+02 0.  0.
        -11    1    3    3    0    0  0.12040096741E+03 -0.19968310627E+02 -0.18034181275E+03  0.21775742424E+03  0.00000000000E+00 0.  1.
         12    1    3    3    0    0  0.15102754325E+02  0.13334101018E+01  0.74697857972E+01  0.16901741642E+02  0.00000000000E+00 0. -1.
         13    1    5    5    0    0  0.39659831291E+01  0.10804743826E+03  0.11655860828E+04  0.11705899770E+04  0.00000000000E+00 0. -1.
        -14    1    5    5    0    0 -0.16422930198E+02  0.11972462587E+02  0.54174259074E+02  0.57861065000E+02  0.00000000000E+00 0.  1.
          5    1    4    4  501    0 -0.16238224651E+02 -0.93968608538E+02  0.95398293242E+02  0.13495216221E+03  0.41800000000E+01 0.  1.
         -5    1    4    4    0  501 -0.10680855002E+03 -0.74163917872E+01  0.10046252795E+03  0.14687838897E+03  0.41800000000E+01 0.  1.
</event>
<event>
11    1  0.7882745E-009  0.1349027E+03  0.7561462E-02  0.1113388E+00
         22   -1    0    0    0    0  0.00000000000E+00  0.00000000000E+00  0.97071982757E+03  0.97071982757E+03  0.00000000000E+00 0.  1.
         22   -1    0    0    0    0 -0.00000000000E+00 -0.00000000000E+00 -0.69176078268E+03  0.69176078268E+03  0.00000000000E+00 0. -1.
         24    2    1    2    0    0  0.70824077877E+02  0.23531891004E+02 -0.35573568117E+03  0.37277619118E+03  0.82730973357E+02 0.  0.
         25    2    1    2    0    0 -0.16882598640E+02  0.12622769059E+01 -0.31259858947E+03  0.33712304604E+03  0.12508978598E+03 0.  0.
        -24    2    1    2    0    0 -0.53941479237E+02 -0.24794167910E+02  0.94729331553E+03  0.95258137303E+03  0.80760217009E+02 0.  0.
        -13    1    3    3    0    0  0.19325370848E+02 -0.24065812074E+02 -0.47375579840E+02  0.56542716900E+02  0.00000000000E+00 0.  1.
         14    1    3    3    0    0  0.51498707029E+02  0.47597703078E+02 -0.30836010133E+03  0.31623347428E+03  0.00000000000E+00 0. -1.
         13    1    5    5    0    0  0.94227593582E+01 -0.21494269584E+02  0.92301543028E+02  0.95238473655E+02  0.00000000000E+00 0. -1.
        -14    1    5    5    0    0 -0.63364238595E+02 -0.32998983253E+01  0.85499177250E+03  0.85734289937E+03  0.00000000000E+00 0.  1.
          5    1    4    4  501    0 -0.38297948388E+01 -0.60475453141E+02 -0.18492844178E+03  0.19464826930E+03  0.41800000000E+01 0. -1.
         -5    1    4    4    0  501 -0.13052803802E+02  0.61737730047E+02 -0.12767014769E+03  0.14247477674E+03  0.41800000000E+01 0. -1.
</event>
<event>
11    1  0.7882745E-009  0.2724424E+03  0.7561462E-02  0.1012579E+00
         22   -1    0    0    0    0  0.00000000000E+00  0.00000000000E+00  0.50505947378E+03  0.50505947378E+03  0.00000000000E+00 0. -1.
         22   -1    0    0    0    0 -0.00000000000E+00 -0.00000000000E+00 -0.39064332482E+03  0.39064332482E+03  0.00000000000E+00 0.  1.
         24    2    1    2    0    0 -0.23090570341E+02  0.31018623691E+02 -0.16637452217E+03  0.18924322754E+03  0.81468939405E+02 0.  0.
         25    2    1    2    0    0  0.15830896314E+03 -0.22239431955E+03 -0.38162927271E+02  0.30269548382E+03  0.12508871144E+03 0.  0.
        -24    2    1    2    0    0 -0.13521839280E+03  0.19137569586E+03  0.31895359840E+03  0.40376408725E+03  0.79908507091E+02 0.  0.
        -13    1    3    3    0    0 -0.37053400872E+02  0.41773965364E+01 -0.15054996914E+03  0.15509899537E+03  0.00000000000E+00 0.  1.
         14    1    3    3    0    0  0.13962830532E+02  0.26841227154E+02 -0.15824553032E+02  0.34144232167E+02  0.00000000000E+00 0. -1.
         13    1    5    5    0    0 -0.10672821892E+03  0.82345337474E+02  0.16851520267E+03  0.21579861179E+03  0.00000000000E+00 0. -1.
        -14    1    5    5    0    0 -0.28490173875E+02  0.10903035838E+03  0.15043839572E+03  0.18796547546E+03  0.00000000000E+00 0.  1.
          5    1    4    4  501    0  0.17595405515E+03 -0.21158926912E+03 -0.21982278764E+02  0.27609878904E+03  0.41800000000E+01 0.  1.
         -5    1    4    4    0  501 -0.17645092013E+02 -0.10805050425E+02 -0.16180648507E+02  0.26596694775E+02  0.41800000000E+01 0.  1.
</event>
<event>
11    1  0.7882745E-009  0.1517167E+03  0.7561462E-02  0.1095137E+00
         22   -1    0    0    0    0  0.00000000000E+00  0.00000000000E+00  0.43034133360E+03  0.43034133360E+03  0.00000000000E+00 0. -1.
         22   -1    0    0    0    0 -0.00000000000E+00 -0.00000000000E+00 -0.11492182661E+04  0.11492182661E+04  0.00000000000E+00 0.  1.
         24    2    1    2    0    0 -0.70899997634E+02  0.51124658752E+02 -0.10649152519E+04  0.10714963484E+04  0.80121099046E+02 0.  0.
         25    2    1    2    0    0  0.55690805273E+02 -0.18626466199E+02 -0.13707373388E+02  0.13886766665E+03  0.12509166927E+03 0.  0.
        -24    2    1    2    0    0  0.15209192361E+02 -0.32498192554E+02  0.35974569280E+03  0.36919558462E+03  0.74839589548E+02 0.  0.
        -13    1    3    3    0    0 -0.80358698543E+02  0.27055541646E+02 -0.94648477657E+03  0.95027519963E+03  0.00000000000E+00 0.  1.
         14    1    3    3    0    0  0.94587009092E+01  0.24069117107E+02 -0.11843047534E+03  0.12122114878E+03  0.00000000000E+00 0. -1.
         13    1    5    5    0    0 -0.80187378043E+00  0.11731496670E+02  0.24363554470E+03  0.24391914573E+03  0.00000000000E+00 0. -1.
        -14    1    5    5    0    0  0.16011066141E+02 -0.44229689223E+02  0.11611014811E+03  0.12527643889E+03  0.00000000000E+00 0.  1.
          5    1    4    4  501    0  0.32831427762E+02 -0.13877600761E+02  0.55285014847E+02  0.65912030150E+02  0.41800000000E+01 0.  1.
         -5    1    4    4    0  501  0.22859377510E+02 -0.47488654378E+01 -0.68992388235E+02  0.72955636503E+02  0.41800000000E+01 0.  1.
</event>
<event>
11    1  0.7882745E-009  0.1965843E+03  0.7561462E-02  0.1056966E+00
         22   -1    0    0    0    0  0.00000000000E+00  0.00000000000E+00  0.30439316161E+03  0.30439316161E+03  0.00000000000E+00 0. -1.
         22   -1    0    0    0    0 -0.00000000000E+00 -0.00000000000E+00 -0.20912395180E+03  0.20912395180E+03  0.00000000000E+00 0. -1.
         24    2    1    2    0    0  0.32013939958E+02  0.69178361365E+02 -0.29866017683E+02  0.11542089481E+03  0.81360100257E+02 0.  0.
         25    2    1    2    0    0  0.12091382530E+03  0.20688604859E+02  0.20537381577E+02  0.17640144378E+03  0.12509002282E+03 0.  0.
        -24    2    1    2    0    0 -0.15292776526E+03 -0.89866966224E+02  0.10459784592E+03  0.22169477482E+03  0.82127284193E+02 0.  0.
        -11    1    3    3    0    0  0.47042346657E+01  0.45432316293E+02 -0.54900356065E+02  0.71416204629E+02  0.00000000000E+00 0.  1.
         12    1    3    3    0    0  0.27309705292E+02  0.23746045072E+02  0.25034338383E+02  0.44004690181E+02  0.00000000000E+00 0. -1.
         13    1    5    5    0    0 -0.13051305383E+03 -0.10567608908E+03  0.92426827746E+02  0.19168675361E+03  0.00000000000E+00 0. -1.
        -14    1    5    5    0    0 -0.22414711423E+02  0.15809122854E+02  0.12171018171E+02  0.30008021210E+02  0.00000000000E+00 0.  1.
          5    1    4    4  501    0  0.80364632499E+02 -0.14513320858E+02 -0.43583741847E+02  0.92661348967E+02  0.41800000000E+01 0. -1.
         -5    1    4    4    0  501  0.40549192799E+02  0.35201925718E+02  0.64121123424E+02  0.83740094818E+02  0.41800000000E+01 0. -1.
</event>
<event>
11    1  0.7882745E-009  0.2116013E+03  0.7561462E-02  0.1046610E+00
         22   -1    0    0    0    0  0.00000000000E+00  0.00000000000E+00  0.14575931431E+03  0.14575931431E+03  0.00000000000E+00 0.  1.
         22   -1    0    0    0    0 -0.00000000000E+00 -0.00000000000E+00 -0.18050302146E+04  0.18050302146E+04  0.00000000000E+00 0. -1.
         24    2    1    2    0    0  0.40060943436E+02 -0.14233217096E+03 -0.10182380906E+04  0.10320988035E+04  0.80967925337E+02 0.  0.
         25    2    1    2    0    0 -0.80277189141E+02  0.25974135549E+03 -0.69769644091E+03  0.75916959510E+03  0.12509257218E+03 0.  0.
        -24    2    1    2    0    0  0.40216245705E+02 -0.11740918453E+03  0.56663631233E+02  0.15952113032E+03  0.82667774152E+02 0.  0.
        -11    1    3    3    0    0  0.95090873343E+00 -0.78192191068E+01 -0.52393999344E+01  0.94602181018E+01  0.00000000000E+00 0.  1.
         12    1    3    3    0    0  0.39110034703E+02 -0.13451295185E+03 -0.10129986906E+04  0.10226385854E+04  0.00000000000E+00 0. -1.
         13    1    5    5    0    0 -0.28433899870E+01 -0.39512050647E+00  0.32362734837E+02  0.32489807524E+02  0.00000000000E+00 0. -1.
        -14    1    5    5    0    0  0.43059635692E+02 -0.11701406403E+03  0.24300896396E+02  0.12703132280E+03  0.00000000000E+00 0.  1.
          5    1    4    4  501    0  0.26219374084E+02  0.89639414192E+02 -0.29071083075E+03  0.30537344296E+03  0.41800000000E+01 0. -1.
         -5    1    4    4    0  501 -0.10649656322E+03  0.17010194130E+03 -0.40698561017E+03  0.45379615214E+03  0.41800000000E+01 0. -1.
</event>
<event>
11    1  0.7882745E-009  0.1303357E+03  0.7561462E-02  0.1118857E+00
         22   -1    0    0    0    0  0.00000000000E+00  0.00000000000E+00  0.27163335272E+03  0.27163335272E+03  0.00000000000E+00 0. -1.
         22   -1    0    0    0    0 -0.00000000000E+00 -0.00000000000E+00 -0.20064699793E+03  0.20064699793E+03  0.00000000000E+00 0.  1.
        -24    2    1    2    0    0  0.39237375501E+02  0.13074211586E+02 -0.61518547769E+02  0.11140803554E+03  0.83166772321E+02 0.  0.
         25    2    1    2    0    0 -0.30102449203E+02 -0.12227577771E+00 -0.65861754582E+02  0.14454272494E+03  0.12509458908E+03 0.  0.
         24    2    1    2    0    0 -0.91349262977E+01 -0.12951935809E+02  0.19836665714E+03  0.21632959018E+03  0.84840800335E+02 0.  0.
        -11    1    5    5    0    0  0.10698482138E+02 -0.24966779718E+02  0.14089585504E+02  0.30599248835E+02  0.00000000000E+00 0.  1.
         12    1    5    5    0    0 -0.19833408435E+02  0.12014843910E+02  0.18427707164E+03  0.18573034135E+03  0.00000000000E+00 0. -1.
         11    1    3    3    0    0  0.48787846024E+02 -0.35406039289E+00 -0.11199737553E+01  0.48801983768E+02  0.00000000000E+00 0. -1.
        -12    1    3    3    0    0 -0.95504705232E+01  0.13428271979E+02 -0.60398574014E+02  0.62606051772E+02  0.00000000000E+00 0.  1.
          5    1    4    4  501    0 -0.78166397094E+02  0.87466926908E+01 -0.32432202298E+02  0.85181044919E+02  0.41800000000E+01 0.  1.
         -5    1    4    4    0  501  0.48063947890E+02 -0.88689684685E+01 -0.33429552284E+02  0.59361680017E+02  0.41800000000E+01 0.  1.
</event>
<event>
11    1  0.7882745E-009  0.1414771E+03  0.7561462E-02  0.1105920E+00
         22   -1    0    0    0    0  0.00000000000E+00  0.00000000000E+00  0.23285592706E+04  0.23285592706E+04  0.00000000000E+00 0. -1.
         22   -1    0    0    0    0 -0.00000000000E+00 -0.00000000000E+00 -0.10863305685E+03  0.10863305685E+03  0.00000000000E+00 0. -1.
        -24    2    1    2    0    0 -0.51676967362E+02 -0.40126260282E+02 -0.73439829201E+02  0.12696319600E+03  0.80284611890E+02 0.  0.
         25    2    1    2    0    0  0.45044844432E+02  0.86059768057E+02  0.90165675681E+03  0.91546040022E+03  0.12509002990E+03 0.  0.
         24    2    1    2    0    0  0.66321229296E+01 -0.45933507775E+02  0.13917092861E+04  0.13947687312E+04  0.79819824036E+02 0.  0.
        -11    1    5    5    0    0  0.12744811269E+02 -0.37489127775E+02  0.25880859007E+03  0.26182007412E+03  0.00000000000E+00 0.  1.
         12    1    5    5    0    0 -0.61126883392E+01 -0.84443800007E+01  0.11329006960E+04  0.11329486571E+04  0.00000000000E+00 0. -1.
         13    1    3    3    0    0 -0.36661138428E+02 -0.37715343789E+02 -0.90147873104E+02  0.10437013583E+03  0.00000000000E+00 0. -1.
        -14    1    3    3    0    0 -0.15015828934E+02 -0.24109164924E+01  0.16708043903E+02  0.22593060173E+02  0.00000000000E+00 0.  1.
          5    1    4    4  501    0 -0.31425757847E+02  0.69675534304E+02  0.54171810425E+03  0.54709984026E+03  0.41800000000E+01 0.  1.
         -5    1    4    4    0  501  0.76470602280E+02  0.16384233753E+02  0.35993865256E+03  0.36836055996E+03  0.41800000000E+01 0.  1.
</event>
<event>
11    1  0.7882745E-009  0.1732322E+03  0.7561462E-02  0.1075253E+00
         22   -1    0    0    0    0  0.00000000000E+00  0.00000000000E+00  0.23000973010E+03  0.23000973010E+03  0.00000000000E+00 0. -1.
         22   -1    0    0    0    0 -0.00000000000E+00 -0.00000000000E+00 -0.83465618014E+03  0.83465618014E+03  0.00000000000E+00 0. -1.
        -24    2    1    2    0    0 -0.24557726883E+02 -0.24440837522E+02 -0.69266940872E+03  0.69830749683E+03  0.81498551359E+02 0.  0.
         25    2    1    2    0    0  0.22535744490E+02 -0.10125068437E+03 -0.42902117279E+02  0.16807078775E+03  0.12509051588E+03 0.  0.
         24    2    1    2    0    0  0.20219823933E+01  0.12569152189E+03  0.13092507596E+03  0.19828762565E+03  0.79838335939E+02 0.  0.
        -11    1    5    5    0    0  0.24148553388E+02  0.56221266809E+01  0.10917215530E+02  0.27091447618E+02  0.00000000000E+00 0.  1.
         12    1    5    5    0    0 -0.22126570994E+02  0.12006939521E+03  0.12000786043E+03  0.17119617804E+03  0.00000000000E+00 0. -1.
         13    1    3    3    0    0 -0.29541188466E+02 -0.48141821348E+02 -0.59520475725E+03  0.59787876683E+03  0.00000000000E+00 0. -1.
        -14    1    3    3    0    0  0.49834615824E+01  0.23700983827E+02 -0.97464651471E+02  0.10042873000E+03  0.00000000000E+00 0.  1.
          5    1    4    4  501    0  0.51844328590E+02 -0.89240154146E+02 -0.71150006735E+02  0.12542501894E+03  0.41800000000E+01 0. -1.
         -5    1    4    4    0  501 -0.29308584100E+02 -0.12010530222E+02  0.28247889456E+02  0.42645768804E+02  0.41800000000E+01 0. -1.
</event>
<event>
11    1  0.7882745E-009  0.1354013E+03  0.7561462E-02  0.1112805E+00
         22   -1    0    0    0    0  0.00000000000E+00  0.00000000000E+00  0.53472970088E+03  0.53472970088E+03  0.00000000000E+00 0. -1.
         22   -1    0    0    0    0 -0.00000000000E+00 -0.00000000000E+00 -0.70425353487E+03  0.70425353487E+03  0.00000000000E+00 0.  1.
        -24    2    1    2    0    0 -0.13452897283E+02 -0.29993949986E+02 -0.54202640639E+03  0.54907130589E+03  0.81277649107E+02 0.  0.
         25    2    1    2    0    0  0.64586255776E+02  0.34672790604E+02 -0.11994881459E+03  0.18817256542E+03  0.12509040496E+03 0.  0.
         24    2    1    2    0    0 -0.51133358493E+02 -0.46788406180E+01  0.49245138698E+03  0.50173936444E+03  0.81225053941E+02 0.  0.
        -11    1    5    5    0    0  0.11765035636E+02  0.13023736564E+02  0.30497134320E+02  0.35186772789E+02  0.00000000000E+00 0.  1.
         12    1    5    5    0    0 -0.62898394130E+02 -0.17702577182E+02  0.46195425266E+03  0.46655259165E+03  0.00000000000E+00 0. -1.
         11    1    3    3    0    0  0.26039941528E+02 -0.10207658430E+02 -0.76476388960E+02  0.81430417620E+02  0.00000000000E+00 0. -1.
        -12    1    3    3    0    0 -0.39492838811E+02 -0.19786291556E+02 -0.46555001743E+03  0.46764088826E+03  0.00000000000E+00 0.  1.
          5    1    4    4  501    0  0.55904110891E+01 -0.39370996256E+02 -0.67626092881E+01  0.40552846099E+02  0.41800000000E+01 0.  1.
         -5    1    4    4    0  501  0.58995844687E+02  0.74043786860E+02 -0.11318620530E+03  0.14761971932E+03  0.41800000000E+01 0.  1.
</event>
<event>
11    1  0.7882745E-009  0.1929532E+03  0.7561462E-02  0.1059622E+00
         22   -1    0    0    0    0  0.00000000000E+00  0.00000000000E+00  0.10061122277E+04  0.10061122277E+04  0.00000000000E+00 0. -1.
         22   -1    0    0    0    0 -0.00000000000E+00 -0.00000000000E+00 -0.10388690968E+03  0.10388690968E+03  0.00000000000E+00 0. -1.
        -24    2    1    2    0    0  0.22842751556E+02  0.90661352588E+02  0.24640505714E+02  0.12552271086E+03  0.80047012855E+02 0.  0.
         25    2    1    2    0    0  0.12822166628E+03 -0.62961783128E+02  0.16682170452E+03  0.25274558634E+03  0.12508344605E+03 0.  0.
         24    2    1    2    0    0 -0.15106441784E+03 -0.27699569461E+02  0.71076310781E+03  0.73173084020E+03  0.81597197281E+02 0.  0.
        -13    1    5    5    0    0 -0.20192462084E+02 -0.37454905773E+02  0.16226710854E+03  0.16775345006E+03  0.00000000000E+00 0.  1.
         14    1    5    5    0    0 -0.13087195575E+03  0.97553363126E+01  0.54849599926E+03  0.56397739015E+03  0.00000000000E+00 0. -1.
         13    1    3    3    0    0  0.28114278181E+01  0.45441630489E+02 -0.27875135552E+02  0.53384165161E+02  0.00000000000E+00 0. -1.
        -14    1    3    3    0    0  0.20031323738E+02  0.45219722100E+02  0.52515641266E+02  0.72138545695E+02  0.00000000000E+00 0.  1.
          5    1    4    4  501    0 -0.25026784871E+02 -0.92630054091E+01  0.18153029057E+02  0.32544555522E+02  0.41800000000E+01 0. -1.
         -5    1    4    4    0  501  0.15324845115E+03 -0.53698777718E+02  0.14866867546E+03  0.22020103081E+03  0.41800000000E+01 0. -1.
</event>
<event>
11    1  0.7882745E-009  0.1875070E+03  0.7561462E-02  0.1063727E+00
         22   -1    0    0    0    0  0.00000000000E+00  0.00000000000E+00  0.71665105548E+03  0.71665105548E+03  0.00000000000E+00 0. -1.
         22   -1    0    0    0    0 -0.00000000000E+00 -0.00000000000E+00 -0.25075757421E+03  0.25075757421E+03  0.00000000000E+00 0.  1.
        -24    2    1    2    0    0  0.75641019524E+02  0.11226277352E+03 -0.17225837966E+03  0.23585668832E+03  0.87355216856E+02 0.  0.
         25    2    1    2    0    0 -0.12258827433E+03 -0.13454158969E+03  0.25887007779E+03  0.34028078035E+03  0.12509183803E+03 0.  0.
         24    2    1    2    0    0  0.46947254810E+02  0.22278816166E+02  0.37928178314E+03  0.39127116102E+03  0.80858271339E+02 0.  0.
        -11    1    5    5    0    0  0.19565713451E+01 -0.24607439855E+02  0.51500069271E+02  0.57110519193E+02  0.00000000000E+00 0.  1.
         12    1    5    5    0    0  0.44990683465E+02  0.46886256020E+02  0.32778171386E+03  0.33416064183E+03  0.00000000000E+00 0. -1.
         11    1    3    3    0    0  0.60162353410E+02  0.17410890105E+02 -0.88206631303E+02  0.10818067142E+03  0.00000000000E+00 0. -1.
        -12    1    3    3    0    0  0.15478666113E+02  0.94851883417E+02 -0.84051748352E+02  0.12767601691E+03  0.00000000000E+00 0.  1.
          5    1    4    4  501    0 -0.90581098330E+02 -0.14845909313E+03  0.24903777387E+03  0.30378005682E+03  0.41800000000E+01 0. -1.
         -5    1    4    4    0  501 -0.32007176004E+02  0.13917503441E+02  0.98323039161E+01  0.36500723528E+02  0.41800000000E+01 0. -1.
</event>
<event>
11    1  0.7882745E-009  0.1535941E+03  0.7561462E-02  0.1093262E+00
         22   -1    0    0    0    0  0.00000000000E+00  0.00000000000E+00  0.25265161296E+03  0.25265161296E+03  0.00000000000E+00 0.  1.
         22   -1    0    0    0    0 -0.00000000000E+00 -0.00000000000E+00 -0.35718156300E+03  0.35718156300E+03  0.00000000000E+00 0. -1.
         24    2    1    2    0    0 -0.16379693381E+02  0.11622538029E+02 -0.24451336428E+03  0.25760312263E+03  0.78544291530E+02 0.  0.
         25    2    1    2    0    0 -0.56178789359E+02  0.46389125773E+02 -0.25313108243E+02  0.14695966293E+03  0.12509349189E+03 0.  0.
        -24    2    1    2    0    0  0.72558482740E+02 -0.58011663802E+02  0.16529652248E+03  0.20527039040E+03  0.78631458560E+02 0.  0.
        -11    1    3    3    0    0 -0.14866804086E+02 -0.20003465828E+02 -0.23244165117E+02  0.34080078064E+02  0.00000000000E+00 0.  1.
         12    1    3    3    0    0 -0.15128892955E+01  0.31626003858E+02 -0.22126919917E+03  0.22352304457E+03  0.00000000000E+00 0. -1.
         13    1    5    5    0    0  0.26968566001E+02 -0.14418527631E+01  0.26530749853E+01  0.27137083454E+02  0.00000000000E+00 0. -1.
        -14    1    5    5    0    0  0.45589916739E+02 -0.56569811039E+02  0.16264344750E+03  0.17813330695E+03  0.00000000000E+00 0.  1.
          5    1    4    4  501    0 -0.39149755004E+02 -0.88162075517E+01  0.41942972591E+02  0.58198919082E+02  0.41800000000E+01 0. -1.
         -5    1    4    4    0  501 -0.17029034355E+02  0.55205333324E+02 -0.67256080834E+02  0.88760743844E+02  0.41800000000E+01 0. -1.
</event>
<event>
11    1  0.7882745E-009  0.1648801E+03  0.7561462E-02  0.1082575E+00
         22   -1    0    0    0    0  0.00000000000E+00  0.00000000000E+00  0.14620588216E+04  0.14620588216E+04  0.00000000000E+00 0.  1.
         22   -1    0    0    0    0 -0.00000000000E+00 -0.00000000000E+00 -0.39010689367E+03  0.39010689367E+03  0.00000000000E+00 0.  1.
        -24    2    1    2    0    0 -0.18422900997E+02  0.73635008947E+00 -0.34281035709E+03  0.35264737012E+03  0.80630522959E+02 0.  0.
         25    2    1    2    0    0 -0.90514781269E+02 -0.19657780511E+01  0.11457068259E+03  0.19227855489E+03  0.12509121253E+03 0.  0.
         24    2    1    2    0    0  0.10893768227E+03  0.12294279616E+01  0.13001916025E+04  0.13072397903E+04  0.80676738141E+02 0.  0.
        -11    1    5    5    0    0  0.11713327424E+03 -0.61447846608E+01  0.10015806358E+04  0.10084253727E+04  0.00000000000E+00 0.  1.
         12    1    5    5    0    0 -0.81955919790E+01  0.73742126224E+01  0.29861096662E+03  0.29881441753E+03  0.00000000000E+00 0. -1.
         13    1    3    3    0    0 -0.25704066284E+02 -0.15658374563E+02 -0.44059636189E+02  0.53358553753E+02  0.00000000000E+00 0. -1.
        -14    1    3    3    0    0  0.72811652871E+01  0.16394724653E+02 -0.29875072090E+03  0.29928881637E+03  0.00000000000E+00 0.  1.
          5    1    4    4  501    0 -0.87197318264E+01 -0.91334669437E+01  0.10907198832E+03  0.10988004814E+03  0.41800000000E+01 0.  1.
         -5    1    4    4    0  501 -0.81795049443E+02  0.71676888926E+01  0.54986942667E+01  0.82398506758E+02  0.41800000000E+01 0.  1.
</event>
<event>
11    1  0.7882745E-009  0.2368855E+03  0.7561462E-02  0.1031127E+00
         22   -1    0    0    0    0  0.00000000000E+00  0.00000000000E+00  0.82279248035E+03  0.82279248035E+03  0.00000000000E+00 0. -1.
         22   -1    0    0    0    0 -0.00000000000E+00 -0.00000000000E+00 -0.73423142957E+03  0.73423142957E+03  0.00000000000E+00 0. -1.
         24    2    1    2    0    0  0.75670929717E+02  0.50860214129E+01 -0.65765747062E+03  0.66811198474E+03  0.90046200763E+02 0.  0.
         25    2    1    2    0    0 -0.98750835019E+02  0.19200090490E+03  0.27502656641E+03  0.37135376269E+03  0.12509168610E+03 0.  0.
        -24    2    1    2    0    0  0.23079905302E+02 -0.19708692631E+03  0.47119195499E+03  0.51755816250E+03  0.80427946432E+02 0.  0.
        -11    1    3    3    0    0  0.14814582582E+02  0.19891992169E+02 -0.38517699904E+02  0.45812404602E+02  0.00000000000E+00 0.  1.
         12    1    3    3    0    0  0.60856347135E+02 -0.14805970756E+02 -0.61913977071E+03  0.62229958013E+03  0.00000000000E+00 0. -1.
         11    1    5    5    0    0  0.30962896128E+02 -0.63550975818E+02  0.24273459231E+03  0.25281912461E+03  0.00000000000E+00 0. -1.
        -12    1    5    5    0    0 -0.78829908259E+01 -0.13353595049E+03  0.22845736268E+03  0.26473903789E+03  0.00000000000E+00 0.  1.
          5    1    4    4  501    0 -0.98725342690E+02  0.19550446514E+03  0.20154020601E+03  0.29766527546E+03  0.41800000000E+01 0.  1.
         -5    1    4    4    0  501 -0.25492329176E-01 -0.35035602419E+01  0.73486360401E+02  0.73688487223E+02  0.41800000000E+01 0.  1.
</event>
<event>
11    1  0.7882745E-009  0.1383212E+03  0.7561462E-02  0.1109448E+00
         22   -1    0    0    0    0  0.00000000000E+00  0.00000000000E+00  0.14370794486E+03  0.14370794486E+03  0.00000000000E+00 0. -1.
         22   -1    0    0    0    0 -0.00000000000E+00 -0.00000000000E+00 -0.13803611478E+04  0.13803611478E+04  0.00000000000E+00 0.  1.
         24    2    1    2    0    0  0.14777302479E+02  0.46014627553E+02 -0.12612550461E+04  0.12646090845E+04  0.78333459107E+02 0.  0.
         25    2    1    2    0    0 -0.68965584753E+02 -0.45096260363E+02 -0.22667153459E+02  0.15149663227E+03  0.12508998827E+03 0.  0.
        -24    2    1    2    0    0  0.54188282274E+02 -0.91836719016E+00  0.47268996558E+02  0.10796337589E+03  0.80526512182E+02 0.  0.
        -13    1    3    3    0    0  0.10387739870E+02  0.55372430226E+02 -0.12365001172E+04  0.12377829176E+04  0.00000000000E+00 0.  1.
         14    1    3    3    0    0  0.43895626087E+01 -0.93578026735E+01 -0.24754928863E+02  0.26826166961E+02  0.00000000000E+00 0. -1.
         11    1    5    5    0    0  0.41836490091E+02  0.30422329922E+02  0.52695874511E+02  0.73842164455E+02  0.00000000000E+00 0. -1.
        -12    1    5    5    0    0  0.12351792182E+02 -0.31340697112E+02 -0.54268779523E+01  0.34121211436E+02  0.00000000000E+00 0.  1.
          5    1    4    4  501    0 -0.95923863763E+02 -0.55088272411E+01 -0.34170203933E+02  0.10206277506E+03  0.41800000000E+01 0.  1.
         -5    1    4    4    0  501  0.26958279010E+02 -0.39587433121E+02  0.11503050473E+02  0.49433857209E+02  0.41800000000E+01 0.  1.
</event>
<event>
11    1  0.7882745E-009  0.1353549E+03  0.7561462E-02  0.1112859E+00
         22   -1    0    0    0    0  0.00000000000E+00  0.00000000000E+00  0.20072157948E+03  0.20072157948E+03  0.00000000000E+00 0. -1.
         22   -1    0    0    0    0 -0.00000000000E+00 -0.00000000000E+00 -0.11153981317E+04  0.11153981317E+04  0.00000000000E+00 0. -1.
        -24    2    1    2    0    0 -0.11286785192E+02  0.33817312148E+02 -0.93227477485E+03  0.93634112733E+03  0.79545262438E+02 0.  0.
         25    2    1    2    0    0 -0.33237093291E+02 -0.58908236182E+02 -0.13677594146E+03  0.19730744713E+03  0.12509071056E+03 0.  0.
         24    2    1    2    0    0  0.44523878483E+02  0.25090924034E+02  0.15437416413E+03  0.18247113670E+03  0.82779242281E+02 0.  0.
        -13    1    5    5    0    0 -0.59002201666E+01  0.34748729483E+02  0.24800986144E+02  0.43097281960E+02  0.00000000000E+00 0.  1.
         14    1    5    5    0    0  0.50424098650E+02 -0.96578054483E+01  0.12957317799E+03  0.13937385474E+03  0.00000000000E+00 0. -1.
         11    1    3    3    0    0  0.20603321923E+02  0.47795251871E+02 -0.51970012072E+03  0.52229981663E+03  0.00000000000E+00 0. -1.
        -12    1    3    3    0    0 -0.31890107115E+02 -0.13977939723E+02 -0.41257465414E+03  0.41404131070E+03  0.00000000000E+00 0.  1.
          5    1    4    4  501    0 -0.74006195363E+01 -0.93714583814E+02 -0.68759502595E+02  0.11654412892E+03  0.41800000000E+01 0. -1.
         -5    1    4    4    0  501 -0.25836473755E+02  0.34806347632E+02 -0.68016438869E+02  0.80763318208E+02  0.41800000000E+01 0. -1.
</event>
<event>
11    1  0.7882745E-009  0.1503611E+03  0.7561462E-02  0.1096510E+00
         22   -1    0    0    0    0  0.00000000000E+00  0.00000000000E+00  0.21775240034E+03  0.21775240034E+03  0.00000000000E+00 0.  1.
         22   -1    0    0    0    0 -0.00000000000E+00 -0.00000000000E+00 -0.59412083159E+03  0.59412083159E+03  0.00000000000E+00 0. -1.
        -24    2    1    2    0    0 -0.27775145932E+02  0.66513743112E+02 -0.32501067001E+03  0.34224881992E+03  0.79415252681E+02 0.  0.
         25    2    1    2    0    0  0.22433735293E+02 -0.12660588094E+03 -0.21352098640E+03  0.27887525997E+03  0.12509147621E+03 0.  0.
         24    2    1    2    0    0  0.53414106390E+01  0.60092137832E+02  0.16216322516E+03  0.19074915204E+03  0.80303995633E+02 0.  0.
        -13    1    5    5    0    0  0.23233143004E+01  0.71934152048E+02  0.16331892316E+03  0.17847406165E+03  0.00000000000E+00 0.  1.
         14    1    5    5    0    0  0.30180963386E+01 -0.11842014216E+02 -0.11556980035E+01  0.12275090390E+02  0.00000000000E+00 0. -1.
         13    1    3    3    0    0 -0.45342282052E+01  0.28000988559E+02 -0.26862716464E+03  0.27012065484E+03  0.00000000000E+00 0. -1.
        -14    1    3    3    0    0 -0.23240917727E+02  0.38512754553E+02 -0.56383505372E+02  0.72128165082E+02  0.00000000000E+00 0.  1.
          5    1    4    4  501    0  0.23002592169E+02 -0.15035021189E+03 -0.19975997124E+03  0.25110918735E+03  0.41800000000E+01 0.  1.
         -5    1    4    4    0  501 -0.56885687516E+00  0.23744330949E+02 -0.13761015158E+02  0.27766072616E+02  0.41800000000E+01 0.  1.
</event>
<event>
11    1  0.7882745E-009  0.1666504E+03  0.7561462E-02  0.1080984E+00
         22   -1    0    0    0    0  0.00000000000E+00  0.00000000000E+00  0.43808944198E+04  0.43808944198E+04  0.00000000000E+00 0.  1.
         22   -1    0    0    0    0 -0.00000000000E+00 -0.00000000000E+00 -0.22127691480E+03  0.22127691480E+03  0.00000000000E+00 0. -1.
        -24    2    1    2    0    0 -0.80914254496E+02  0.62485830246E+02 -0.16852885013E+03  0.21287264438E+03  0.80381551594E+02 0.  0.
         25    2    1    2    0    0  0.16955595185E+03  0.82233160080E+00  0.34794418070E+03  0.40677060216E+03  0.12508905972E+03 0.  0.
         24    2    1    2    0    0 -0.88641697351E+02 -0.63308161847E+02  0.39802021744E+04  0.39825280880E+04  0.81580322256E+02 0.  0.
        -13    1    5    5    0    0 -0.94683021909E+02 -0.37897370225E+02  0.35923834626E+04  0.35938308290E+04  0.00000000000E+00 0.  1.
         14    1    5    5    0    0  0.60413245586E+01 -0.25410791622E+02  0.38781871181E+03  0.38869725901E+03  0.00000000000E+00 0. -1.
         11    1    3    3    0    0 -0.57022522239E+02  0.68319309190E+02 -0.16574288191E+03  0.18812176630E+03  0.00000000000E+00 0. -1.
        -12    1    3    3    0    0 -0.23891732257E+02 -0.58334789438E+01 -0.27859682176E+01  0.24750878081E+02  0.00000000000E+00 0.  1.
          5    1    4    4  501    0 -0.60216099383E+01 -0.21093413153E+02  0.83847806410E+01  0.23853067121E+02  0.41800000000E+01 0. -1.
         -5    1    4    4    0  501  0.17557756179E+03  0.21915744754E+02  0.33955940006E+03  0.38291753504E+03  0.41800000000E+01 0. -1.
</event>
<event>
11    1  0.7882745E-009  0.1378917E+03  0.7561462E-02  0.1109936E+00
         22   -1    0    0    0    0  0.00000000000E+00  0.00000000000E+00  0.74667831564E+02  0.74667831564E+02  0.00000000000E+00 0. -1.
         22   -1    0    0    0    0 -0.00000000000E+00 -0.00000000000E+00 -0.88518130963E+03  0.88518130963E+03  0.00000000000E+00 0.  1.
        -24    2    1    2    0    0  0.15061763693E+02 -0.29893980671E+02 -0.65560436709E+03  0.66142523658E+03  0.80905813336E+02 0.  0.
         25    2    1    2    0    0  0.31128471942E+02 -0.17004415441E+02 -0.14613628055E+03  0.19560146481E+03  0.12508392635E+03 0.  0.
         24    2    1    2    0    0 -0.46190235634E+02  0.46898396112E+02 -0.87728304185E+01  0.10282243980E+03  0.78501555067E+02 0.  0.
        -13    1    5    5    0    0 -0.71668314231E+01 -0.20537233225E+02  0.79068538783E+01  0.23144324562E+02  0.00000000000E+00 0.  1.
         14    1    5    5    0    0 -0.39023404211E+02  0.67435629337E+02 -0.16679684297E+02  0.79678115242E+02  0.00000000000E+00 0. -1.
         13    1    3    3    0    0  0.29505104985E+02 -0.14763003415E+02 -0.97534302827E+02  0.10296328335E+03  0.00000000000E+00 0. -1.
        -14    1    3    3    0    0 -0.14443341292E+02 -0.15130977256E+02 -0.55807006427E+03  0.55846195323E+03  0.00000000000E+00 0.  1.
          5    1    4    4  501    0  0.39684465765E+02 -0.28018631215E+02 -0.16483929422E+03  0.17189928981E+03  0.41800000000E+01 0. -1.
         -5    1    4    4    0  501 -0.85559938229E+01  0.11014215775E+02  0.18703013666E+02  0.23702174997E+02  0.41800000000E+01 0. -1.
</event>
<event>
11    1  0.7882745E-009  0.1353841E+03  0.7561462E-02  0.1112825E+00
         22   -1    0    0    0    0  0.00000000000E+00  0.00000000000E+00  0.18641038692E+04  0.18641038692E+04  0.00000000000E+00 0.  1.
         22   -1    0    0    0    0 -0.00000000000E+00 -0.00000000000E+00 -0.85848467688E+02  0.85848467688E+02  0.00000000000E+00 0. -1.
        -24    2    1    2    0    0 -0.25830216659E+01 -0.56147762469E+02 -0.83897800555E+00  0.98612820821E+02  0.81021857020E+02 0.  0.
         25    2    1    2    0    0  0.53537252397E+02  0.44821406685E+02  0.11539871388E+03  0.18395530984E+03  0.12508995547E+03 0.  0.
         24    2    1    2    0    0 -0.50954230731E+02  0.11326355784E+02  0.16636956656E+04  0.16673842062E+04  0.97786519371E+02 0.  0.
        -11    1    5    5    0    0 -0.56849669132E+02  0.12732250615E+02  0.16581377679E+04  0.16591608881E+04  0.00000000000E+00 0.  1.
         12    1    5    5    0    0  0.58954384006E+01 -0.14058948311E+01  0.55578976369E+01  0.82233180866E+01  0.00000000000E+00 0. -1.
         11    1    3    3    0    0 -0.26594332517E+02 -0.16226080806E+02 -0.30327766495E+02  0.43477783303E+02  0.00000000000E+00 0. -1.
        -12    1    3    3    0    0  0.24011310851E+02 -0.39921681663E+02  0.29488788489E+02  0.55135037519E+02  0.00000000000E+00 0.  1.
          5    1    4    4  501    0  0.42831295217E+02  0.85956187506E+02  0.57514179467E+02  0.11201937002E+03  0.41800000000E+01 0.  1.
         -5    1    4    4    0  501  0.10705957181E+02 -0.41134780821E+02  0.57884534417E+02  0.71935939815E+02  0.41800000000E+01 0.  1.
</event>
<event>
11    1  0.7882745E-009  0.2227370E+03  0.7561462E-02  0.1039516E+00
         22   -1    0    0    0    0  0.00000000000E+00  0.00000000000E+00  0.52639882152E+03  0.52639882152E+03  0.00000000000E+00 0. -1.
         22   -1    0    0    0    0 -0.00000000000E+00 -0.00000000000E+00 -0.63295315181E+03  0.63295315181E+03  0.00000000000E+00 0.  1.
        -24    2    1    2    0    0  0.60617131139E+02  0.90760944949E+01 -0.19510485747E+03  0.21958645393E+03  0.79971827915E+02 0.  0.
         25    2    1    2    0    0 -0.20282722918E+02 -0.18910091411E+03 -0.37251255042E+03  0.43655835897E+03  0.12508819289E+03 0.  0.
         24    2    1    2    0    0 -0.40334408221E+02  0.18002481962E+03  0.46106307761E+03  0.50320716043E+03  0.81255674315E+02 0.  0.
        -11    1    5    5    0    0  0.10342688257E+01  0.12655535751E+03  0.23076705734E+03  0.26319339464E+03  0.00000000000E+00 0.  1.
         12    1    5    5    0    0 -0.41368677047E+02  0.53469462106E+02  0.23029602027E+03  0.24001376579E+03  0.00000000000E+00 0. -1.
         11    1    3    3    0    0  0.29107606901E+02 -0.24773340766E+02 -0.31374029681E+02  0.49449984132E+02  0.00000000000E+00 0. -1.
        -12    1    3    3    0    0  0.31509524239E+02  0.33849435261E+02 -0.16373082779E+03  0.17013646980E+03  0.00000000000E+00 0.  1.
          5    1    4    4  501    0 -0.51566090686E+02 -0.97609399343E+02 -0.28656636440E+03  0.30712279328E+03  0.41800000000E+01 0.  1.
         -5    1    4    4    0  501  0.31283367768E+02 -0.91491514770E+02 -0.85946186019E+02  0.12943556569E+03  0.41800000000E+01 0.  1.
</event>
<event>
11    1  0.7882745E-009  0.1511959E+03  0.7561462E-02  0.1095663E+00
         22   -1    0    0    0    0  0.00000000000E+00  0.00000000000E+00  0.32182591574E+03  0.32182591574E+03  0.00000000000E+00 0. -1.
         22   -1    0    0    0    0 -0.00000000000E+00 -0.00000000000E+00 -0.90461882044E+03  0.90461882044E+03  0.00000000000E+00 0. -1.
         24    2    1    2    0    0 -0.98150124479E+02  0.64360260701E+01 -0.83341003802E+03  0.84302602959E+03  0.80285277211E+02 0.  0.
         25    2    1    2    0    0 -0.15303297951E+02 -0.34152244537E+02  0.54780820231E+02  0.14159784554E+03  0.12509374429E+03 0.  0.
        -24    2    1    2    0    0  0.11345342243E+03  0.27716218467E+02  0.19583631308E+03  0.24182086105E+03  0.80533219784E+02 0.  0.
        -13    1    3    3    0    0 -0.55945433593E+02 -0.19463491581E+02 -0.22712359896E+03  0.23472078785E+03  0.00000000000E+00 0.  1.
         14    1    3    3    0    0 -0.42204690886E+02  0.25899517651E+02 -0.60628643906E+03  0.60830524175E+03  0.00000000000E+00 0. -1.
         11    1    5    5    0    0  0.19721052339E+02  0.20827043352E+02  0.11286187831E+03  0.11644951360E+03  0.00000000000E+00 0. -1.
        -12    1    5    5    0    0  0.93732370091E+02  0.68891751144E+01  0.82974434767E+02  0.12537134745E+03  0.00000000000E+00 0.  1.
          5    1    4    4  501    0 -0.14897164177E+02 -0.20262616103E+02  0.95251529120E+02  0.98604387892E+02  0.41800000000E+01 0. -1.
         -5    1    4    4    0  501 -0.40613377409E+00 -0.13889628434E+02 -0.40470708889E+02  0.42993457649E+02  0.41800000000E+01 0. -1.
</event>
