<event>
11    1  0.1003949E-008  0.4479976E+03  0.7561462E-02  0.9517873E-01
         22   -1    0    0    0    0  0.00000000000E+00  0.00000000000E+00  0.53744185830E+03  0.53744185830E+03  0.00000000000E+00 0.  1.
         22   -1    0    0    0    0 -0.00000000000E+00 -0.00000000000E+00 -0.20485192732E+04  0.20485192732E+04  0.00000000000E+00 0. -1.
         24    2    1    2    0    0  0.40449561081E+03 -0.17270803036E+03 -0.13001393957E+04  0.13749202621E+04  0.81231249786E+02 0.  0.
         25    2    1    2    0    0 -0.38099300685E+03  0.15988402762E+03 -0.64093962307E+03  0.77276801385E+03  0.12509288249E+03 0.  0.
        -24    2    1    2    0    0 -0.23502603957E+02  0.12824002734E+02  0.43000160394E+03  0.43827285549E+03  0.80404533649E+02 0.  0.
        -13    1    3    3    0    0  0.40368566985E+02 -0.32247945765E+02 -0.23280503485E+03  0.23846956925E+03  0.00000000000E+00 0.  1.
         14    1    3    3    0    0  0.36412704382E+03 -0.14046008459E+03 -0.10673343609E+04  0.11364506929E+04  0.00000000000E+00 0. -1.
         11    1    5    5    0    0  0.37133272291E+01 -0.30958221610E+02  0.11845757135E+03  0.12249243444E+03  0.00000000000E+00 0. -1.
        -12    1    5    5    0    0 -0.27215931186E+02  0.43782224344E+02  0.31154403259E+03  0.31578042105E+03  0.00000000000E+00 0.  1.
          5    1    4    4  501    0 -0.34948834273E+03  0.16134060746E+03 -0.63150049323E+03  0.73958315196E+03  0.41800000000E+01 0. -1.
         -5    1    4    4    0  501 -0.31504664121E+02 -0.14565798342E+01 -0.94391298393E+01  0.33184861885E+02  0.41800000000E+01 0. -1.
</event>
<event>
11    1  0.1003949E-008  0.2472734E+03  0.7561462E-02  0.1025362E+00
         22   -1    0    0    0    0  0.00000000000E+00  0.00000000000E+00  0.25970412710E+04  0.25970412710E+04  0.00000000000E+00 0.  1.
         22   -1    0    0    0    0 -0.00000000000E+00 -0.00000000000E+00 -0.21841042011E+03  0.21841042011E+03  0.00000000000E+00 0. -1.
        -24    2    1    2    0    0 -0.62171184720E+02 -0.98707063172E+02 -0.12100664787E+03  0.18614662258E+03  0.79997598329E+02 0.  0.
         25    2    1    2    0    0  0.23787527449E+03 -0.22550421681E+02  0.24873693341E+03  0.36689286554E+03  0.12508854869E+03 0.  0.
         24    2    1    2    0    0 -0.17570408977E+03  0.12125748485E+03  0.22509005653E+04  0.22624122030E+04  0.79876882206E+02 0.  0.
        -11    1    5    5    0    0 -0.14648685430E+03  0.61629066269E+02  0.17331284603E+04  0.17403996093E+04  0.00000000000E+00 0.  1.
         12    1    5    5    0    0 -0.29217235466E+02  0.59628418585E+02  0.51777210509E+03  0.52201259368E+03  0.00000000000E+00 0. -1.
         13    1    3    3    0    0 -0.75937362308E+02 -0.96967284754E+02 -0.12043277707E+03  0.17225908133E+03  0.00000000000E+00 0. -1.
        -14    1    3    3    0    0  0.13766177587E+02 -0.17397784188E+01 -0.57387080152E+00  0.13887541251E+02  0.00000000000E+00 0.  1.
          5    1    4    4  501    0  0.10311807864E+03  0.39662386378E+02  0.57018016796E+02  0.12439843116E+03  0.41800000000E+01 0.  1.
         -5    1    4    4    0  501  0.13475719585E+03 -0.62212808060E+02  0.19171891661E+03  0.24249443438E+03  0.41800000000E+01 0.  1.
</event>
<event>
11    1  0.1003949E-008  0.1513161E+03  0.7561462E-02  0.1095542E+00
         22   -1    0    0    0    0  0.00000000000E+00  0.00000000000E+00  0.49931261941E+03  0.49931261941E+03  0.00000000000E+00 0.  1.
         22   -1    0    0    0    0 -0.00000000000E+00 -0.00000000000E+00 -0.98457198969E+03  0.98457198969E+03  0.00000000000E+00 0.  1.
         24    2    1    2    0    0 -0.29690498154E+02 -0.39813217349E+02 -0.92740521965E+03  0.93268752091E+03  0.85784335743E+02 0.  0.
         25    2    1    2    0    0  0.44394243242E+02  0.11607406762E+03  0.12532748586E+03  0.21632969180E+03  0.12509004291E+03 0.  0.
        -24    2    1    2    0    0 -0.14703745088E+02 -0.76260850268E+02  0.31681836352E+03  0.33486739640E+03  0.75699275469E+02 0.  0.
        -11    1    3    3    0    0 -0.57759486632E+02 -0.16293630164E+02 -0.46945019738E+03  0.47327067150E+03  0.00000000000E+00 0.  1.
         12    1    3    3    0    0  0.28068988478E+02 -0.23519587185E+02 -0.45795502227E+03  0.45941684941E+03  0.00000000000E+00 0. -1.
         13    1    5    5    0    0  0.16138500842E+02 -0.31596122966E+02  0.22824199781E+03  0.23098306379E+03  0.00000000000E+00 0. -1.
        -14    1    5    5    0    0 -0.30842245930E+02 -0.44664727302E+02  0.88576365715E+02  0.10388433261E+03  0.00000000000E+00 0.  1.
          5    1    4    4  501    0  0.65436704908E+00 -0.11406233825E+02  0.69221767672E+02  0.70282685535E+02  0.41800000000E+01 0. -1.
         -5    1    4    4    0  501  0.43739876193E+02  0.12748030144E+03  0.56105718183E+02  0.14604700626E+03  0.41800000000E+01 0. -1.
</event>
<event>
11    1  0.1003949E-008  0.1353390E+03  0.7561462E-02  0.1112878E+00
         22   -1    0    0    0    0  0.00000000000E+00  0.00000000000E+00  0.29352344000E+03  0.29352344000E+03  0.00000000000E+00 0.  1.
         22   -1    0    0    0    0 -0.00000000000E+00 -0.00000000000E+00 -0.31589696651E+03  0.31589696651E+03  0.00000000000E+00 0. -1.
         24    2    1    2    0    0  0.91238079980E+01  0.47924968011E+02 -0.24239306625E+03  0.26043474477E+03  0.81803491891E+02 0.  0.
         25    2    1    2    0    0 -0.23305534587E+02 -0.83504134088E+02  0.55399113263E+02  0.16196272180E+03  0.12508706228E+03 0.  0.
        -24    2    1    2    0    0  0.14181726589E+02  0.35579166077E+02  0.16462042649E+03  0.18702293994E+03  0.80066827196E+02 0.  0.
        -13    1    3    3    0    0 -0.17206517231E+02  0.18960105762E+02 -0.14952040104E+02  0.29649845682E+02  0.00000000000E+00 0.  1.
         14    1    3    3    0    0  0.26330325229E+02  0.28964862250E+02 -0.22744102615E+03  0.23078489909E+03  0.00000000000E+00 0. -1.
         13    1    5    5    0    0  0.12058821063E+02  0.32425510606E+02  0.15592849190E+02  0.37946881945E+02  0.00000000000E+00 0. -1.
        -14    1    5    5    0    0  0.21229055263E+01  0.31536554711E+01  0.14902757730E+03  0.14907605799E+03  0.00000000000E+00 0.  1.
          5    1    4    4  501    0 -0.29980971635E+02  0.15666642780E+02  0.52306122047E+02  0.62431603854E+02  0.41800000000E+01 0. -1.
         -5    1    4    4    0  501  0.66754370482E+01 -0.99170776868E+02  0.30929912166E+01  0.99531117943E+02  0.41800000000E+01 0. -1.
</event>
<event>
11    1  0.1003949E-008  0.2002647E+03  0.7561462E-02  0.1054337E+00
         22   -1    0    0    0    0  0.00000000000E+00  0.00000000000E+00  0.10461407093E+04  0.10461407093E+04  0.00000000000E+00 0.  1.
         22   -1    0    0    0    0 -0.00000000000E+00 -0.00000000000E+00 -0.96876341091E+03  0.96876341091E+03  0.00000000000E+00 0. -1.
        -24    2    1    2    0    0  0.64177149467E+02 -0.11122940602E+03 -0.88025025576E+03  0.89323279591E+03  0.80830858347E+02 0.  0.
         25    2    1    2    0    0 -0.21278795053E+03  0.89350609274E+02  0.16558669326E+03  0.31036669781E+03  0.12508513443E+03 0.  0.
         24    2    1    2    0    0  0.14861080106E+03  0.21878796743E+02  0.79204086091E+03  0.81130462650E+03  0.91228393022E+02 0.  0.
        -11    1    5    5    0    0  0.36447549546E+02  0.10234652726E+01  0.43395603993E+03  0.43548515008E+03  0.00000000000E+00 0.  1.
         12    1    5    5    0    0  0.11216325152E+03  0.20855331471E+02  0.35808482098E+03  0.37581947643E+03  0.00000000000E+00 0. -1.
         13    1    3    3    0    0  0.65940785115E+02 -0.10088229663E+03 -0.87082586809E+03  0.87912633760E+03  0.00000000000E+00 0. -1.
        -14    1    3    3    0    0 -0.17636356480E+01 -0.10347109391E+02 -0.94243876615E+01  0.14106458317E+02  0.00000000000E+00 0.  1.
          5    1    4    4  501    0 -0.59700506079E+02  0.45055634227E+02 -0.72166210663E+01  0.75257641614E+02  0.41800000000E+01 0. -1.
         -5    1    4    4    0  501 -0.15308744445E+03  0.44294975047E+02  0.17280331432E+03  0.23510905619E+03  0.41800000000E+01 0. -1.
</event>
<event>
11    1  0.1003949E-008  0.1390398E+03  0.7561462E-02  0.1108635E+00
         22   -1    0    0    0    0  0.00000000000E+00  0.00000000000E+00  0.10250495478E+04  0.10250495478E+04  0.00000000000E+00 0.  1.
         22   -1    0    0    0    0 -0.00000000000E+00 -0.00000000000E+00 -0.86292515067E+03  0.86292515067E+03  0.00000000000E+00 0. -1.
        -24    2    1    2    0    0 -0.24864037197E+02  0.57718000591E+02 -0.64719602278E+03  0.65525677164E+03  0.80926861703E+02 0.  0.
         25    2    1    2    0    0  0.32367587463E+02 -0.39289016155E+02 -0.18825593805E+03  0.23168722483E+03  0.12508950566E+03 0.  0.
         24    2    1    2    0    0 -0.75035502666E+01 -0.18428984436E+02  0.99757635794E+03  0.10010307020E+04  0.80671839283E+02 0.  0.
        -11    1    5    5    0    0  0.11506912038E+02 -0.46588962315E+02  0.66265622268E+03  0.66439160883E+03  0.00000000000E+00 0.  1.
         12    1    5    5    0    0 -0.19010462305E+02  0.28159977880E+02  0.33492013526E+03  0.33663909315E+03  0.00000000000E+00 0. -1.
         11    1    3    3    0    0 -0.32160841685E+02  0.75150718441E+02 -0.56712598667E+03  0.57298676684E+03  0.00000000000E+00 0. -1.
        -12    1    3    3    0    0  0.72968044879E+01 -0.17432717850E+02 -0.80070036112E+02  0.82270004804E+02  0.00000000000E+00 0.  1.
          5    1    4    4  501    0 -0.10928643773E+02  0.15686388583E+02 -0.15107104043E+03  0.15233328493E+03  0.41800000000E+01 0. -1.
         -5    1    4    4    0  501  0.43296231237E+02 -0.54975404738E+02 -0.37184897624E+02  0.79353939894E+02  0.41800000000E+01 0. -1.
</event>
<event>
11    1  0.1003949E-008  0.1524520E+03  0.7561462E-02  0.1094399E+00
         22   -1    0    0    0    0  0.00000000000E+00  0.00000000000E+00  0.43687996364E+03  0.43687996364E+03  0.00000000000E+00 0.  1.
         22   -1    0    0    0    0 -0.00000000000E+00 -0.00000000000E+00 -0.37003610408E+03  0.37003610408E+03  0.00000000000E+00 0. -1.
        -24    2    1    2    0    0  0.98915524556E+00 -0.27662675186E+02 -0.31553566239E+03  0.32667267055E+03  0.79912936472E+02 0.  0.
         25    2    1    2    0    0  0.23268433784E+02 -0.64848027330E+02  0.11866535977E+03  0.18567625925E+03  0.12509004350E+03 0.  0.
         24    2    1    2    0    0 -0.24257589030E+02  0.92510702516E+02  0.26371416218E+03  0.29456713792E+03  0.89877576200E+02 0.  0.
        -11    1    5    5    0    0 -0.14649486888E+02  0.93431069978E+02  0.26785797858E+03  0.28406314262E+03  0.00000000000E+00 0.  1.
         12    1    5    5    0    0 -0.96081021413E+01 -0.92036746143E+00 -0.41438164010E+01  0.10503995306E+02  0.00000000000E+00 0. -1.
         13    1    3    3    0    0 -0.62926358485E+01 -0.54376040198E+02 -0.24157841414E+03  0.24770240449E+03  0.00000000000E+00 0. -1.
        -14    1    3    3    0    0  0.72817910941E+01  0.26713365012E+02 -0.73957248253E+02  0.78970266056E+02  0.00000000000E+00 0.  1.
          5    1    4    4  501    0 -0.25934156099E+02  0.25504025792E+02  0.49774241535E+02  0.61789831724E+02  0.41800000000E+01 0.  1.
         -5    1    4    4    0  501  0.49202589883E+02 -0.90352053121E+02  0.68891118235E+02  0.12388642753E+03  0.41800000000E+01 0.  1.
</event>
<event>
11    1  0.1003949E-008  0.1541701E+03  0.7561462E-02  0.1092692E+00
         22   -1    0    0    0    0  0.00000000000E+00  0.00000000000E+00  0.72331627107E+03  0.72331627107E+03  0.00000000000E+00 0.  1.
         22   -1    0    0    0    0 -0.00000000000E+00 -0.00000000000E+00 -0.22598610270E+03  0.22598610270E+03  0.00000000000E+00 0. -1.
         24    2    1    2    0    0 -0.29172287817E+01 -0.20442197858E+02 -0.10283037060E+03  0.13084420859E+03  0.78228691197E+02 0.  0.
         25    2    1    2    0    0 -0.54560435335E+02 -0.50220899279E+02 -0.51854718369E+02  0.15438937864E+03  0.12509271998E+03 0.  0.
        -24    2    1    2    0    0  0.57477664117E+02  0.70663097137E+02  0.65201525734E+03  0.66406878654E+03  0.86985644091E+02 0.  0.
        -11    1    3    3    0    0 -0.37103787105E+02  0.28964142057E+01 -0.33375314887E+02  0.49989917750E+02  0.00000000000E+00 0.  1.
         12    1    3    3    0    0  0.34186558323E+02 -0.23338612064E+02 -0.69455055712E+02  0.80854290839E+02  0.00000000000E+00 0. -1.
         11    1    5    5    0    0  0.67112631870E+02  0.32710013173E+02  0.27262309863E+03  0.28266128887E+03  0.00000000000E+00 0. -1.
        -12    1    5    5    0    0 -0.96349677538E+01  0.37953083964E+02  0.37939215872E+03  0.38140749767E+03  0.00000000000E+00 0.  1.
          5    1    4    4  501    0  0.16961600044E+02  0.62920308487E+01  0.27687857058E+02  0.33337296781E+02  0.41800000000E+01 0.  1.
         -5    1    4    4    0  501 -0.71522035379E+02 -0.56512930128E+02 -0.79542575427E+02  0.12105208186E+03  0.41800000000E+01 0.  1.
</event>
<event>
11    1  0.1003949E-008  0.1435654E+03  0.7561462E-02  0.1103641E+00
         22   -1    0    0    0    0  0.00000000000E+00  0.00000000000E+00  0.19733836642E+03  0.19733836642E+03  0.00000000000E+00 0. -1.
         22   -1    0    0    0    0 -0.00000000000E+00 -0.00000000000E+00 -0.11535437379E+04  0.11535437379E+04  0.00000000000E+00 0.  1.
        -24    2    1    2    0    0  0.54945325980E+02 -0.45746294018E+02 -0.10693165613E+04  0.10748710862E+04  0.82451388176E+02 0.  0.
         25    2    1    2    0    0 -0.21053896050E+02  0.43546179309E+02  0.53179383998E+01  0.13422260421E+03  0.12509152945E+03 0.  0.
         24    2    1    2    0    0 -0.33891429930E+02  0.22001147087E+01  0.10779325136E+03  0.14178841396E+03  0.85621841645E+02 0.  0.
        -13    1    5    5    0    0 -0.14487061087E+02  0.37604427472E+02  0.19639876058E+02  0.44829595537E+02  0.00000000000E+00 0.  1.
         14    1    5    5    0    0 -0.19404368843E+02 -0.35404312763E+02  0.88153375305E+02  0.96958818423E+02  0.00000000000E+00 0. -1.
         11    1    3    3    0    0  0.48455370687E+02 -0.31045306708E+02 -0.30476562144E+03  0.31015128249E+03  0.00000000000E+00 0. -1.
        -12    1    3    3    0    0  0.64899552929E+01 -0.14700987310E+02 -0.76455093983E+03  0.76471980368E+03  0.00000000000E+00 0.  1.
          5    1    4    4  501    0 -0.47647883094E+02  0.72893217745E+02 -0.16621222414E+02  0.88755165433E+02  0.41800000000E+01 0. -1.
         -5    1    4    4    0  501  0.26593987044E+02 -0.29347038435E+02  0.21939160814E+02  0.45467438778E+02  0.41800000000E+01 0. -1.
</event>
<event>
11    1  0.1003949E-008  0.1604573E+03  0.7561462E-02  0.1086648E+00
         22   -1    0    0    0    0  0.00000000000E+00  0.00000000000E+00  0.97612604338E+02  0.97612604338E+02  0.00000000000E+00 0.  1.
         22   -1    0    0    0    0 -0.00000000000E+00 -0.00000000000E+00 -0.19426965984E+04  0.19426965984E+04  0.00000000000E+00 0.  1.
        -24    2    1    2    0    0 -0.27522024813E+02  0.38636346308E+01 -0.17186813255E+04  0.17208565525E+04  0.81910841837E+02 0.  0.
         25    2    1    2    0    0  0.10026272842E+03 -0.58374693844E+02 -0.82944389236E+02  0.18970560815E+03  0.12509287137E+03 0.  0.
         24    2    1    2    0    0 -0.72740703607E+02  0.54511059214E+02 -0.43458279333E+02  0.12974704213E+03  0.81749662754E+02 0.  0.
        -11    1    5    5    0    0 -0.70003659371E+02  0.42150801097E+02  0.28256466650E+01  0.81762990634E+02  0.00000000000E+00 0.  1.
         12    1    5    5    0    0 -0.27370442365E+01  0.12360258116E+02 -0.46283925998E+02  0.47984051493E+02  0.00000000000E+00 0. -1.
         11    1    3    3    0    0 -0.42871486551E+02 -0.21071406942E+02 -0.64100946137E+03  0.64278697724E+03  0.00000000000E+00 0. -1.
        -12    1    3    3    0    0  0.15349461738E+02  0.24935041573E+02 -0.10776718642E+04  0.10780695753E+04  0.00000000000E+00 0.  1.
          5    1    4    4  501    0  0.39245634799E+02  0.31627011490E+02  0.35511201689E+01  0.50700794481E+02  0.41800000000E+01 0. -1.
         -5    1    4    4    0  501  0.61017093621E+02 -0.90001705335E+02 -0.86495509405E+02  0.13900481367E+03  0.41800000000E+01 0. -1.
</event>
<event>
11    1  0.1003949E-008  0.1519530E+03  0.7561462E-02  0.1094900E+00
         22   -1    0    0    0    0  0.00000000000E+00  0.00000000000E+00  0.13742821363E+04  0.13742821363E+04  0.00000000000E+00 0. -1.
         22   -1    0    0    0    0 -0.00000000000E+00 -0.00000000000E+00 -0.84417540394E+03  0.84417540394E+03  0.00000000000E+00 0. -1.
         24    2    1    2    0    0 -0.10468329841E+02 -0.34282359135E+02 -0.67005654723E+03  0.67600296858E+03  0.81971769286E+02 0.  0.
         25    2    1    2    0    0  0.53839390572E+02  0.10824499740E+03 -0.12366506803E+03  0.21343846029E+03  0.12508903965E+03 0.  0.
        -24    2    1    2    0    0 -0.43371060731E+02 -0.73962638269E+02  0.13238283476E+04  0.13290161114E+04  0.80067531315E+02 0.  0.
        -11    1    3    3    0    0 -0.16192427955E+01 -0.45039879914E+02 -0.17372108574E+03  0.17947208240E+03  0.00000000000E+00 0.  1.
         12    1    3    3    0    0 -0.88490870455E+01  0.10757520780E+02 -0.49633546149E+03  0.49653088618E+03  0.00000000000E+00 0. -1.
         11    1    5    5    0    0 -0.44251898998E+02 -0.90258507396E+02  0.10937088505E+04  0.10983186597E+04  0.00000000000E+00 0. -1.
        -12    1    5    5    0    0  0.88083826708E+00  0.16295869127E+02  0.23011949715E+03  0.23069745164E+03  0.00000000000E+00 0.  1.
          5    1    4    4  501    0  0.37142187310E+02  0.38519782615E+02 -0.13068525229E+03  0.14127782309E+03  0.41800000000E+01 0. -1.
         -5    1    4    4    0  501  0.16697203261E+02  0.69725214789E+02  0.70201842619E+01  0.72160637201E+02  0.41800000000E+01 0. -1.
</event>
<event>
11    1  0.1003949E-008  0.2140727E+03  0.7561462E-02  0.1044995E+00
         22   -1    0    0    0    0  0.00000000000E+00  0.00000000000E+00  0.23205413083E+03  0.23205413083E+03  0.00000000000E+00 0. -1.
         22   -1    0    0    0    0 -0.00000000000E+00 -0.00000000000E+00 -0.11104386084E+04  0.11104386084E+04  0.00000000000E+00 0. -1.
         24    2    1    2    0    0  0.15327332650E+03  0.18163865006E+02 -0.67128489515E+03  0.69338143761E+03  0.79572413271E+02 0.  0.
         25    2    1    2    0    0 -0.29579288486E+03  0.47143978047E+02 -0.30353709365E+03  0.44440465118E+03  0.12507894057E+03 0.  0.
        -24    2    1    2    0    0  0.14251955836E+03 -0.65307843053E+02  0.96437511181E+02  0.20470665048E+03  0.89597323124E+02 0.  0.
        -11    1    3    3    0    0  0.71033385299E+01  0.63855081510E+01 -0.19027866094E+03  0.19051824307E+03  0.00000000000E+00 0.  1.
         12    1    3    3    0    0  0.14616998797E+03  0.11778356855E+02 -0.48100623421E+03  0.50286319454E+03  0.00000000000E+00 0. -1.
         13    1    5    5    0    0  0.14954899830E+03 -0.43249989137E+02  0.92893385390E+02  0.18128608745E+03  0.00000000000E+00 0. -1.
        -14    1    5    5    0    0 -0.70294399431E+01 -0.22057853916E+02  0.35441257909E+01  0.23420563036E+02  0.00000000000E+00 0.  1.
          5    1    4    4  501    0 -0.10614340819E+03  0.27795560251E+02 -0.19815147842E+03  0.22654027693E+03  0.41800000000E+01 0. -1.
         -5    1    4    4    0  501 -0.18964947667E+03  0.19348417797E+02 -0.10538561523E+03  0.21786437425E+03  0.41800000000E+01 0. -1.
</event>
<event>
11    1  0.1003949E-008  0.1281618E+03  0.7561462E-02  0.1121548E+00
         22   -1    0    0    0    0  0.00000000000E+00  0.00000000000E+00  0.13533897144E+04  0.13533897144E+04  0.00000000000E+00 0.  1.
         22   -1    0    0    0    0 -0.00000000000E+00 -0.00000000000E+00 -0.84971753718E+02  0.84971753718E+02  0.00000000000E+00 0. -1.
        -24    2    1    2    0    0  0.13016386932E+02  0.27160896972E+02  0.20165300171E+01  0.85379904391E+02  0.79865643598E+02 0.  0.
         25    2    1    2    0    0  0.12830405322E+02 -0.27825052906E+02  0.57281824547E+02  0.14096317784E+03  0.12510218709E+03 0.  0.
         24    2    1    2    0    0 -0.25846792254E+02  0.66415593421E+00  0.12091196061E+04  0.12120183858E+04  0.79685933825E+02 0.  0.
        -11    1    5    5    0    0 -0.28251610086E+02  0.36424030163E+02  0.80226236167E+03  0.80358556507E+03  0.00000000000E+00 0.  1.
         12    1    5    5    0    0  0.24048178326E+01 -0.35759874229E+02  0.40685724440E+03  0.40843282076E+03  0.00000000000E+00 0. -1.
         11    1    3    3    0    0  0.46359931059E+02  0.22956669993E+02  0.41378993961E+00  0.51734158223E+02  0.00000000000E+00 0. -1.
        -12    1    3    3    0    0 -0.33343544127E+02  0.42042269784E+01  0.16027400775E+01  0.33645746168E+02  0.00000000000E+00 0.  1.
          5    1    4    4  501    0 -0.88459807634E+01  0.29771184164E+02 -0.23610796536E+02  0.39236677934E+02  0.41800000000E+01 0. -1.
         -5    1    4    4    0  501  0.21676386085E+02 -0.57596237070E+02  0.80892621083E+02  0.10172649991E+03  0.41800000000E+01 0. -1.
</event>
<event>
11    1  0.1003949E-008  0.1872450E+03  0.7561462E-02  0.1063929E+00
         22   -1    0    0    0    0  0.00000000000E+00  0.00000000000E+00  0.13314412430E+04  0.13314412430E+04  0.00000000000E+00 0. -1.
         22   -1    0    0    0    0 -0.00000000000E+00 -0.00000000000E+00 -0.12760264468E+03  0.12760264468E+03  0.00000000000E+00 0. -1.
         24    2    1    2    0    0  0.28144044843E+02 -0.17756003868E+02 -0.86832093750E+02  0.11933872294E+03  0.74796760324E+02 0.  0.
         25    2    1    2    0    0 -0.14002925082E+03  0.79773572558E+02  0.63031360230E+03  0.66250515899E+03  0.12508331021E+03 0.  0.
        -24    2    1    2    0    0  0.11188520597E+03 -0.62017568690E+02  0.66035708973E+03  0.67720000569E+03  0.78510404459E+02 0.  0.
        -11    1    3    3    0    0  0.31268356441E+00  0.14875322160E+02  0.67944686320E+01  0.16356582295E+02  0.00000000000E+00 0.  1.
         12    1    3    3    0    0  0.27831361278E+02 -0.32631326028E+02 -0.93626562382E+02  0.10298214065E+03  0.00000000000E+00 0. -1.
         11    1    5    5    0    0  0.78888463409E+02 -0.51585867943E+02  0.60214816521E+03  0.60948084818E+03  0.00000000000E+00 0. -1.
        -12    1    5    5    0    0  0.32996742565E+02 -0.10431700747E+02  0.58208924521E+02  0.67719157513E+02  0.00000000000E+00 0.  1.
          5    1    4    4  501    0 -0.11264107610E+03  0.26950313250E+02  0.22770692909E+03  0.25550391263E+03  0.41800000000E+01 0.  1.
         -5    1    4    4    0  501 -0.27388174712E+02  0.52823259308E+02  0.40260667320E+03  0.40700124637E+03  0.41800000000E+01 0.  1.
</event>
<event>
11    1  0.1003949E-008  0.1632805E+03  0.7561462E-02  0.1084032E+00
         22   -1    0    0    0    0  0.00000000000E+00  0.00000000000E+00  0.48393496384E+03  0.48393496384E+03  0.00000000000E+00 0.  1.
         22   -1    0    0    0    0 -0.00000000000E+00 -0.00000000000E+00 -0.12456706107E+04  0.12456706107E+04  0.00000000000E+00 0.  1.
        -24    2    1    2    0    0 -0.83760804819E+02  0.65290186745E+02 -0.11923797277E+04  0.11997521113E+04  0.79731000915E+02 0.  0.
         25    2    1    2    0    0  0.19539928290E+02 -0.74129366331E+02  0.85531945598E+02  0.16982551756E+03  0.12509204989E+03 0.  0.
         24    2    1    2    0    0  0.64220876530E+02  0.88391795865E+01  0.34511213528E+03  0.36002794569E+03  0.79468759155E+02 0.  0.
        -13    1    5    5    0    0  0.45643574403E+02 -0.11463399563E+02  0.31776627323E+03  0.32123223657E+03  0.00000000000E+00 0.  1.
         14    1    5    5    0    0  0.18577302126E+02  0.20302579149E+02  0.27345862058E+02  0.38795709120E+02  0.00000000000E+00 0. -1.
         13    1    3    3    0    0  0.36182840523E+00 -0.15576078548E+02 -0.17886655280E+03  0.17954383546E+03  0.00000000000E+00 0. -1.
        -14    1    3    3    0    0 -0.84122633224E+02  0.80866265293E+02 -0.10135131749E+04  0.10202082758E+04  0.00000000000E+00 0.  1.
          5    1    4    4  501    0  0.32662349822E+02 -0.36710198151E+01  0.91959902697E+02  0.97746619309E+02  0.41800000000E+01 0.  1.
         -5    1    4    4    0  501 -0.13122421532E+02 -0.70458346516E+02 -0.64279570989E+01  0.72078898251E+02  0.41800000000E+01 0.  1.
</event>
<event>
11    1  0.1003949E-008  0.1339512E+03  0.7561462E-02  0.1114507E+00
         22   -1    0    0    0    0  0.00000000000E+00  0.00000000000E+00  0.36536016068E+03  0.36536016068E+03  0.00000000000E+00 0.  1.
         22   -1    0    0    0    0 -0.00000000000E+00 -0.00000000000E+00 -0.80868057853E+03  0.80868057853E+03  0.00000000000E+00 0.  1.
        -24    2    1    2    0    0  0.39189476547E+01  0.46140848089E+02 -0.70580561902E+03  0.71200198833E+03  0.81491861766E+02 0.  0.
         25    2    1    2    0    0 -0.21099600216E+02 -0.76050228790E+02 -0.37468812760E+02  0.15257903820E+03  0.12509044944E+03 0.  0.
         24    2    1    2    0    0  0.17180652561E+02  0.29909380701E+02  0.29995401393E+03  0.30945971268E+03  0.67846572667E+02 0.  0.
        -13    1    5    5    0    0  0.40804416605E+02  0.12906870152E+02  0.22537136551E+03  0.22939886684E+03  0.00000000000E+00 0.  1.
         14    1    5    5    0    0 -0.23623764044E+02  0.17002510548E+02  0.74582648414E+02  0.80060845842E+02  0.00000000000E+00 0. -1.
         13    1    3    3    0    0 -0.10758309533E+01 -0.23335709903E+02 -0.21803961370E+03  0.21928745042E+03  0.00000000000E+00 0. -1.
        -14    1    3    3    0    0  0.49947786080E+01  0.69476557992E+02 -0.48776600532E+03  0.49271453791E+03  0.00000000000E+00 0.  1.
          5    1    4    4  501    0  0.48209882506E+02 -0.28122866703E+02 -0.38962781552E+02  0.68195741429E+02  0.41800000000E+01 0. -1.
         -5    1    4    4    0  501 -0.69309482722E+02 -0.47927362087E+02  0.14939687914E+01  0.84383296774E+02  0.41800000000E+01 0. -1.
</event>
<event>
11    1  0.1003949E-008  0.1289141E+03  0.7561462E-02  0.1120610E+00
         22   -1    0    0    0    0  0.00000000000E+00  0.00000000000E+00  0.13549173793E+03  0.13549173793E+03  0.00000000000E+00 0.  1.
         22   -1    0    0    0    0 -0.00000000000E+00 -0.00000000000E+00 -0.57000456933E+03  0.57000456933E+03  0.00000000000E+00 0. -1.
        -24    2    1    2    0    0 -0.14826830398E+02  0.29140912374E+02 -0.43836042287E+03  0.44805703963E+03  0.86753805430E+02 0.  0.
         25    2    1    2    0    0  0.17995825579E+02 -0.12453618209E+02 -0.72201806685E+02  0.14608186548E+03  0.12509143931E+03 0.  0.
         24    2    1    2    0    0 -0.31689951814E+01 -0.16687294165E+02  0.76049398143E+02  0.11135740215E+03  0.79551566543E+02 0.  0.
        -11    1    5    5    0    0  0.37659666994E+02 -0.14768440942E+02  0.36622445619E+02  0.54567031155E+02  0.00000000000E+00 0.  1.
         12    1    5    5    0    0 -0.40828662176E+02 -0.19188532225E+01  0.39426952525E+02  0.56790370998E+02  0.00000000000E+00 0. -1.
         11    1    3    3    0    0 -0.30696279541E+02 -0.19577667123E+02 -0.11394483376E+03  0.11962011439E+03  0.00000000000E+00 0. -1.
        -12    1    3    3    0    0  0.15869449143E+02  0.48718579497E+02 -0.32441558911E+03  0.32843692524E+03  0.00000000000E+00 0.  1.
          5    1    4    4  501    0 -0.51016297066E+02  0.13615663976E+02 -0.26849718704E+02  0.59383740757E+02  0.41800000000E+01 0. -1.
         -5    1    4    4    0  501  0.69012122645E+02 -0.26069282185E+02 -0.45352087982E+02  0.86698124719E+02  0.41800000000E+01 0. -1.
</event>
<event>
11    1  0.1003949E-008  0.1275581E+03  0.7561462E-02  0.1122306E+00
         22   -1    0    0    0    0  0.00000000000E+00  0.00000000000E+00  0.11661811029E+04  0.11661811029E+04  0.00000000000E+00 0. -1.
         22   -1    0    0    0    0 -0.00000000000E+00 -0.00000000000E+00 -0.77323594232E+02  0.77323594232E+02  0.00000000000E+00 0. -1.
        -24    2    1    2    0    0 -0.79999449559E+01  0.31306997927E+02 -0.34794023585E+02  0.92504412904E+02  0.79387121695E+02 0.  0.
         25    2    1    2    0    0 -0.10354093970E+02 -0.71329554459E+01  0.34349816261E+03  0.36578366997E+03  0.12509444108E+03 0.  0.
         24    2    1    2    0    0  0.18354038926E+02 -0.24174042481E+02  0.78015336963E+03  0.78521661424E+03  0.83693464838E+02 0.  0.
        -11    1    5    5    0    0  0.70943684888E+01 -0.51906077158E+02  0.33638904783E+03  0.34044406649E+03  0.00000000000E+00 0.  1.
         12    1    5    5    0    0  0.11259670438E+02  0.27732034677E+02  0.44376432180E+03  0.44477254775E+03  0.00000000000E+00 0. -1.
         13    1    3    3    0    0 -0.42932169465E+02  0.24509078520E+02 -0.25958534311E+02  0.55836472027E+02  0.00000000000E+00 0. -1.
        -14    1    3    3    0    0  0.34932224509E+02  0.67979194069E+01 -0.88354892740E+01  0.36667940877E+02  0.00000000000E+00 0.  1.
          5    1    4    4  501    0 -0.19264281237E+02  0.27342774520E+02  0.32245369251E+03  0.32421072787E+03  0.41800000000E+01 0.  1.
         -5    1    4    4    0  501  0.89101872663E+01 -0.34475729966E+02  0.21044470095E+02  0.41572942107E+02  0.41800000000E+01 0.  1.
</event>
<event>
11    1  0.1003949E-008  0.1392660E+03  0.7561462E-02  0.1108381E+00
         22   -1    0    0    0    0  0.00000000000E+00  0.00000000000E+00  0.52396436843E+03  0.52396436843E+03  0.00000000000E+00 0. -1.
         22   -1    0    0    0    0 -0.00000000000E+00 -0.00000000000E+00 -0.15341210350E+04  0.15341210350E+04  0.00000000000E+00 0. -1.
        -24    2    1    2    0    0  0.35040905402E+02 -0.24444370334E+02 -0.10926997654E+04  0.10965341003E+04  0.81048525319E+02 0.  0.
         25    2    1    2    0    0  0.11641520592E+02 -0.15897730707E+02 -0.42525769602E+03  0.44371197409E+03  0.12509174668E+03 0.  0.
         24    2    1    2    0    0 -0.46682425994E+02  0.40342101041E+02  0.50780079486E+03  0.51783932906E+03  0.80555505344E+02 0.  0.
        -13    1    5    5    0    0  0.96402927710E+01 -0.17841307388E+02  0.88962057457E+02  0.91244151379E+02  0.00000000000E+00 0.  1.
         14    1    5    5    0    0 -0.56322718765E+02  0.58183408429E+02  0.41883873741E+03  0.42659517768E+03  0.00000000000E+00 0. -1.
         11    1    3    3    0    0  0.38061741782E+02 -0.31406236387E+02 -0.10834338407E+04  0.10845570225E+04  0.00000000000E+00 0. -1.
        -12    1    3    3    0    0 -0.30208363800E+01  0.69618660524E+01 -0.92659246852E+01  0.11977077759E+02  0.00000000000E+00 0.  1.
          5    1    4    4  501    0  0.27816344540E+02 -0.22640266860E+02 -0.42412671482E+03  0.42566098404E+03  0.41800000000E+01 0. -1.
         -5    1    4    4    0  501 -0.16174823948E+02  0.67425361538E+01 -0.11309811967E+01  0.18050990056E+02  0.41800000000E+01 0. -1.
</event>
<event>
11    1  0.1003949E-008  0.1591993E+03  0.7561462E-02  0.1087833E+00
         22   -1    0    0    0    0  0.00000000000E+00  0.00000000000E+00  0.15572630209E+04  0.15572630209E+04  0.00000000000E+00 0.  1.
         22   -1    0    0    0    0 -0.00000000000E+00 -0.00000000000E+00 -0.25767575449E+04  0.25767575449E+04  0.00000000000E+00 0.  1.
         24    2    1    2    0    0 -0.69400723513E+02 -0.72844918949E+02 -0.23321590918E+04  0.23357622006E+04  0.81830223250E+02 0.  0.
         25    2    1    2    0    0  0.29771689548E+02  0.70622587708E+02 -0.21854732512E+03  0.26321919447E+03  0.12508999811E+03 0.  0.
        -24    2    1    2    0    0  0.39629033965E+02  0.22223312418E+01  0.15312118929E+04  0.15350391708E+04  0.10079680476E+03 0.  0.
        -11    1    3    3    0    0 -0.63969118025E+02 -0.42122875483E+02 -0.21136306549E+04  0.21150179503E+04  0.00000000000E+00 0.  1.
         12    1    3    3    0    0 -0.54316054880E+01 -0.30722043466E+02 -0.21852843689E+03  0.22074425026E+03  0.00000000000E+00 0. -1.
         11    1    5    5    0    0 -0.31810439957E+02  0.15862377409E+02  0.52571214335E+03  0.52691249442E+03  0.00000000000E+00 0. -1.
        -12    1    5    5    0    0  0.71439473923E+02 -0.13640046167E+02  0.10054997495E+04  0.10081266764E+04  0.00000000000E+00 0.  1.
          5    1    4    4  501    0  0.66001918022E+02  0.75851111057E+02 -0.11243783140E+03  0.15089527018E+03  0.41800000000E+01 0.  1.
         -5    1    4    4    0  501 -0.36230228475E+02 -0.52285233494E+01 -0.10610949372E+03  0.11232392430E+03  0.41800000000E+01 0.  1.
</event>
<event>
11    1  0.1003949E-008  0.2012671E+03  0.7561462E-02  0.1053631E+00
         22   -1    0    0    0    0  0.00000000000E+00  0.00000000000E+00  0.12273080104E+04  0.12273080104E+04  0.00000000000E+00 0. -1.
         22   -1    0    0    0    0 -0.00000000000E+00 -0.00000000000E+00 -0.83556443793E+03  0.83556443793E+03  0.00000000000E+00 0. -1.
        -24    2    1    2    0    0  0.11409690668E+03  0.79148377503E+02 -0.66968337088E+03  0.68864478852E+03  0.80456558200E+02 0.  0.
         25    2    1    2    0    0 -0.24183632824E+03 -0.16050122750E+03  0.17801859523E+02  0.31655863729E+03  0.12508801282E+03 0.  0.
         24    2    1    2    0    0  0.12773942156E+03  0.81352849999E+02  0.10436250838E+04  0.10576690225E+04  0.81085137974E+02 0.  0.
        -13    1    5    5    0    0  0.52293337141E+01 -0.60685249346E+01  0.23626583284E+03  0.23640160045E+03  0.00000000000E+00 0.  1.
         14    1    5    5    0    0  0.12251008784E+03  0.87421374934E+02  0.80735925096E+03  0.82126742206E+03  0.00000000000E+00 0. -1.
         11    1    3    3    0    0  0.12053344178E+03  0.62371280903E+02 -0.50270197764E+03  0.52069930439E+03  0.00000000000E+00 0. -1.
        -12    1    3    3    0    0 -0.64365350935E+01  0.16777096600E+02 -0.16698139323E+03  0.16794548413E+03  0.00000000000E+00 0.  1.
          5    1    4    4  501    0 -0.23633782093E+03 -0.15927510020E+03 -0.12649555780E+02  0.28530966827E+03  0.41800000000E+01 0. -1.
         -5    1    4    4    0  501 -0.54985073163E+01 -0.12261272976E+01  0.30451415303E+02  0.31248969020E+02  0.41800000000E+01 0. -1.
</event>
<event>
11    1  0.1003949E-008  0.1582525E+03  0.7561462E-02  0.1088732E+00
         22   -1    0    0    0    0  0.00000000000E+00  0.00000000000E+00  0.89936407830E+03  0.89936407830E+03  0.00000000000E+00 0. -1.
         22   -1    0    0    0    0 -0.00000000000E+00 -0.00000000000E+00 -0.27301513787E+03  0.27301513787E+03  0.00000000000E+00 0. -1.
         24    2    1    2    0    0 -0.95808359919E+02 -0.15852011671E+02 -0.22834575596E+03  0.26091295166E+03  0.80642767650E+02 0.  0.
         25    2    1    2    0    0  0.99846079368E+02 -0.30386657785E+02  0.25072026137E+03  0.29899588957E+03  0.12508118956E+03 0.  0.
        -24    2    1    2    0    0 -0.40377194491E+01  0.46238669457E+02  0.60397443502E+03  0.61247037494E+03  0.90446250782E+02 0.  0.
        -11    1    3    3    0    0 -0.37753627295E+02  0.11435379650E+02 -0.16893531168E+03  0.17347980809E+03  0.00000000000E+00 0.  1.
         12    1    3    3    0    0 -0.58054732623E+02 -0.27287391321E+02 -0.59410444276E+02  0.87433143568E+02  0.00000000000E+00 0. -1.
         11    1    5    5    0    0  0.18971216363E+02  0.57628745630E+02  0.54204789314E+03  0.54543276197E+03  0.00000000000E+00 0. -1.
        -12    1    5    5    0    0 -0.23008935812E+02 -0.11390076173E+02  0.61926541883E+02  0.67037612965E+02  0.00000000000E+00 0.  1.
          5    1    4    4  501    0  0.77352306884E+02 -0.68806086407E+02  0.10899126914E+03  0.15038027150E+03  0.41800000000E+01 0.  1.
         -5    1    4    4    0  501  0.22493772484E+02  0.38419428622E+02  0.14172899223E+03  0.14861561807E+03  0.41800000000E+01 0.  1.
</event>
<event>
11    1  0.1003949E-008  0.1404174E+03  0.7561462E-02  0.1107093E+00
         22   -1    0    0    0    0  0.00000000000E+00  0.00000000000E+00  0.19897808993E+03  0.19897808993E+03  0.00000000000E+00 0.  1.
         22   -1    0    0    0    0 -0.00000000000E+00 -0.00000000000E+00 -0.15769083782E+04  0.15769083782E+04  0.00000000000E+00 0. -1.
        -24    2    1    2    0    0 -0.21609144123E+01 -0.63989893281E+02 -0.14539171938E+04  0.14575661202E+04  0.80773833976E+02 0.  0.
         25    2    1    2    0    0 -0.16997403006E+02  0.58550475462E+02 -0.66797366424E+02  0.15436042495E+03  0.12509269660E+03 0.  0.
         24    2    1    2    0    0  0.19158317419E+02  0.54394178193E+01  0.14278427199E+03  0.16395992298E+03  0.78095323939E+02 0.  0.
        -11    1    5    5    0    0 -0.33760491493E+01  0.29437499007E+02  0.12078440001E+03  0.12436573218E+03  0.00000000000E+00 0.  1.
         12    1    5    5    0    0  0.22534366568E+02 -0.23998081187E+02  0.21999871983E+02  0.39594190793E+02  0.00000000000E+00 0. -1.
         11    1    3    3    0    0  0.16452185235E+02 -0.25837591615E+02 -0.11783799932E+04  0.11787780384E+04  0.00000000000E+00 0. -1.
        -12    1    3    3    0    0 -0.18613099647E+02 -0.38152301666E+02 -0.27553720066E+03  0.27878808179E+03  0.00000000000E+00 0.  1.
          5    1    4    4  501    0 -0.39519141574E+02  0.70511068976E+02 -0.88993789164E+02  0.12029522147E+03  0.41800000000E+01 0.  1.
         -5    1    4    4    0  501  0.22521738568E+02 -0.11960593514E+02  0.22196422740E+02  0.34065203475E+02  0.41800000000E+01 0.  1.
</event>
<event>
11    1  0.1003949E-008  0.2469553E+03  0.7561462E-02  0.1025534E+00
         22   -1    0    0    0    0  0.00000000000E+00  0.00000000000E+00  0.11427943242E+03  0.11427943242E+03  0.00000000000E+00 0. -1.
         22   -1    0    0    0    0 -0.00000000000E+00 -0.00000000000E+00 -0.11182798974E+04  0.11182798974E+04  0.00000000000E+00 0. -1.
         24    2    1    2    0    0 -0.20588537709E+03  0.18748240733E+03 -0.49641178739E+03  0.57483290767E+03  0.80434865073E+02 0.  0.
         25    2    1    2    0    0  0.70465373014E+01 -0.10158987256E+03 -0.32430388899E+03  0.36220256467E+03  0.12509008573E+03 0.  0.
        -24    2    1    2    0    0  0.19883883979E+03 -0.85892534778E+02 -0.18328478859E+03  0.29552385746E+03  0.82623391741E+02 0.  0.
        -11    1    3    3    0    0  0.42087999598E+01  0.21970107843E+02 -0.36832289593E+02  0.43093122333E+02  0.00000000000E+00 0.  1.
         12    1    3    3    0    0 -0.21009417705E+03  0.16551229949E+03 -0.45957949779E+03  0.53173978533E+03  0.00000000000E+00 0. -1.
         11    1    5    5    0    0  0.18680241858E+03 -0.63126294530E+02 -0.18409192772E+03  0.26975898595E+03  0.00000000000E+00 0. -1.
        -12    1    5    5    0    0  0.12036421206E+02 -0.22766240248E+02  0.80713913117E+00  0.25764871513E+02  0.00000000000E+00 0.  1.
          5    1    4    4  501    0 -0.21095867502E+02 -0.12317191249E+03 -0.23915248460E+03  0.26986615005E+03  0.41800000000E+01 0. -1.
         -5    1    4    4    0  501  0.28142404804E+02  0.21582039933E+02 -0.85151404389E+02  0.92336414621E+02  0.41800000000E+01 0. -1.
</event>
<event>
11    1  0.1003949E-008  0.1260856E+03  0.7561462E-02  0.1124174E+00
         22   -1    0    0    0    0  0.00000000000E+00  0.00000000000E+00  0.10103853465E+03  0.10103853465E+03  0.00000000000E+00 0.  1.
         22   -1    0    0    0    0 -0.00000000000E+00 -0.00000000000E+00 -0.69649538860E+03  0.69649538860E+03  0.00000000000E+00 0. -1.
        -24    2    1    2    0    0  0.18953422928E+02 -0.39580532418E+01 -0.47802752987E+03  0.48512543521E+03  0.80383270324E+02 0.  0.
         25    2    1    2    0    0 -0.24621043706E+01  0.97976814242E+01 -0.17206735037E+03  0.21297183731E+03  0.12509106246E+03 0.  0.
         24    2    1    2    0    0 -0.16491318558E+02 -0.58396281824E+01  0.54638026296E+02  0.99436650721E+02  0.81217416506E+02 0.  0.
        -13    1    5    5    0    0 -0.22278586376E+02 -0.23799939447E+02  0.68607374068E+02  0.75958832963E+02  0.00000000000E+00 0.  1.
         14    1    5    5    0    0  0.57872678187E+01  0.17960311265E+02 -0.13969347771E+02  0.23477817758E+02  0.00000000000E+00 0. -1.
         13    1    3    3    0    0  0.38744991856E+02  0.88166798556E+01 -0.42787684510E+03  0.42971793401E+03  0.00000000000E+00 0. -1.
        -14    1    3    3    0    0 -0.19791568928E+02 -0.12774733097E+02 -0.50150684776E+02  0.55407501206E+02  0.00000000000E+00 0.  1.
          5    1    4    4  501    0  0.22982033540E+02  0.48070666202E+02 -0.15468547148E+03  0.16365827294E+03  0.41800000000E+01 0.  1.
         -5    1    4    4    0  501 -0.25444137910E+02 -0.38272984778E+02 -0.17381878891E+02  0.49313564377E+02  0.41800000000E+01 0.  1.
</event>
<event>
11    1  0.1003949E-008  0.1316527E+03  0.7561462E-02  0.1117255E+00
         22   -1    0    0    0    0  0.00000000000E+00  0.00000000000E+00  0.65382410336E+03  0.65382410336E+03  0.00000000000E+00 0.  1.
         22   -1    0    0    0    0 -0.00000000000E+00 -0.00000000000E+00 -0.27955928362E+03  0.27955928362E+03  0.00000000000E+00 0. -1.
         24    2    1    2    0    0  0.56512219645E+00  0.22766288435E+02 -0.15039422883E+03  0.17156034390E+03  0.79346734536E+02 0.  0.
         25    2    1    2    0    0 -0.61367567940E+01 -0.62775939784E+02 -0.72695700500E+02  0.15783610331E+03  0.12509633183E+03 0.  0.
        -24    2    1    2    0    0  0.55716345976E+01  0.40009651349E+02  0.59735474907E+03  0.60398693978E+03  0.79597185068E+02 0.  0.
        -13    1    3    3    0    0 -0.23354315095E+02 -0.14071380521E+02 -0.19576049589E+02  0.33565599963E+02  0.00000000000E+00 0.  1.
         14    1    3    3    0    0  0.23919437292E+02  0.36837668956E+02 -0.13081817924E+03  0.13799474393E+03  0.00000000000E+00 0. -1.
         13    1    5    5    0    0  0.14403640136E+02 -0.21976047780E+02  0.15239166795E+03  0.15464033105E+03  0.00000000000E+00 0. -1.
        -14    1    5    5    0    0 -0.88320055381E+01  0.61985699129E+02  0.44496308112E+03  0.44934660873E+03  0.00000000000E+00 0.  1.
          5    1    4    4  501    0  0.39687124145E+02 -0.21272104159E+02  0.17428250842E+02  0.48464281339E+02  0.41800000000E+01 0.  1.
         -5    1    4    4    0  501 -0.45823880939E+02 -0.41503835624E+02 -0.90123951342E+02  0.10937182197E+03  0.41800000000E+01 0.  1.
</event>
<event>
11    1  0.1003949E-008  0.2900140E+04  0.7561462E-02  0.7773597E-01
         22   -1    0    0    0    0  0.00000000000E+00  0.00000000000E+00  0.64277654490E+03  0.64277654490E+03  0.00000000000E+00 0. -1.
         22   -1    0    0    0    0 -0.00000000000E+00 -0.00000000000E+00 -0.32712807064E+04  0.32712807064E+04  0.00000000000E+00 0. -1.
         24    2    1    2    0    0  0.53318950692E+03  0.56684839030E+03 -0.21611166634E+04  0.22984130757E+04  0.81665695886E+02 0.  0.
         25    2    1    2    0    0 -0.72982602344E+03 -0.84027773541E+03 -0.12235792527E+03  0.11266456217E+04  0.12508476272E+03 0.  0.
        -24    2    1    2    0    0  0.19663651651E+03  0.27342934511E+03 -0.34502957284E+03  0.48899855393E+03  0.81514742317E+02 0.  0.
        -11    1    3    3    0    0  0.50000646727E+02  0.53663260533E+02 -0.28404957526E+03  0.29336661604E+03  0.00000000000E+00 0.  1.
         12    1    3    3    0    0  0.48318886020E+03  0.51318512977E+03 -0.18770670881E+04  0.20050464596E+04  0.00000000000E+00 0. -1.
         11    1    5    5    0    0 -0.39720249978E+01  0.80848600518E+01 -0.28246045109E+02  0.29647613883E+02  0.00000000000E+00 0. -1.
        -12    1    5    5    0    0  0.20060854151E+03  0.26534448506E+03 -0.31678352773E+03  0.45935094004E+03  0.00000000000E+00 0.  1.
          5    1    4    4  501    0 -0.10683492687E+02 -0.32825134164E+02 -0.21013044836E+02  0.40628154058E+02  0.41800000000E+01 0. -1.
         -5    1    4    4    0  501 -0.71914253075E+03 -0.80745260125E+03 -0.10134488044E+03  0.10860174676E+04  0.41800000000E+01 0. -1.
</event>
<event>
11    1  0.1003949E-008  0.2382122E+03  0.7561462E-02  0.1030373E+00
         22   -1    0    0    0    0  0.00000000000E+00  0.00000000000E+00  0.66528357624E+03  0.66528357624E+03  0.00000000000E+00 0.  1.
         22   -1    0    0    0    0 -0.00000000000E+00 -0.00000000000E+00 -0.33655892159E+03  0.33655892159E+03  0.00000000000E+00 0. -1.
        -24    2    1    2    0    0 -0.11537224127E+02 -0.14253081868E+03 -0.92503124893E+02  0.18880282664E+03  0.81495628231E+02 0.  0.
         25    2    1    2    0    0 -0.19139408278E+03  0.10401824910E+03 -0.81391273717E+02  0.26405254354E+03  0.12509082798E+03 0.  0.
         24    2    1    2    0    0  0.20293130691E+03  0.38512569571E+02  0.50261905326E+03  0.54898712765E+03  0.78080857344E+02 0.  0.
        -13    1    5    5    0    0  0.18453901477E+03  0.17938156002E+02  0.47517874889E+03  0.51006986660E+03  0.00000000000E+00 0.  1.
         14    1    5    5    0    0  0.18392292132E+02  0.20574413568E+02  0.27440304369E+02  0.38917261047E+02  0.00000000000E+00 0. -1.
         11    1    3    3    0    0 -0.30103885017E+02 -0.97921441464E+02 -0.24417582201E+02  0.10531415343E+03  0.00000000000E+00 0. -1.
        -12    1    3    3    0    0  0.18566660889E+02 -0.44609377211E+02 -0.68085542692E+02  0.83488673216E+02  0.00000000000E+00 0.  1.
          5    1    4    4  501    0 -0.19095389724E+02  0.35139165935E+02 -0.66681469347E+02  0.77867102460E+02  0.41800000000E+01 0.  1.
         -5    1    4    4    0  501 -0.17229869306E+03  0.68879083170E+02 -0.14709804371E+02  0.18618544108E+03  0.41800000000E+01 0.  1.
</event>
<event>
11    1  0.1003949E-008  0.1393229E+03  0.7561462E-02  0.1108317E+00
         22   -1    0    0    0    0  0.00000000000E+00  0.00000000000E+00  0.13240236601E+04  0.13240236601E+04  0.00000000000E+00 0. -1.
         22   -1    0    0    0    0 -0.00000000000E+00 -0.00000000000E+00 -0.18604763393E+04  0.18604763393E+04  0.00000000000E+00 0. -1.
        -24    2    1    2    0    0  0.73956326313E+01  0.20332397653E+02 -0.18286266385E+04  0.18304948743E+04  0.79799749139E+02 0.  0.
         25    2    1    2    0    0 -0.58982961936E+02 -0.51244311208E+02  0.16061553595E+03  0.21806138850E+03  0.12509376299E+03 0.  0.
         24    2    1    2    0    0  0.51587329305E+02  0.30911913554E+02  0.11315584234E+04  0.11359437365E+04  0.79541863654E+02 0.  0.
        -13    1    5    5    0    0  0.62090557125E+02  0.17672033872E+02  0.49886949990E+03  0.50302914030E+03  0.00000000000E+00 0.  1.
         14    1    5    5    0    0 -0.10503227820E+02  0.13239879682E+02  0.63268892351E+03  0.63291459624E+03  0.00000000000E+00 0. -1.
         11    1    3    3    0    0  0.99747027561E+01  0.32372027063E+02 -0.17803690270E+04  0.17806912464E+04  0.00000000000E+00 0. -1.
        -12    1    3    3    0    0 -0.25790701248E+01 -0.12039629409E+02 -0.48257611529E+02  0.49803627875E+02  0.00000000000E+00 0.  1.
          5    1    4    4  501    0 -0.58793458791E+02  0.27752480786E+02  0.50268046723E+02  0.82287422536E+02  0.41800000000E+01 0.  1.
         -5    1    4    4    0  501 -0.18950314581E+00 -0.78996791994E+02  0.11034748922E+03  0.13577396597E+03  0.41800000000E+01 0.  1.
</event>
<event>
11    1  0.1003949E-008  0.3351605E+03  0.7561462E-02  0.9863189E-01
         22   -1    0    0    0    0  0.00000000000E+00  0.00000000000E+00  0.46985827395E+03  0.46985827395E+03  0.00000000000E+00 0. -1.
         22   -1    0    0    0    0 -0.00000000000E+00 -0.00000000000E+00 -0.10564866996E+04  0.10564866996E+04  0.00000000000E+00 0. -1.
        -24    2    1    2    0    0 -0.26659677617E+03  0.93270186070E+02 -0.62657741946E+03  0.69211827665E+03  0.81579884943E+02 0.  0.
         25    2    1    2    0    0  0.38728294037E+03 -0.25500344249E+03 -0.18901935754E+03  0.51613080348E+03  0.12509139534E+03 0.  0.
         24    2    1    2    0    0 -0.12068616421E+03  0.16173325642E+03  0.22896835137E+03  0.31809589341E+03  0.89642038185E+02 0.  0.
        -11    1    5    5    0    0 -0.43344233315E+02  0.50084619568E+02  0.20591371653E+02  0.69362787325E+02  0.00000000000E+00 0.  1.
         12    1    5    5    0    0 -0.77341930892E+02  0.11164863685E+03  0.20837697972E+03  0.24873310608E+03  0.00000000000E+00 0. -1.
         13    1    3    3    0    0 -0.14718314927E+03  0.93267576056E+02 -0.35561570833E+03  0.39601041929E+03  0.00000000000E+00 0. -1.
        -14    1    3    3    0    0 -0.11941362690E+03  0.26100137331E-02 -0.27096171112E+03  0.29610785736E+03  0.00000000000E+00 0.  1.
          5    1    4    4  501    0  0.12428541797E+03 -0.81596625669E+02 -0.11491023297E-01  0.14873582949E+03  0.41800000000E+01 0. -1.
         -5    1    4    4    0  501  0.26299752240E+03 -0.17340681682E+03 -0.18900786651E+03  0.36739497399E+03  0.41800000000E+01 0. -1.
</event>
<event>
11    1  0.1003949E-008  0.1329076E+03  0.7561462E-02  0.1115747E+00
         22   -1    0    0    0    0  0.00000000000E+00  0.00000000000E+00  0.16228566194E+04  0.16228566194E+04  0.00000000000E+00 0.  1.
         22   -1    0    0    0    0 -0.00000000000E+00 -0.00000000000E+00 -0.85275687597E+03  0.85275687597E+03  0.00000000000E+00 0. -1.
        -24    2    1    2    0    0  0.43966622370E+02  0.97210244342E+01 -0.83930494982E+03  0.84451095736E+03  0.82087734252E+02 0.  0.
         25    2    1    2    0    0 -0.18793169968E+02 -0.27138276416E+02  0.44353947535E+03  0.46202218334E+03  0.12509021715E+03 0.  0.
         24    2    1    2    0    0 -0.25173452402E+02  0.17417251981E+02  0.11658652179E+04  0.11690803547E+04  0.81056190290E+02 0.  0.
        -13    1    5    5    0    0  0.32180353633E+01  0.31792069956E+02  0.97924902302E+03  0.97977024886E+03  0.00000000000E+00 0.  1.
         14    1    5    5    0    0 -0.28391487765E+02 -0.14374817975E+02  0.18661619493E+03  0.18931010586E+03  0.00000000000E+00 0. -1.
         11    1    3    3    0    0  0.29133074810E+02  0.45941873085E+02 -0.50582212943E+03  0.50873904742E+03  0.00000000000E+00 0. -1.
        -12    1    3    3    0    0  0.14833547560E+02 -0.36220848650E+02 -0.33348282039E+03  0.33577190994E+03  0.00000000000E+00 0.  1.
          5    1    4    4  501    0 -0.55369611281E+02 -0.16791732764E+02  0.94435558679E+02  0.11083006490E+03  0.41800000000E+01 0. -1.
         -5    1    4    4    0  501  0.36576441313E+02 -0.10346543652E+02  0.34910391667E+03  0.35119211844E+03  0.41800000000E+01 0. -1.
</event>
<event>
11    1  0.1003949E-008  0.1462120E+03  0.7561462E-02  0.1100813E+00
         22   -1    0    0    0    0  0.00000000000E+00  0.00000000000E+00  0.14319903027E+04  0.14319903027E+04  0.00000000000E+00 0. -1.
         22   -1    0    0    0    0 -0.00000000000E+00 -0.00000000000E+00 -0.57962076134E+03  0.57962076134E+03  0.00000000000E+00 0.  1.
         24    2    1    2    0    0 -0.14015641357E+02 -0.75571595668E+02 -0.53302959067E+03  0.54451205746E+03  0.80407287715E+02 0.  0.
         25    2    1    2    0    0  0.33910479730E+02  0.45924546558E+02  0.80680351410E+02  0.15942132803E+03  0.12508739391E+03 0.  0.
        -24    2    1    2    0    0 -0.19894838373E+02  0.29647049110E+02  0.13047187806E+04  0.13076776786E+04  0.80343402766E+02 0.  0.
        -11    1    3    3    0    0  0.11013180679E+02 -0.82056863493E+02 -0.44989739811E+03  0.45745195138E+03  0.00000000000E+00 0.  1.
         12    1    3    3    0    0 -0.25028822036E+02  0.64852678256E+01 -0.83132192560E+02  0.87060106082E+02  0.00000000000E+00 0. -1.
         13    1    5    5    0    0 -0.24276719233E+02 -0.16575188482E+02  0.86803268737E+03  0.86853027714E+03  0.00000000000E+00 0. -1.
        -14    1    5    5    0    0  0.43818808596E+01  0.46222237591E+02  0.43668609327E+03  0.43914740143E+03  0.00000000000E+00 0.  1.
          5    1    4    4  501    0  0.20540857377E+02  0.32605434644E+02  0.11427097478E+03  0.12066635516E+03  0.41800000000E+01 0. -1.
         -5    1    4    4    0  501  0.13369622354E+02  0.13319111914E+02 -0.33590623368E+02  0.38754972872E+02  0.41800000000E+01 0. -1.
</event>
<event>
11    1  0.1003949E-008  0.1723617E+03  0.7561462E-02  0.1075994E+00
         22   -1    0    0    0    0  0.00000000000E+00  0.00000000000E+00  0.30146109211E+03  0.30146109211E+03  0.00000000000E+00 0.  1.
         22   -1    0    0    0    0 -0.00000000000E+00 -0.00000000000E+00 -0.14925414966E+04  0.14925414966E+04  0.00000000000E+00 0.  1.
         24    2    1    2    0    0  0.41901001858E+02 -0.24234325056E+02 -0.13222423576E+04  0.13255645188E+04  0.80333336842E+02 0.  0.
         25    2    1    2    0    0 -0.10116974490E+03  0.12065204078E+03 -0.78797466085E+02  0.21598353580E+03  0.12509042669E+03 0.  0.
        -24    2    1    2    0    0  0.59268743041E+02 -0.96417715723E+02  0.20995941915E+03  0.25245453407E+03  0.82711391467E+02 0.  0.
        -13    1    3    3    0    0  0.26432967174E+02 -0.51588930083E+02 -0.10318136452E+04  0.10334406214E+04  0.00000000000E+00 0.  1.
         14    1    3    3    0    0  0.15468034684E+02  0.27354605027E+02 -0.29042871233E+03  0.29212389745E+03  0.00000000000E+00 0. -1.
         11    1    5    5    0    0 -0.14148283950E+02 -0.47510754373E+02  0.98851988730E+02  0.11058553882E+03  0.00000000000E+00 0. -1.
        -12    1    5    5    0    0  0.73417026991E+02 -0.48906961351E+02  0.11110743042E+03  0.14186899525E+03  0.00000000000E+00 0.  1.
          5    1    4    4  501    0 -0.91621291049E+02  0.13669635186E+03 -0.35147665729E+02  0.16832463989E+03  0.41800000000E+01 0. -1.
         -5    1    4    4    0  501 -0.95484538510E+01 -0.16044311085E+02 -0.43649800355E+02  0.47658895919E+02  0.41800000000E+01 0. -1.
</event>
<event>
11    1  0.1003949E-008  0.1376946E+03  0.7561462E-02  0.1110160E+00
         22   -1    0    0    0    0  0.00000000000E+00  0.00000000000E+00  0.39474727134E+03  0.39474727134E+03  0.00000000000E+00 0.  1.
         22   -1    0    0    0    0 -0.00000000000E+00 -0.00000000000E+00 -0.42228771786E+03  0.42228771786E+03  0.00000000000E+00 0.  1.
         24    2    1    2    0    0 -0.29308441034E+02 -0.34489573519E+02 -0.26023462626E+03  0.27513710462E+03  0.77005520829E+02 0.  0.
         25    2    1    2    0    0  0.63762833007E+02 -0.12146350587E+02 -0.11397811984E+03  0.18125111856E+03  0.12509086087E+03 0.  0.
        -24    2    1    2    0    0 -0.34454391973E+02  0.46635924106E+02  0.34667229958E+03  0.36064676602E+03  0.80761327364E+02 0.  0.
        -13    1    3    3    0    0 -0.26871967106E+02 -0.20280652237E+02 -0.25842382125E+03  0.26060751881E+03  0.00000000000E+00 0.  1.
         14    1    3    3    0    0 -0.24364739282E+01 -0.14208921282E+02 -0.18108050150E+01  0.14529585817E+02  0.00000000000E+00 0. -1.
         13    1    5    5    0    0  0.12937917154E+02 -0.95359257449E+01  0.19250039688E+02  0.25077631628E+02  0.00000000000E+00 0. -1.
        -14    1    5    5    0    0 -0.47392309128E+02  0.56171849851E+02  0.32742225990E+03  0.33556913439E+03  0.00000000000E+00 0.  1.
          5    1    4    4  501    0  0.33200725019E+02  0.33952687927E+02 -0.11634555535E+03  0.12573318500E+03  0.41800000000E+01 0.  1.
         -5    1    4    4    0  501  0.30562107989E+02 -0.46099038514E+02  0.23674355123E+01  0.55517933567E+02  0.41800000000E+01 0.  1.
</event>
<event>
11    1  0.1003949E-008  0.1576615E+03  0.7561462E-02  0.1089298E+00
         22   -1    0    0    0    0  0.00000000000E+00  0.00000000000E+00  0.79948581070E+03  0.79948581070E+03  0.00000000000E+00 0.  1.
         22   -1    0    0    0    0 -0.00000000000E+00 -0.00000000000E+00 -0.70639121944E+02  0.70639121944E+02  0.00000000000E+00 0. -1.
        -24    2    1    2    0    0  0.90474778184E+00 -0.22954739107E+02  0.33822590147E+02  0.90644142943E+02  0.80899038496E+02 0.  0.
         25    2    1    2    0    0 -0.20096735047E+02  0.11303974485E+03  0.17075855258E+03  0.24080469260E+03  0.12508618637E+03 0.  0.
         24    2    1    2    0    0  0.19191987265E+02 -0.90085005747E+02  0.52426554603E+03  0.53867609711E+03  0.82667612792E+02 0.  0.
        -11    1    5    5    0    0  0.45378068721E+01 -0.38300012723E+02  0.41587764720E+03  0.41766218419E+03  0.00000000000E+00 0.  1.
         12    1    5    5    0    0  0.14654180393E+02 -0.51784993024E+02  0.10838789883E+03  0.12101391291E+03  0.00000000000E+00 0. -1.
         11    1    3    3    0    0  0.22738671905E+02 -0.44807128362E+02  0.32265112408E+02  0.59714013689E+02  0.00000000000E+00 0. -1.
        -12    1    3    3    0    0 -0.21833924123E+02  0.21852389255E+02  0.15574777381E+01  0.30930129254E+02  0.00000000000E+00 0.  1.
          5    1    4    4  501    0 -0.70132829636E+01  0.13958014607E+03  0.13769868869E+03  0.19624017066E+03  0.41800000000E+01 0.  1.
         -5    1    4    4    0  501 -0.13083452083E+02 -0.26540401212E+02  0.33059863893E+02  0.44564521938E+02  0.41800000000E+01 0.  1.
</event>
<event>
11    1  0.1003949E-008  0.1317072E+03  0.7561462E-02  0.1117189E+00
         22   -1    0    0    0    0  0.00000000000E+00  0.00000000000E+00  0.95762145503E+03  0.95762145503E+03  0.00000000000E+00 0. -1.
         22   -1    0    0    0    0 -0.00000000000E+00 -0.00000000000E+00 -0.22418693500E+03  0.22418693500E+03  0.00000000000E+00 0.  1.
        -24    2    1    2    0    0 -0.33749796747E+02  0.78738478285E+01 -0.10341342446E+03  0.13564810781E+03  0.80653744697E+02 0.  0.
         25    2    1    2    0    0  0.64178242673E+02  0.19328613498E+02 -0.53310315378E+02  0.15159352304E+03  0.12508462883E+03 0.  0.
         24    2    1    2    0    0 -0.30428445926E+02 -0.27202461326E+02  0.89015825987E+03  0.89456675918E+03  0.78753379571E+02 0.  0.
        -11    1    5    5    0    0  0.15760570901E+02  0.16557121801E+02  0.33387041334E+03  0.33465203836E+03  0.00000000000E+00 0.  1.
         12    1    5    5    0    0 -0.46189016827E+02 -0.43759583127E+02  0.55628784654E+03  0.55991472082E+03  0.00000000000E+00 0. -1.
         11    1    3    3    0    0  0.23589430436E+02  0.58758473343E+01 -0.10572760656E+02  0.26509810977E+02  0.00000000000E+00 0. -1.
        -12    1    3    3    0    0 -0.57339227182E+02  0.19980004943E+01 -0.92840663801E+02  0.10913829683E+03  0.00000000000E+00 0.  1.
          5    1    4    4  501    0 -0.11946608195E+02  0.28572052655E+02  0.26398361089E+02  0.40907572752E+02  0.41800000000E+01 0. -1.
         -5    1    4    4    0  501  0.76124850868E+02 -0.92434391571E+01 -0.79708676467E+02  0.11068595029E+03  0.41800000000E+01 0. -1.
</event>
<event>
11    1  0.1003949E-008  0.1327854E+03  0.7561462E-02  0.1115893E+00
         22   -1    0    0    0    0  0.00000000000E+00  0.00000000000E+00  0.17914323120E+03  0.17914323120E+03  0.00000000000E+00 0. -1.
         22   -1    0    0    0    0 -0.00000000000E+00 -0.00000000000E+00 -0.55223559219E+03  0.55223559219E+03  0.00000000000E+00 0. -1.
         24    2    1    2    0    0 -0.21304693910E+02  0.33430164084E+02 -0.42381464328E+03  0.44003107802E+03  0.11152144146E+03 0.  0.
         25    2    1    2    0    0  0.53342484446E+02 -0.55326622419E+02 -0.53113210097E+02  0.15612600842E+03  0.12509141306E+03 0.  0.
        -24    2    1    2    0    0 -0.32037790536E+02  0.21896458335E+02  0.10383549239E+03  0.13522173695E+03  0.77441808824E+02 0.  0.
        -13    1    3    3    0    0  0.14704841699E+02  0.41464447533E+01 -0.17001755821E+01  0.15372572019E+02  0.00000000000E+00 0.  1.
         14    1    3    3    0    0 -0.36009535609E+02  0.29283719330E+02 -0.42211446770E+03  0.42465850600E+03  0.00000000000E+00 0. -1.
         11    1    5    5    0    0 -0.17172757498E+02 -0.28824663009E+02  0.35751948539E+02  0.49030262308E+02  0.00000000000E+00 0. -1.
        -12    1    5    5    0    0 -0.14865033038E+02  0.50721121344E+02  0.68083543856E+02  0.86191474646E+02  0.00000000000E+00 0.  1.
          5    1    4    4  501    0  0.57406712580E+02  0.13734182918E+02  0.12731132787E+02  0.60528609531E+02  0.41800000000E+01 0. -1.
         -5    1    4    4    0  501 -0.40642281340E+01 -0.69060805337E+02 -0.65844342884E+02  0.95597398887E+02  0.41800000000E+01 0. -1.
</event>
<event>
11    1  0.1003949E-008  0.1527024E+03  0.7561462E-02  0.1094149E+00
         22   -1    0    0    0    0  0.00000000000E+00  0.00000000000E+00  0.23083311622E+04  0.23083311622E+04  0.00000000000E+00 0. -1.
         22   -1    0    0    0    0 -0.00000000000E+00 -0.00000000000E+00 -0.10530598457E+03  0.10530598457E+03  0.00000000000E+00 0. -1.
        -24    2    1    2    0    0 -0.76579378129E+02 -0.23258199312E+02 -0.20910035450E+02  0.11441486435E+03  0.79045471805E+02 0.  0.
         25    2    1    2    0    0  0.11390503536E+03  0.40966149333E+02  0.16988677400E+03  0.24323137384E+03  0.12508957897E+03 0.  0.
         24    2    1    2    0    0 -0.37325657227E+02 -0.17707950021E+02  0.20540484390E+04  0.20559909085E+04  0.79226573109E+02 0.  0.
        -13    1    5    5    0    0  0.17304040053E+02 -0.27256617274E+02  0.57797596983E+03  0.57887699443E+03  0.00000000000E+00 0.  1.
         14    1    5    5    0    0 -0.54629697280E+02  0.95486672531E+01  0.14760724692E+04  0.14771139141E+04  0.00000000000E+00 0. -1.
         13    1    3    3    0    0 -0.46409977761E+02 -0.27156305311E+02 -0.49192471423E+02  0.72878324615E+02  0.00000000000E+00 0. -1.
        -14    1    3    3    0    0 -0.30169400368E+02  0.38981059990E+01  0.28282435973E+02  0.41536539740E+02  0.00000000000E+00 0.  1.
          5    1    4    4  501    0  0.14140192036E+02  0.22739587781E+02  0.13221450822E+03  0.13496363387E+03  0.41800000000E+01 0.  1.
         -5    1    4    4    0  501  0.99764843320E+02  0.18226561552E+02  0.37672265780E+02  0.10826773997E+03  0.41800000000E+01 0.  1.
</event>
<event>
11    1  0.1003949E-008  0.2166657E+03  0.7561462E-02  0.1043326E+00
         22   -1    0    0    0    0  0.00000000000E+00  0.00000000000E+00  0.13107167340E+04  0.13107167340E+04  0.00000000000E+00 0. -1.
         22   -1    0    0    0    0 -0.00000000000E+00 -0.00000000000E+00 -0.15370981954E+03  0.15370981954E+03  0.00000000000E+00 0.  1.
         24    2    1    2    0    0  0.82736540621E+01  0.59056358699E+02 -0.97948193716E+02  0.14055944022E+03  0.81283459136E+02 0.  0.
         25    2    1    2    0    0 -0.13430462405E+03 -0.15698436161E+03  0.66976368791E+03  0.71197807546E+03  0.12509020931E+03 0.  0.
        -24    2    1    2    0    0  0.12603096998E+03  0.97928002915E+02  0.58519142025E+03  0.61188903785E+03  0.80532584434E+02 0.  0.
        -13    1    3    3    0    0  0.33330232114E+01  0.78654019260E+02 -0.87862131646E+02  0.11797168290E+03  0.00000000000E+00 0.  1.
         14    1    3    3    0    0  0.49406308508E+01 -0.19597660561E+02 -0.10086062070E+02  0.22587757320E+02  0.00000000000E+00 0. -1.
         11    1    5    5    0    0  0.11125466843E+03  0.89871389166E+02  0.38023347193E+03  0.40624125962E+03  0.00000000000E+00 0. -1.
        -12    1    5    5    0    0  0.14776301553E+02  0.80566137482E+01  0.20495794832E+03  0.20564777823E+03  0.00000000000E+00 0.  1.
          5    1    4    4  501    0 -0.47975439281E+02 -0.72942232703E+02  0.11599734411E+03  0.14524141395E+03  0.41800000000E+01 0. -1.
         -5    1    4    4    0  501 -0.86329184764E+02 -0.84042128910E+02  0.55376634381E+03  0.56673666152E+03  0.41800000000E+01 0. -1.
</event>
<event>
11    1  0.1003949E-008  0.1359033E+03  0.7561462E-02  0.1112221E+00
         22   -1    0    0    0    0  0.00000000000E+00  0.00000000000E+00  0.29547023377E+03  0.29547023377E+03  0.00000000000E+00 0.  1.
         22   -1    0    0    0    0 -0.00000000000E+00 -0.00000000000E+00 -0.37483636084E+03  0.37483636084E+03  0.00000000000E+00 0.  1.
        -24    2    1    2    0    0  0.11932958646E+02  0.21692767071E+02 -0.24419657129E+03  0.25740349911E+03  0.77534665043E+02 0.  0.
         25    2    1    2    0    0 -0.46636844313E+02 -0.59483389366E+02 -0.68095077262E+02  0.16123741142E+03  0.12508914596E+03 0.  0.
         24    2    1    2    0    0  0.34703885666E+02  0.37790622295E+02  0.23292552148E+03  0.25166568407E+03  0.80304589983E+02 0.  0.
        -11    1    5    5    0    0  0.51036509568E+02  0.52522659458E+02  0.17509705781E+03  0.18979550764E+03  0.00000000000E+00 0.  1.
         12    1    5    5    0    0 -0.16332623902E+02 -0.14732037164E+02  0.57828463663E+02  0.61870176436E+02  0.00000000000E+00 0. -1.
         11    1    3    3    0    0  0.32593840901E+02  0.33035364212E+02 -0.88467666284E+02  0.99901059710E+02  0.00000000000E+00 0. -1.
        -12    1    3    3    0    0 -0.20660882255E+02 -0.11342597141E+02 -0.15572890500E+03  0.15750243940E+03  0.00000000000E+00 0.  1.
          5    1    4    4  501    0 -0.86696687976E+02 -0.22165832373E+02 -0.53810049629E+02  0.10450183573E+03  0.41800000000E+01 0. -1.
         -5    1    4    4    0  501  0.40059843663E+02 -0.37317556993E+02 -0.14285027632E+02  0.56735575688E+02  0.41800000000E+01 0. -1.
</event>
<event>
11    1  0.1003949E-008  0.1989912E+03  0.7561462E-02  0.1055239E+00
         22   -1    0    0    0    0  0.00000000000E+00  0.00000000000E+00  0.11987422033E+04  0.11987422033E+04  0.00000000000E+00 0.  1.
         22   -1    0    0    0    0 -0.00000000000E+00 -0.00000000000E+00 -0.88410864513E+03  0.88410864513E+03  0.00000000000E+00 0. -1.
         24    2    1    2    0    0 -0.13778996079E+03 -0.69016271744E+02 -0.83815139278E+03  0.85679563593E+03  0.88609736903E+02 0.  0.
         25    2    1    2    0    0  0.15661434974E+03  0.85843553225E+02  0.30611592111E+03  0.37583507345E+03  0.12509146694E+03 0.  0.
        -24    2    1    2    0    0 -0.18824388944E+02 -0.16827281481E+02  0.84666902987E+03  0.85022013909E+03  0.73405202485E+02 0.  0.
        -11    1    3    3    0    0  0.12430295559E+02 -0.10953804898E+02 -0.68570161719E+02  0.70543356651E+02  0.00000000000E+00 0.  1.
         12    1    3    3    0    0 -0.15022025635E+03 -0.58062466846E+02 -0.76958123106E+03  0.78625227928E+03  0.00000000000E+00 0. -1.
         11    1    5    5    0    0 -0.83033906943E+01 -0.14208678481E+02  0.37190236504E+02  0.40668741466E+02  0.00000000000E+00 0. -1.
        -12    1    5    5    0    0 -0.10520998250E+02 -0.26186029998E+01  0.80947879337E+03  0.80955139763E+03  0.00000000000E+00 0.  1.
          5    1    4    4  501    0  0.46923330162E+02  0.74498682356E+02  0.21622975603E+03  0.23350510140E+03  0.41800000000E+01 0. -1.
         -5    1    4    4    0  501  0.10969101957E+03  0.11344870869E+02  0.89886165085E+02  0.14232997205E+03  0.41800000000E+01 0. -1.
</event>
<event>
11    1  0.1003949E-008  0.1664016E+03  0.7561462E-02  0.1081206E+00
         22   -1    0    0    0    0  0.00000000000E+00  0.00000000000E+00  0.30720907242E+03  0.30720907242E+03  0.00000000000E+00 0. -1.
         22   -1    0    0    0    0 -0.00000000000E+00 -0.00000000000E+00 -0.16566455014E+03  0.16566455014E+03  0.00000000000E+00 0.  1.
        -24    2    1    2    0    0 -0.39478591852E+01 -0.19948154993E+01 -0.65138229422E+02  0.10423933644E+03  0.81260602064E+02 0.  0.
         25    2    1    2    0    0  0.10634451741E+03 -0.33078908666E+02  0.12536168901E+03  0.20920367638E+03  0.12508898656E+03 0.  0.
         24    2    1    2    0    0 -0.10239665823E+03  0.35073724165E+02  0.81321062697E+02  0.15943060973E+03  0.84200726477E+02 0.  0.
        -11    1    5    5    0    0 -0.76199133136E+02  0.61258218439E+02  0.71459768557E+02  0.12110068431E+03  0.00000000000E+00 0.  1.
         12    1    5    5    0    0 -0.26197525090E+02 -0.26184494274E+02  0.98612941394E+01  0.38329925428E+02  0.00000000000E+00 0. -1.
         11    1    3    3    0    0 -0.16683911689E+02 -0.32172876036E+02 -0.61397396349E+01  0.36757900708E+02  0.00000000000E+00 0. -1.
        -12    1    3    3    0    0  0.12736052503E+02  0.30178060536E+02 -0.58998489787E+02  0.67481435731E+02  0.00000000000E+00 0.  1.
          5    1    4    4  501    0  0.12398041956E+03 -0.22380322469E+02  0.58235849163E+02  0.13885571574E+03  0.41800000000E+01 0. -1.
         -5    1    4    4    0  501 -0.17635902145E+02 -0.10698586197E+02  0.67125839844E+02  0.70347960638E+02  0.41800000000E+01 0. -1.
</event>
<event>
11    1  0.1003949E-008  0.1741842E+03  0.7561462E-02  0.1074447E+00
         22   -1    0    0    0    0  0.00000000000E+00  0.00000000000E+00  0.47036453354E+03  0.47036453354E+03  0.00000000000E+00 0. -1.
         22   -1    0    0    0    0 -0.00000000000E+00 -0.00000000000E+00 -0.18544408522E+03  0.18544408522E+03  0.00000000000E+00 0.  1.
        -24    2    1    2    0    0 -0.21244393423E+02 -0.11429193569E+03 -0.59648501304E+02  0.15295459465E+03  0.79518510428E+02 0.  0.
         25    2    1    2    0    0  0.20758720350E+02  0.13164069136E+03  0.39317966943E+02  0.18696207847E+03  0.12509484468E+03 0.  0.
         24    2    1    2    0    0  0.48567307276E+00 -0.17348755673E+02  0.30525098269E+03  0.31589194564E+03  0.79425082234E+02 0.  0.
        -13    1    5    5    0    0 -0.16837177352E+01  0.14620031378E+01 -0.47845747316E+01  0.52786848693E+01  0.00000000000E+00 0.  1.
         14    1    5    5    0    0  0.21693908080E+01 -0.18810758810E+02  0.31003555742E+03  0.31061326077E+03  0.00000000000E+00 0. -1.
         11    1    3    3    0    0  0.15290852866E+02 -0.22423547220E+02  0.13168124192E+02  0.30166623047E+02  0.00000000000E+00 0. -1.
        -12    1    3    3    0    0 -0.36535246289E+02 -0.91868388471E+02 -0.72816625497E+02  0.12278797160E+03  0.00000000000E+00 0.  1.
          5    1    4    4  501    0  0.38736420054E+02  0.37614916518E+02  0.68010266134E+02  0.86938259029E+02  0.41800000000E+01 0.  1.
         -5    1    4    4    0  501 -0.17977699704E+02  0.94025774845E+02 -0.28692299192E+02  0.10002381944E+03  0.41800000000E+01 0.  1.
</event>
<event>
11    1  0.1003949E-008  0.1439340E+03  0.7561462E-02  0.1103243E+00
         22   -1    0    0    0    0  0.00000000000E+00  0.00000000000E+00  0.54436474241E+03  0.54436474241E+03  0.00000000000E+00 0. -1.
         22   -1    0    0    0    0 -0.00000000000E+00 -0.00000000000E+00 -0.62387495523E+03  0.62387495523E+03  0.00000000000E+00 0. -1.
         24    2    1    2    0    0  0.75306595954E+02 -0.26340370347E+01 -0.44319209676E+03  0.45710581515E+03  0.82755483586E+02 0.  0.
         25    2    1    2    0    0 -0.54950855757E+02 -0.11260703698E+02 -0.14328098659E+03  0.19830189878E+03  0.12509117453E+03 0.  0.
        -24    2    1    2    0    0 -0.20355740196E+02  0.13894740732E+02  0.50696287053E+03  0.51283198372E+03  0.73333971994E+02 0.  0.
        -13    1    3    3    0    0 -0.70564961964E+01 -0.24848169938E+02 -0.12755469830E+03  0.13014386941E+03  0.00000000000E+00 0.  1.
         14    1    3    3    0    0  0.82363092150E+02  0.22214132903E+02 -0.31563739846E+03  0.32696194573E+03  0.00000000000E+00 0. -1.
         11    1    5    5    0    0 -0.99946343431E+01  0.42972866105E+02  0.35769078951E+03  0.36040152724E+03  0.00000000000E+00 0. -1.
        -12    1    5    5    0    0 -0.10361105853E+02 -0.29078125373E+02  0.14927208102E+03  0.15243045648E+03  0.00000000000E+00 0.  1.
          5    1    4    4  501    0 -0.59170269920E+02  0.44869987887E+02 -0.51192577473E+02  0.90291688674E+02  0.41800000000E+01 0. -1.
         -5    1    4    4    0  501  0.42194141625E+01 -0.56130691584E+02 -0.92088409115E+02  0.10801021010E+03  0.41800000000E+01 0. -1.
</event>
<event>
11    1  0.1003949E-008  0.1925731E+03  0.7561462E-02  0.1059903E+00
         22   -1    0    0    0    0  0.00000000000E+00  0.00000000000E+00  0.12011801554E+03  0.12011801554E+03  0.00000000000E+00 0. -1.
         22   -1    0    0    0    0 -0.00000000000E+00 -0.00000000000E+00 -0.12653407009E+04  0.12653407009E+04  0.00000000000E+00 0. -1.
         24    2    1    2    0    0  0.11098676250E+01  0.21478308630E+02 -0.98416251181E+03  0.98765521548E+03  0.80152513849E+02 0.  0.
         25    2    1    2    0    0  0.13105176953E+03  0.51143079944E+02 -0.11334196527E+03  0.21973570756E+03  0.12508876513E+03 0.  0.
        -24    2    1    2    0    0 -0.13216163716E+03 -0.72621388574E+02 -0.47718208267E+02  0.17806779337E+03  0.81795765290E+02 0.  0.
        -11    1    3    3    0    0 -0.65996185809E+00 -0.13539297822E+02 -0.30833416575E+02  0.33681563397E+02  0.00000000000E+00 0.  1.
         12    1    3    3    0    0  0.17698294830E+01  0.35017606452E+02 -0.95332909523E+03  0.95397365209E+03  0.00000000000E+00 0. -1.
         11    1    5    5    0    0 -0.11789448146E+03 -0.26112671416E+02 -0.20994917247E+02  0.12256331800E+03  0.00000000000E+00 0. -1.
        -12    1    5    5    0    0 -0.14267155696E+02 -0.46508717157E+02 -0.26723291020E+02  0.55504475371E+02  0.00000000000E+00 0.  1.
          5    1    4    4  501    0  0.87058579002E+02  0.89553430834E+02 -0.99065363954E+02  0.15946921925E+03  0.41800000000E+01 0. -1.
         -5    1    4    4    0  501  0.43993190532E+02 -0.38410350890E+02 -0.14276601314E+02  0.60266488315E+02  0.41800000000E+01 0. -1.
</event>
<event>
11    1  0.1003949E-008  0.3468066E+03  0.7561462E-02  0.9821221E-01
         22   -1    0    0    0    0  0.00000000000E+00  0.00000000000E+00  0.81069390135E+03  0.81069390135E+03  0.00000000000E+00 0.  1.
         22   -1    0    0    0    0 -0.00000000000E+00 -0.00000000000E+00 -0.34789523849E+03  0.34789523849E+03  0.00000000000E+00 0.  1.
         24    2    1    2    0    0 -0.43399296480E+02  0.31473861715E+03 -0.12145759146E+03  0.34971729222E+03  0.81279406330E+02 0.  0.
         25    2    1    2    0    0 -0.67268688916E+02 -0.34944158895E+03  0.26687007557E+03  0.46206223177E+03  0.12508944078E+03 0.  0.
        -24    2    1    2    0    0  0.11066798540E+03  0.34702971808E+02  0.31738617876E+03  0.34680961585E+03  0.78046293541E+02 0.  0.
        -11    1    3    3    0    0 -0.45907635218E+02  0.27344622014E+03 -0.74440752767E+02  0.28709192248E+03  0.00000000000E+00 0.  1.
         12    1    3    3    0    0  0.25083387373E+01  0.41292397002E+02 -0.47016838695E+02  0.62625369733E+02  0.00000000000E+00 0. -1.
         13    1    5    5    0    0  0.42662496374E+02  0.91825644699E+01  0.22548580462E+03  0.22966988521E+03  0.00000000000E+00 0. -1.
        -14    1    5    5    0    0  0.68005489022E+02  0.25520407338E+02  0.91900374141E+02  0.11713973064E+03  0.00000000000E+00 0.  1.
          5    1    4    4  501    0 -0.84104034619E+02 -0.33446958922E+03  0.21783518667E+03  0.40793753897E+03  0.41800000000E+01 0. -1.
         -5    1    4    4    0  501  0.16835345704E+02 -0.14971999735E+02  0.49034888901E+02  0.54124692798E+02  0.41800000000E+01 0. -1.
</event>
<event>
11    1  0.1003949E-008  0.1477282E+03  0.7561462E-02  0.1099223E+00
         22   -1    0    0    0    0  0.00000000000E+00  0.00000000000E+00  0.71159701057E+03  0.71159701057E+03  0.00000000000E+00 0. -1.
         22   -1    0    0    0    0 -0.00000000000E+00 -0.00000000000E+00 -0.16909143006E+03  0.16909143006E+03  0.00000000000E+00 0. -1.
         24    2    1    2    0    0  0.24854735718E+01  0.29453309379E+01 -0.13383982913E+03  0.15491570589E+03  0.77916131291E+02 0.  0.
         25    2    1    2    0    0 -0.69087545743E+02  0.38382219842E+02  0.32695231755E+03  0.35887466219E+03  0.12508765501E+03 0.  0.
        -24    2    1    2    0    0  0.66602072171E+02 -0.41327550780E+02  0.34939309209E+03  0.36689807255E+03  0.79967870874E+02 0.  0.
        -11    1    3    3    0    0  0.48739917841E+01 -0.71902767653E+01  0.85247758004E+01  0.12170771476E+02  0.00000000000E+00 0.  1.
         12    1    3    3    0    0 -0.23885182123E+01  0.10135607703E+02 -0.14236460493E+03  0.14274493441E+03  0.00000000000E+00 0. -1.
         11    1    5    5    0    0  0.30166042749E+02 -0.37312179135E+02  0.30754614171E+03  0.31126647447E+03  0.00000000000E+00 0. -1.
        -12    1    5    5    0    0  0.36436029422E+02 -0.40153716446E+01  0.41846950382E+02  0.55631598087E+02  0.00000000000E+00 0.  1.
          5    1    4    4  501    0 -0.51937093232E+02  0.70298358429E+02  0.11877925456E+03  0.14753069025E+03  0.41800000000E+01 0. -1.
         -5    1    4    4    0  501 -0.17150452511E+02 -0.31916138587E+02  0.20817306299E+03  0.21134397194E+03  0.41800000000E+01 0. -1.
</event>
<event>
11    1  0.1003949E-008  0.1476800E+03  0.7561462E-02  0.1099273E+00
         22   -1    0    0    0    0  0.00000000000E+00  0.00000000000E+00  0.77509476281E+02  0.77509476281E+02  0.00000000000E+00 0. -1.
         22   -1    0    0    0    0 -0.00000000000E+00 -0.00000000000E+00 -0.50554977480E+03  0.50554977480E+03  0.00000000000E+00 0. -1.
         24    2    1    2    0    0  0.12019217571E+01 -0.26050522818E+02 -0.24470161078E+03  0.25924223599E+03  0.81532718898E+02 0.  0.
         25    2    1    2    0    0 -0.27065565428E+02  0.86009784514E+02 -0.67616966971E+02  0.16837352221E+03  0.12508941160E+03 0.  0.
        -24    2    1    2    0    0  0.25863643671E+02 -0.59959261696E+02 -0.11572172077E+03  0.15544349288E+03  0.80666732257E+02 0.  0.
        -13    1    3    3    0    0  0.17627269742E+02 -0.12424893728E+02 -0.10350418338E+02  0.23921324848E+02  0.00000000000E+00 0.  1.
         14    1    3    3    0    0 -0.16425347985E+02 -0.13625629089E+02 -0.23435119244E+03  0.23532091114E+03  0.00000000000E+00 0. -1.
         11    1    5    5    0    0 -0.53406779087E+01 -0.66641172273E+02 -0.98880506100E+02  0.11936047574E+03  0.00000000000E+00 0. -1.
        -12    1    5    5    0    0  0.31204321580E+02  0.66819105772E+01 -0.16841214673E+02  0.36083017139E+02  0.00000000000E+00 0.  1.
          5    1    4    4  501    0  0.40488533408E+02  0.88971084748E+01  0.59974026659E+01  0.42094193370E+02  0.41800000000E+01 0.  1.
         -5    1    4    4    0  501 -0.67554098836E+02  0.77112676039E+02 -0.73614369637E+02  0.12627932884E+03  0.41800000000E+01 0.  1.
</event>
<event>
11    1  0.1003949E-008  0.1471136E+03  0.7561462E-02  0.1099865E+00
         22   -1    0    0    0    0  0.00000000000E+00  0.00000000000E+00  0.75075276712E+03  0.75075276712E+03  0.00000000000E+00 0.  1.
         22   -1    0    0    0    0 -0.00000000000E+00 -0.00000000000E+00 -0.25916273708E+03  0.25916273708E+03  0.00000000000E+00 0. -1.
        -24    2    1    2    0    0  0.56923708446E+02  0.53009855440E+02 -0.22229397485E+03  0.24961246878E+03  0.82712876620E+02 0.  0.
         25    2    1    2    0    0 -0.75499761084E+02 -0.20974412578E+02  0.27048190141E+03  0.30813578208E+03  0.12508821407E+03 0.  0.
         24    2    1    2    0    0  0.18576052638E+02 -0.32035442863E+02  0.44340210347E+03  0.45216725335E+03  0.80488883113E+02 0.  0.
        -13    1    5    5    0    0  0.46197085230E+02 -0.80027155510E+01  0.32102298787E+03  0.32442868689E+03  0.00000000000E+00 0.  1.
         14    1    5    5    0    0 -0.27621032592E+02 -0.24032727312E+02  0.12237911561E+03  0.12773856645E+03  0.00000000000E+00 0. -1.
         13    1    3    3    0    0  0.76776047104E+02  0.49217512183E+02 -0.19812389897E+03  0.21810548883E+03  0.00000000000E+00 0. -1.
        -14    1    3    3    0    0 -0.19852338658E+02  0.37923432573E+01 -0.24170075879E+02  0.31506979950E+02  0.00000000000E+00 0.  1.
          5    1    4    4  501    0 -0.66412994355E+02 -0.69099210124E+02  0.15048210010E+03  0.17845929931E+03  0.41800000000E+01 0.  1.
         -5    1    4    4    0  501 -0.90867667291E+01  0.48124797547E+02  0.11999980132E+03  0.12967648277E+03  0.41800000000E+01 0.  1.
</event>
<event>
11    1  0.1003949E-008  0.1367323E+03  0.7561462E-02  0.1111263E+00
         22   -1    0    0    0    0  0.00000000000E+00  0.00000000000E+00  0.86054162070E+02  0.86054162070E+02  0.00000000000E+00 0. -1.
         22   -1    0    0    0    0 -0.00000000000E+00 -0.00000000000E+00 -0.92288269529E+03  0.92288269529E+03  0.00000000000E+00 0. -1.
        -24    2    1    2    0    0  0.35471607986E+02 -0.44604768292E+02 -0.74844492407E+03  0.75462136193E+03  0.77690251618E+02 0.  0.
         25    2    1    2    0    0 -0.48985989733E+02  0.46805622866E+01 -0.94181768668E+02  0.16413140038E+03  0.12508947272E+03 0.  0.
         24    2    1    2    0    0  0.13514381747E+02  0.39924206006E+02  0.57981595196E+01  0.90184095047E+02  0.79517115179E+02 0.  0.
        -11    1    5    5    0    0 -0.30484483549E+02  0.33509568142E+01  0.11349627945E+02  0.32700867011E+02  0.00000000000E+00 0.  1.
         12    1    5    5    0    0  0.43998865295E+02  0.36573249192E+02 -0.55514684252E+01  0.57483228035E+02  0.00000000000E+00 0. -1.
         13    1    3    3    0    0 -0.53763939146E+01 -0.88790462626E+01 -0.50892688524E+03  0.50903272743E+03  0.00000000000E+00 0. -1.
        -14    1    3    3    0    0  0.40848001901E+02 -0.35725722030E+02 -0.23951803882E+03  0.24558863450E+03  0.00000000000E+00 0.  1.
          5    1    4    4  501    0 -0.34584997907E+02 -0.16747912247E+02  0.22384430273E+02  0.44667099341E+02  0.41800000000E+01 0.  1.
         -5    1    4    4    0  501 -0.14400991826E+02  0.21428474534E+02 -0.11656619894E+03  0.11946430104E+03  0.41800000000E+01 0.  1.
</event>
<event>
11    1  0.1003949E-008  0.2124742E+03  0.7561462E-02  0.1046037E+00
         22   -1    0    0    0    0  0.00000000000E+00  0.00000000000E+00  0.36358181802E+03  0.36358181802E+03  0.00000000000E+00 0.  1.
         22   -1    0    0    0    0 -0.00000000000E+00 -0.00000000000E+00 -0.19270974326E+04  0.19270974326E+04  0.00000000000E+00 0.  1.
         24    2    1    2    0    0 -0.90713427306E+01  0.40036005693E+02 -0.12440543195E+04  0.12474022812E+04  0.81585110686E+02 0.  0.
         25    2    1    2    0    0 -0.12027122358E+03 -0.15189513928E+03 -0.63490766761E+03  0.67549391353E+03  0.12508789014E+03 0.  0.
        -24    2    1    2    0    0  0.12934256631E+03  0.11185913359E+03  0.31544637247E+03  0.36778305594E+03  0.80721726392E+02 0.  0.
        -13    1    3    3    0    0  0.33573820595E+01  0.52336888175E+02 -0.11749480383E+04  0.11761179000E+04  0.00000000000E+00 0.  1.
         14    1    3    3    0    0 -0.12428724790E+02 -0.12300882483E+02 -0.69106281136E+02  0.71284381194E+02  0.00000000000E+00 0. -1.
         11    1    5    5    0    0  0.56393442636E+02  0.17276468145E+02  0.52432834293E+02  0.78917037678E+02  0.00000000000E+00 0. -1.
        -12    1    5    5    0    0  0.72949123674E+02  0.94582665440E+02  0.26301353817E+03  0.28886601827E+03  0.00000000000E+00 0.  1.
          5    1    4    4  501    0  0.18850346736E+02 -0.48128287519E+02 -0.93310170384E+02  0.10675171160E+03  0.41800000000E+01 0.  1.
         -5    1    4    4    0  501 -0.13912157032E+03 -0.10376685176E+03 -0.54159749723E+03  0.56874220193E+03  0.41800000000E+01 0.  1.
</event>
<event>
11    1  0.1003949E-008  0.1735836E+03  0.7561462E-02  0.1074954E+00
         22   -1    0    0    0    0  0.00000000000E+00  0.00000000000E+00  0.14189538970E+04  0.14189538970E+04  0.00000000000E+00 0.  1.
         22   -1    0    0    0    0 -0.00000000000E+00 -0.00000000000E+00 -0.20919784110E+04  0.20919784110E+04  0.00000000000E+00 0.  1.
        -24    2    1    2    0    0 -0.11900324983E+03  0.73651676739E+01 -0.20105992508E+04  0.20157708283E+04  0.81281398955E+02 0.  0.
         25    2    1    2    0    0  0.19866617422E+03 -0.50279825789E+01  0.10462736032E+03  0.25707514288E+03  0.12508882913E+03 0.  0.
         24    2    1    2    0    0 -0.79662924385E+02 -0.23371850950E+01  0.12329473764E+04  0.12380863368E+04  0.79667436591E+02 0.  0.
        -11    1    5    5    0    0 -0.65844882175E+02  0.13295861144E+01  0.12040124751E+04  0.12058123223E+04  0.00000000000E+00 0.  1.
         12    1    5    5    0    0 -0.13818042209E+02 -0.36667712094E+01  0.28934901271E+02  0.32274014519E+02  0.00000000000E+00 0. -1.
         11    1    3    3    0    0 -0.99965937944E+01  0.10392895744E+02 -0.83505302407E+03  0.83517752434E+03  0.00000000000E+00 0. -1.
        -12    1    3    3    0    0 -0.10900665604E+03 -0.30277280697E+01 -0.11755462267E+04  0.11805933039E+04  0.00000000000E+00 0.  1.
          5    1    4    4  501    0  0.17906116516E+03 -0.30628914960E+02  0.12328683630E+03  0.21958631037E+03  0.41800000000E+01 0.  1.
         -5    1    4    4    0  501  0.19605009060E+02  0.25600932381E+02 -0.18659475979E+02  0.37488832508E+02  0.41800000000E+01 0.  1.
</event>
<event>
11    1  0.1003949E-008  0.1472917E+03  0.7561462E-02  0.1099679E+00
         22   -1    0    0    0    0  0.00000000000E+00  0.00000000000E+00  0.16410910958E+04  0.16410910958E+04  0.00000000000E+00 0.  1.
         22   -1    0    0    0    0 -0.00000000000E+00 -0.00000000000E+00 -0.22880046401E+03  0.22880046401E+03  0.00000000000E+00 0.  1.
         24    2    1    2    0    0 -0.55189613799E+02  0.54229690788E+02 -0.19922606079E+03  0.22824346462E+03  0.80108070820E+02 0.  0.
         25    2    1    2    0    0  0.31998745829E+02 -0.97210431493E+02  0.48498786100E+03  0.51120807593E+03  0.12508670536E+03 0.  0.
        -24    2    1    2    0    0  0.23190867971E+02  0.42980740704E+02  0.11265288316E+04  0.11304400193E+04  0.80263742331E+02 0.  0.
        -13    1    3    3    0    0 -0.67087436714E+02  0.61580542113E+02 -0.19200002164E+03  0.21250151916E+03  0.00000000000E+00 0.  1.
         14    1    3    3    0    0  0.11897822915E+02 -0.73508513250E+01 -0.72260391429E+01  0.15741945464E+02  0.00000000000E+00 0. -1.
         13    1    5    5    0    0  0.39277610631E+02  0.74866876066E+01  0.26201938670E+03  0.26505271210E+03  0.00000000000E+00 0. -1.
        -14    1    5    5    0    0 -0.16086742660E+02  0.35494053098E+02  0.86450944493E+03  0.86538730720E+03  0.00000000000E+00 0.  1.
          5    1    4    4  501    0 -0.20549786800E+02 -0.88562128460E+02  0.40445839903E+03  0.41457160212E+03  0.41800000000E+01 0.  1.
         -5    1    4    4    0  501  0.52548532629E+02 -0.86483030329E+01  0.80529461969E+02  0.96636473817E+02  0.41800000000E+01 0.  1.
</event>
<event>
11    1  0.1003949E-008  0.1719178E+03  0.7561462E-02  0.1076375E+00
         22   -1    0    0    0    0  0.00000000000E+00  0.00000000000E+00  0.30613885232E+03  0.30613885232E+03  0.00000000000E+00 0.  1.
         22   -1    0    0    0    0 -0.00000000000E+00 -0.00000000000E+00 -0.84822664024E+03  0.84822664024E+03  0.00000000000E+00 0.  1.
         24    2    1    2    0    0  0.38414408242E+02 -0.94106652918E+02 -0.45333564752E+03  0.47169898103E+03  0.81578125214E+02 0.  0.
         25    2    1    2    0    0 -0.59492466685E+02  0.16057368916E+03 -0.34525592552E+03  0.40517517664E+03  0.12506800716E+03 0.  0.
        -24    2    1    2    0    0  0.21078058443E+02 -0.66467036245E+02  0.25650378513E+03  0.27749133488E+03  0.79656121518E+02 0.  0.
        -13    1    3    3    0    0  0.45088044882E+02 -0.46407239989E+02 -0.36856211507E+03  0.37419860553E+03  0.00000000000E+00 0.  1.
         14    1    3    3    0    0 -0.66736366403E+01 -0.47699412929E+02 -0.84773532445E+02  0.97500375502E+02  0.00000000000E+00 0. -1.
         13    1    5    5    0    0 -0.17881608505E+02  0.79573343712E+01  0.29120133208E+02  0.35086368451E+02  0.00000000000E+00 0. -1.
        -14    1    5    5    0    0  0.38959666948E+02 -0.74424370617E+02  0.22738365192E+03  0.24240496643E+03  0.00000000000E+00 0.  1.
          5    1    4    4  501    0 -0.61294653241E+02  0.14800107783E+03 -0.18663113216E+03  0.24598781564E+03  0.41800000000E+01 0.  1.
         -5    1    4    4    0  501  0.18021865565E+01  0.12572611337E+02 -0.15862479336E+03  0.15918736100E+03  0.41800000000E+01 0.  1.
</event>
<event>
11    1  0.1003949E-008  0.1420071E+03  0.7561462E-02  0.1105338E+00
         22   -1    0    0    0    0  0.00000000000E+00  0.00000000000E+00  0.94356104990E+03  0.94356104990E+03  0.00000000000E+00 0.  1.
         22   -1    0    0    0    0 -0.00000000000E+00 -0.00000000000E+00 -0.90086083088E+02  0.90086083088E+02  0.00000000000E+00 0. -1.
        -24    2    1    2    0    0  0.74136006272E+01 -0.63233307539E+02 -0.18496463226E+02  0.10417952194E+03  0.80360693020E+02 0.  0.
         25    2    1    2    0    0 -0.87534650155E+01  0.84672192720E+02  0.18981774579E+03  0.24274518940E+03  0.12509375281E+03 0.  0.
         24    2    1    2    0    0  0.13398643884E+01 -0.21438885182E+02  0.68215368424E+03  0.68672242165E+03  0.76109226960E+02 0.  0.
        -11    1    5    5    0    0 -0.33026372356E+02 -0.28735771087E+02  0.40080713569E+03  0.40319083054E+03  0.00000000000E+00 0.  1.
         12    1    5    5    0    0  0.34366236744E+02  0.72968859058E+01  0.28134654855E+03  0.28353159110E+03  0.00000000000E+00 0. -1.
         11    1    3    3    0    0 -0.13530917521E+02 -0.42573779564E+02  0.25360757564E+02  0.51369061307E+02  0.00000000000E+00 0. -1.
        -12    1    3    3    0    0  0.20944518148E+02 -0.20659527975E+02 -0.43857220790E+02  0.52810460630E+02  0.00000000000E+00 0.  1.
          5    1    4    4  501    0 -0.19212757352E+02  0.24414936669E+02  0.17746449523E+03  0.18021192704E+03  0.41800000000E+01 0. -1.
         -5    1    4    4    0  501  0.10459292336E+02  0.60257256052E+02  0.12353250558E+02  0.62533262368E+02  0.41800000000E+01 0. -1.
</event>
<event>
11    1  0.1003949E-008  0.1556062E+03  0.7561462E-02  0.1091284E+00
         22   -1    0    0    0    0  0.00000000000E+00  0.00000000000E+00  0.29761167117E+03  0.29761167117E+03  0.00000000000E+00 0. -1.
         22   -1    0    0    0    0 -0.00000000000E+00 -0.00000000000E+00 -0.53542922466E+03  0.53542922466E+03  0.00000000000E+00 0.  1.
         24    2    1    2    0    0  0.38309269009E+02  0.81251662405E+02 -0.41611536283E+03  0.43308809716E+03  0.79648427370E+02 0.  0.
         25    2    1    2    0    0 -0.79820483369E+02 -0.90366808770E+02 -0.27685512488E+02  0.17592565214E+03  0.12508348327E+03 0.  0.
        -24    2    1    2    0    0  0.41511214360E+02  0.91151463648E+01  0.20598332182E+03  0.22402714652E+03  0.77154174865E+02 0.  0.
        -11    1    3    3    0    0  0.24841552358E+02  0.96495272595E+02 -0.33973106381E+03  0.35404185638E+03  0.00000000000E+00 0.  1.
         12    1    3    3    0    0  0.13467716652E+02 -0.15243610190E+02 -0.76384299025E+02  0.79046240777E+02  0.00000000000E+00 0. -1.
         11    1    5    5    0    0  0.52311647263E+02  0.33012003946E+02  0.14563696947E+03  0.15822903564E+03  0.00000000000E+00 0. -1.
        -12    1    5    5    0    0 -0.10800432903E+02 -0.23896857581E+02  0.60346352356E+02  0.65798110883E+02  0.00000000000E+00 0.  1.
          5    1    4    4  501    0 -0.88649507031E+02 -0.10109938731E+03  0.10638198759E+02  0.13494615550E+03  0.41800000000E+01 0.  1.
         -5    1    4    4    0  501  0.88290236620E+01  0.10732578545E+02 -0.38323711246E+02  0.40979496639E+02  0.41800000000E+01 0.  1.
</event>
<event>
11    1  0.1003949E-008  0.1452489E+03  0.7561462E-02  0.1101835E+00
         22   -1    0    0    0    0  0.00000000000E+00  0.00000000000E+00  0.49106486989E+03  0.49106486989E+03  0.00000000000E+00 0.  1.
         22   -1    0    0    0    0 -0.00000000000E+00 -0.00000000000E+00 -0.41173683098E+03  0.41173683098E+03  0.00000000000E+00 0. -1.
         24    2    1    2    0    0  0.16473969018E+02 -0.43296229763E+02 -0.32812822350E+03  0.34114369333E+03  0.81024275850E+02 0.  0.
         25    2    1    2    0    0  0.51931809553E+02  0.70495739592E+02  0.13955808940E+02  0.15332907042E+03  0.12509387310E+03 0.  0.
        -24    2    1    2    0    0 -0.68405778571E+02 -0.27199509829E+02  0.39350045347E+03  0.40832893712E+03  0.80440972951E+02 0.  0.
        -11    1    3    3    0    0  0.46394627185E+02 -0.92552273615E+01 -0.14665631254E+03  0.15409800347E+03  0.00000000000E+00 0.  1.
         12    1    3    3    0    0 -0.29920658166E+02 -0.34041002402E+02 -0.18147191096E+03  0.18704568986E+03  0.00000000000E+00 0. -1.
         11    1    5    5    0    0 -0.13821798919E+02 -0.13637794575E+02  0.12263922738E+02  0.22965961054E+02  0.00000000000E+00 0. -1.
        -12    1    5    5    0    0 -0.54583979653E+02 -0.13561715254E+02  0.38123653073E+03  0.38536297606E+03  0.00000000000E+00 0.  1.
          5    1    4    4  501    0 -0.38534622192E+02  0.66469252251E+01  0.16115730584E+02  0.42500445818E+02  0.41800000000E+01 0. -1.
         -5    1    4    4    0  501  0.90466431746E+02  0.63848814367E+02 -0.21599216447E+01  0.11082862460E+03  0.41800000000E+01 0. -1.
</event>
<event>
11    1  0.1003949E-008  0.1352399E+03  0.7561462E-02  0.1112993E+00
         22   -1    0    0    0    0  0.00000000000E+00  0.00000000000E+00  0.50282648435E+03  0.50282648435E+03  0.00000000000E+00 0. -1.
         22   -1    0    0    0    0 -0.00000000000E+00 -0.00000000000E+00 -0.48331137535E+03  0.48331137535E+03  0.00000000000E+00 0. -1.
         24    2    1    2    0    0  0.50505871520E+02  0.99013076056E+01 -0.44812244838E+03  0.46346045125E+03  0.10645648026E+03 0.  0.
         25    2    1    2    0    0 -0.49297327095E+02 -0.69606715213E+01  0.18531032873E+03  0.22905454130E+03  0.12508951814E+03 0.  0.
        -24    2    1    2    0    0 -0.12085444249E+01 -0.29406360843E+01  0.28232722864E+03  0.29362286714E+03  0.80595385443E+02 0.  0.
        -13    1    3    3    0    0  0.22770360624E+02 -0.31992506633E+02 -0.57556530100E+02  0.69676136236E+02  0.00000000000E+00 0.  1.
         14    1    3    3    0    0  0.27735510896E+02  0.41893814238E+02 -0.39056591828E+03  0.39378431502E+03  0.00000000000E+00 0. -1.
         11    1    5    5    0    0  0.20736690849E+02 -0.15550565342E+02  0.25523365108E+03  0.25654638386E+03  0.00000000000E+00 0. -1.
        -12    1    5    5    0    0 -0.21945235274E+02  0.12609929257E+02  0.27093577564E+02  0.37076483279E+02  0.00000000000E+00 0.  1.
          5    1    4    4  501    0  0.24695737662E+02  0.32072949630E+01  0.13855998191E+03  0.14084213570E+03  0.41800000000E+01 0.  1.
         -5    1    4    4    0  501 -0.73993064757E+02 -0.10167966484E+02  0.46750346816E+02  0.88212405601E+02  0.41800000000E+01 0.  1.
</event>
<event>
11    1  0.1003949E-008  0.1964352E+03  0.7561462E-02  0.1057074E+00
         22   -1    0    0    0    0  0.00000000000E+00  0.00000000000E+00  0.29364544399E+03  0.29364544399E+03  0.00000000000E+00 0.  1.
         22   -1    0    0    0    0 -0.00000000000E+00 -0.00000000000E+00 -0.62929837308E+03  0.62929837308E+03  0.00000000000E+00 0. -1.
         24    2    1    2    0    0 -0.12372851495E+03 -0.95270750484E+02 -0.49100794256E+03  0.52140056625E+03  0.79903000686E+02 0.  0.
         25    2    1    2    0    0  0.10666627273E+03  0.73807154302E+02 -0.44083337081E+02  0.18551749601E+03  0.12509280936E+03 0.  0.
        -24    2    1    2    0    0  0.17062242222E+02  0.21463596181E+02  0.19943835055E+03  0.21602575481E+03  0.78356014435E+02 0.  0.
        -13    1    3    3    0    0  0.10243826828E+00 -0.84614794785E+01 -0.12628193596E+03  0.12656513927E+03  0.00000000000E+00 0.  1.
         14    1    3    3    0    0 -0.12383095322E+03 -0.86809271005E+02 -0.36472600660E+03  0.39483542698E+03  0.00000000000E+00 0. -1.
         13    1    5    5    0    0 -0.10074698671E+02 -0.20922166807E+02  0.23528698572E+02  0.33058074259E+02  0.00000000000E+00 0. -1.
        -14    1    5    5    0    0  0.27136940893E+02  0.42385762989E+02  0.17590965198E+03  0.18296768055E+03  0.00000000000E+00 0.  1.
          5    1    4    4  501    0  0.49393556352E+02  0.17609308250E+02 -0.81406133632E+02  0.96923898700E+02  0.41800000000E+01 0.  1.
         -5    1    4    4    0  501  0.57272716378E+02  0.56197846052E+02  0.37322796551E+02  0.88593597311E+02  0.41800000000E+01 0.  1.
</event>
<event>
11    1  0.1003949E-008  0.1500861E+03  0.7561462E-02  0.1096791E+00
         22   -1    0    0    0    0  0.00000000000E+00  0.00000000000E+00  0.17467162248E+03  0.17467162248E+03  0.00000000000E+00 0.  1.
         22   -1    0    0    0    0 -0.00000000000E+00 -0.00000000000E+00 -0.15407152230E+04  0.15407152230E+04  0.00000000000E+00 0. -1.
         24    2    1    2    0    0  0.65202637558E+02 -0.49211160220E+02 -0.12670687190E+04  0.12720911301E+04  0.77971676893E+02 0.  0.
         25    2    1    2    0    0 -0.67004939618E+02  0.68397285468E+02 -0.23632727447E+03  0.28401665236E+03  0.12508807924E+03 0.  0.
        -24    2    1    2    0    0  0.18023020591E+01 -0.19186125249E+02  0.13735239298E+03  0.15927906298E+03  0.78312095814E+02 0.  0.
        -11    1    3    3    0    0  0.12264443269E+02  0.18194499646E+02 -0.13392127497E+03  0.13570690577E+03  0.00000000000E+00 0.  1.
         12    1    3    3    0    0  0.52938194289E+02 -0.67405659866E+02 -0.11331474441E+04  0.11363842244E+04  0.00000000000E+00 0. -1.
         13    1    5    5    0    0  0.81622420183E+01 -0.24193574145E+02  0.41947490546E+01  0.25875609061E+02  0.00000000000E+00 0. -1.
        -14    1    5    5    0    0 -0.63599399592E+01  0.50074488964E+01  0.13315764393E+03  0.13340345392E+03  0.00000000000E+00 0.  1.
          5    1    4    4  501    0 -0.10414846860E+03  0.46143463759E+02 -0.16827976311E+03  0.20325273388E+03  0.41800000000E+01 0.  1.
         -5    1    4    4    0  501  0.37143528980E+02  0.22253821709E+02 -0.68047511360E+02  0.80763918479E+02  0.41800000000E+01 0.  1.
</event>
<event>
11    1  0.1003949E-008  0.1648292E+03  0.7561462E-02  0.1082621E+00
         22   -1    0    0    0    0  0.00000000000E+00  0.00000000000E+00  0.11467429286E+04  0.11467429286E+04  0.00000000000E+00 0.  1.
         22   -1    0    0    0    0 -0.00000000000E+00 -0.00000000000E+00 -0.15586861390E+03  0.15586861390E+03  0.00000000000E+00 0. -1.
        -24    2    1    2    0    0  0.53776291296E+02 -0.18428228819E+02 -0.11400681205E+03  0.15327691060E+03  0.85233614293E+02 0.  0.
         25    2    1    2    0    0 -0.36307406378E+02 -0.95232363042E+02  0.43139850476E+03  0.46058613718E+03  0.12508992417E+03 0.  0.
         24    2    1    2    0    0 -0.17468884918E+02  0.11366059186E+03  0.67348262197E+03  0.68874849471E+03  0.87015830686E+02 0.  0.
        -13    1    5    5    0    0  0.22006813441E+02  0.92787048477E+02  0.52886498313E+03  0.53739362351E+03  0.00000000000E+00 0.  1.
         14    1    5    5    0    0 -0.39475698359E+02  0.20873543384E+02  0.14461763883E+03  0.15135487120E+03  0.00000000000E+00 0. -1.
         11    1    3    3    0    0  0.26749819946E+02 -0.35046741874E+01 -0.11898493882E+03  0.12200512806E+03  0.00000000000E+00 0. -1.
        -12    1    3    3    0    0  0.27026471350E+02 -0.14923554632E+02  0.49781267716E+01  0.31271782531E+02  0.00000000000E+00 0.  1.
          5    1    4    4  501    0  0.92200310708E+01  0.37217424040E+01  0.24062510394E+03  0.24086671290E+03  0.41800000000E+01 0. -1.
         -5    1    4    4    0  501 -0.45527437449E+02 -0.98954105446E+02  0.19077340082E+03  0.21971942428E+03  0.41800000000E+01 0. -1.
</event>
<event>
11    1  0.1003949E-008  0.1557503E+03  0.7561462E-02  0.1091144E+00
         22   -1    0    0    0    0  0.00000000000E+00  0.00000000000E+00  0.20660628560E+04  0.20660628560E+04  0.00000000000E+00 0. -1.
         22   -1    0    0    0    0 -0.00000000000E+00 -0.00000000000E+00 -0.56456503867E+03  0.56456503867E+03  0.00000000000E+00 0. -1.
         24    2    1    2    0    0  0.66009835134E+02  0.61307127617E+02 -0.54754425750E+03  0.56068955752E+03  0.80325610871E+02 0.  0.
         25    2    1    2    0    0 -0.11225080410E+03  0.19983525092E+02  0.12120639078E+04  0.12238250875E+04  0.12509733740E+03 0.  0.
        -24    2    1    2    0    0  0.46240968964E+02 -0.81290652709E+02  0.83697816703E+03  0.84611324968E+03  0.81417330936E+02 0.  0.
        -11    1    3    3    0    0  0.52524515926E+02  0.24225712797E+02 -0.14343697026E+03  0.15466051329E+03  0.00000000000E+00 0.  1.
         12    1    3    3    0    0  0.13485319208E+02  0.37081414820E+02 -0.40410728724E+03  0.40602904423E+03  0.00000000000E+00 0. -1.
         13    1    5    5    0    0  0.12962719796E+02 -0.86951499465E+01  0.48242989735E+03  0.48268234233E+03  0.00000000000E+00 0. -1.
        -14    1    5    5    0    0  0.33278249168E+02 -0.72595502762E+02  0.35454826968E+03  0.36343090735E+03  0.00000000000E+00 0.  1.
          5    1    4    4  501    0 -0.65163592636E+02 -0.11022191561E+02  0.21058210952E+03  0.22074890659E+03  0.41800000000E+01 0. -1.
         -5    1    4    4    0  501 -0.47087211463E+02  0.31005716653E+02  0.10014817983E+04  0.10030761809E+04  0.41800000000E+01 0. -1.
</event>
<event>
11    1  0.1003949E-008  0.4985035E+03  0.7561462E-02  0.9396872E-01
         22   -1    0    0    0    0  0.00000000000E+00  0.00000000000E+00  0.38463085720E+04  0.38463085720E+04  0.00000000000E+00 0.  1.
         22   -1    0    0    0    0 -0.00000000000E+00 -0.00000000000E+00 -0.91612184525E+02  0.91612184525E+02  0.00000000000E+00 0.  1.
         24    2    1    2    0    0  0.56092091511E+02  0.85363505642E+02  0.35493359997E+03  0.37793336406E+03  0.80140604293E+02 0.  0.
         25    2    1    2    0    0 -0.51695495874E+03  0.13468604157E+00  0.12533481009E+04  0.13615334422E+04  0.12509758104E+03 0.  0.
        -24    2    1    2    0    0  0.46086286723E+03 -0.85498191684E+02  0.21464146867E+04  0.21984539503E+04  0.79995257638E+02 0.  0.
        -13    1    3    3    0    0  0.21873984334E+02 -0.78004004847E+01  0.13026790730E+03  0.13232174844E+03  0.00000000000E+00 0.  1.
         14    1    3    3    0    0  0.34218107177E+02  0.93163906127E+02  0.22466569266E+03  0.24561161561E+03  0.00000000000E+00 0. -1.
         13    1    5    5    0    0  0.21512570288E+03 -0.48051733540E+02  0.82969607265E+03  0.85847749540E+03  0.00000000000E+00 0. -1.
        -14    1    5    5    0    0  0.24573716435E+03 -0.37446458144E+02  0.13167186140E+04  0.13399764549E+04  0.00000000000E+00 0.  1.
          5    1    4    4  501    0 -0.23696097476E+03  0.44375013421E+02  0.68916729108E+03  0.73012921656E+03  0.41800000000E+01 0.  1.
         -5    1    4    4    0  501 -0.27999398397E+03 -0.44240327379E+02  0.56418080978E+03  0.63140422564E+03  0.41800000000E+01 0.  1.
</event>
<event>
11    1  0.1003949E-008  0.1432125E+03  0.7561462E-02  0.1104023E+00
         22   -1    0    0    0    0  0.00000000000E+00  0.00000000000E+00  0.12718592682E+04  0.12718592682E+04  0.00000000000E+00 0. -1.
         22   -1    0    0    0    0 -0.00000000000E+00 -0.00000000000E+00 -0.16980408068E+03  0.16980408068E+03  0.00000000000E+00 0. -1.
         24    2    1    2    0    0 -0.63784569896E+02 -0.32706689892E+02 -0.55553293333E+02  0.12472105932E+03  0.85621114899E+02 0.  0.
         25    2    1    2    0    0  0.42167978691E+02  0.56991097400E+02 -0.11054572318E+02  0.14420852159E+03  0.12509104892E+03 0.  0.
        -24    2    1    2    0    0  0.21616591205E+02 -0.24284407508E+02  0.11686630532E+04  0.11727337680E+04  0.92055142227E+02 0.  0.
        -11    1    3    3    0    0 -0.18162316326E+02  0.26323020737E+02 -0.46953091629E+00  0.31984240093E+02  0.00000000000E+00 0.  1.
         12    1    3    3    0    0 -0.45622253570E+02 -0.59029710629E+02 -0.55083762417E+02  0.92736819224E+02  0.00000000000E+00 0. -1.
         11    1    5    5    0    0  0.35158426761E+02  0.26819655145E+02  0.59419360437E+03  0.59583676317E+03  0.00000000000E+00 0. -1.
        -12    1    5    5    0    0 -0.13541835557E+02 -0.51104062652E+02  0.57446944879E+03  0.57689700478E+03  0.00000000000E+00 0.  1.
          5    1    4    4  501    0 -0.32865234919E+02  0.59511025334E+02  0.62995290975E+00  0.68114279290E+02  0.41800000000E+01 0.  1.
         -5    1    4    4    0  501  0.75033213610E+02 -0.25199279341E+01 -0.11684525228E+02  0.76094242300E+02  0.41800000000E+01 0.  1.
</event>
<event>
11    1  0.1003949E-008  0.1331582E+03  0.7561462E-02  0.1115448E+00
         22   -1    0    0    0    0  0.00000000000E+00  0.00000000000E+00  0.47915734354E+03  0.47915734354E+03  0.00000000000E+00 0.  1.
         22   -1    0    0    0    0 -0.00000000000E+00 -0.00000000000E+00 -0.12703628609E+03  0.12703628609E+03  0.00000000000E+00 0.  1.
        -24    2    1    2    0    0  0.34846379956E+02  0.13911710936E+01 -0.64470072179E+02  0.10984704473E+03  0.81815508773E+02 0.  0.
         25    2    1    2    0    0 -0.13380095222E+02 -0.44023235187E+02  0.10013813606E+03  0.16670933363E+03  0.12508910202E+03 0.  0.
         24    2    1    2    0    0 -0.21466284735E+02  0.42632064093E+02  0.31645299357E+03  0.32963725127E+03  0.78993202349E+02 0.  0.
        -13    1    5    5    0    0 -0.16055706832E+02 -0.10450772798E+02  0.20685950900E+03  0.20774470111E+03  0.00000000000E+00 0.  1.
         14    1    5    5    0    0 -0.54105779029E+01  0.53082836891E+02  0.10959348457E+03  0.12189255016E+03  0.00000000000E+00 0. -1.
         11    1    3    3    0    0 -0.26547242214E+02  0.10251830135E+01 -0.12282815158E+02  0.29269004384E+02  0.00000000000E+00 0. -1.
        -12    1    3    3    0    0  0.61393622171E+02  0.36598808016E+00 -0.52187257021E+02  0.80578040345E+02  0.00000000000E+00 0.  1.
          5    1    4    4  501    0 -0.66102473009E+02 -0.75297237345E+01  0.35324876991E+02  0.75442382066E+02  0.41800000000E+01 0.  1.
         -5    1    4    4    0  501  0.52722377787E+02 -0.36493511452E+02  0.64813259065E+02  0.91266951567E+02  0.41800000000E+01 0.  1.
</event>
<event>
11    1  0.1003949E-008  0.4494410E+03  0.7561462E-02  0.9514184E-01
         22   -1    0    0    0    0  0.00000000000E+00  0.00000000000E+00  0.38990799042E+03  0.38990799042E+03  0.00000000000E+00 0. -1.
         22   -1    0    0    0    0 -0.00000000000E+00 -0.00000000000E+00 -0.93243141150E+03  0.93243141150E+03  0.00000000000E+00 0. -1.
         24    2    1    2    0    0  0.39399000639E+03 -0.19725440443E+03 -0.55335313416E+03  0.71096245668E+03  0.71627498299E+02 0.  0.
         25    2    1    2    0    0 -0.37227530512E+03  0.17972163420E+03 -0.12644033837E+03  0.45002453274E+03  0.12508458059E+03 0.  0.
        -24    2    1    2    0    0 -0.21714701268E+02  0.17532770230E+02  0.13727005144E+03  0.16135241250E+03  0.80078759446E+02 0.  0.
        -11    1    3    3    0    0  0.14943688036E+03 -0.10857716673E+03 -0.25920054849E+03  0.31828494574E+03  0.00000000000E+00 0.  1.
         12    1    3    3    0    0  0.24455312603E+03 -0.88677237700E+02 -0.29415258567E+03  0.39267751094E+03  0.00000000000E+00 0. -1.
         11    1    5    5    0    0  0.21366323967E+02  0.27075178703E+02  0.31351049867E+02  0.46609799714E+02  0.00000000000E+00 0. -1.
        -12    1    5    5    0    0 -0.43081025235E+02 -0.95424084727E+01  0.10591900158E+03  0.11474261279E+03  0.00000000000E+00 0.  1.
          5    1    4    4  501    0 -0.28081925357E+03  0.73015374624E+02 -0.69922268469E+02  0.29849169860E+03  0.41800000000E+01 0. -1.
         -5    1    4    4    0  501 -0.91456051554E+02  0.10670625957E+03 -0.56518069897E+02  0.15153283414E+03  0.41800000000E+01 0. -1.
</event>
<event>
11    1  0.1003949E-008  0.2234919E+03  0.7561462E-02  0.1039052E+00
         22   -1    0    0    0    0  0.00000000000E+00  0.00000000000E+00  0.55210299847E+03  0.55210299847E+03  0.00000000000E+00 0. -1.
         22   -1    0    0    0    0 -0.00000000000E+00 -0.00000000000E+00 -0.58008132739E+03  0.58008132739E+03  0.00000000000E+00 0. -1.
         24    2    1    2    0    0 -0.14050179932E+02  0.10136846121E+02 -0.48707254266E+03  0.49394723304E+03  0.80274803065E+02 0.  0.
         25    2    1    2    0    0  0.10513984264E+03  0.15176332340E+03  0.14910383364E+03  0.26826552886E+03  0.12509175805E+03 0.  0.
        -24    2    1    2    0    0 -0.91089662704E+02 -0.16190016952E+03  0.30999038010E+03  0.36997156395E+03  0.79220772772E+02 0.  0.
        -11    1    3    3    0    0  0.22964150588E+02  0.31649565058E+02 -0.21500830755E+03  0.21853516764E+03  0.00000000000E+00 0.  1.
         12    1    3    3    0    0 -0.37014330521E+02 -0.21512718937E+02 -0.27206423511E+03  0.27541206540E+03  0.00000000000E+00 0. -1.
         13    1    5    5    0    0 -0.30991769003E+02 -0.95874683503E+02  0.22577667083E+03  0.24723986283E+03  0.00000000000E+00 0. -1.
        -14    1    5    5    0    0 -0.60097893702E+02 -0.66025486018E+02  0.84213709268E+02  0.12273170112E+03  0.00000000000E+00 0.  1.
          5    1    4    4  501    0 -0.17953458200E+02  0.70229611158E+02  0.30166918338E+02  0.78625951866E+02  0.41800000000E+01 0. -1.
         -5    1    4    4    0  501  0.12309330084E+03  0.81533712242E+02  0.11893691530E+03  0.18963957700E+03  0.41800000000E+01 0. -1.
</event>
<event>
11    1  0.1003949E-008  0.2006466E+03  0.7561462E-02  0.1054067E+00
         22   -1    0    0    0    0  0.00000000000E+00  0.00000000000E+00  0.93192815637E+02  0.93192815637E+02  0.00000000000E+00 0. -1.
         22   -1    0    0    0    0 -0.00000000000E+00 -0.00000000000E+00 -0.20225544445E+04  0.20225544445E+04  0.00000000000E+00 0. -1.
         24    2    1    2    0    0 -0.40585475598E+02 -0.54495126785E+02 -0.75577546946E+03  0.76317426875E+03  0.81372627902E+02 0.  0.
         25    2    1    2    0    0 -0.99940577272E+02 -0.25571170481E+02 -0.11585198694E+04  0.11698117412E+04  0.12509683568E+03 0.  0.
        -24    2    1    2    0    0  0.14052605287E+03  0.80066297266E+02 -0.15066289996E+02  0.18276125019E+03  0.83764538928E+02 0.  0.
        -13    1    3    3    0    0 -0.47006806147E+02 -0.37761490547E+02 -0.25323590515E+03  0.26031518137E+03  0.00000000000E+00 0.  1.
         14    1    3    3    0    0  0.64213305492E+01 -0.16733636237E+02 -0.50253956430E+03  0.50285908738E+03  0.00000000000E+00 0. -1.
         11    1    5    5    0    0  0.14115262203E+03  0.71524537299E+02  0.77103914795E+01  0.15842749850E+03  0.00000000000E+00 0. -1.
        -12    1    5    5    0    0 -0.62656916310E+00  0.85417599674E+01 -0.22776681476E+02  0.24333751690E+02  0.00000000000E+00 0.  1.
          5    1    4    4  501    0 -0.81886637086E+02 -0.69931834933E+02 -0.93438027711E+03  0.94057421692E+03  0.41800000000E+01 0.  1.
         -5    1    4    4    0  501 -0.18053940186E+02  0.44360664452E+02 -0.22413959233E+03  0.22923752432E+03  0.41800000000E+01 0.  1.
</event>
<event>
11    1  0.1003949E-008  0.1606998E+03  0.7561462E-02  0.1086421E+00
         22   -1    0    0    0    0  0.00000000000E+00  0.00000000000E+00  0.13126546421E+04  0.13126546421E+04  0.00000000000E+00 0. -1.
         22   -1    0    0    0    0 -0.00000000000E+00 -0.00000000000E+00 -0.42178249779E+03  0.42178249779E+03  0.00000000000E+00 0. -1.
         24    2    1    2    0    0  0.88218704146E+02  0.43709881894E+02 -0.35986113852E+03  0.38130363595E+03  0.78735825606E+02 0.  0.
         25    2    1    2    0    0 -0.14585497973E+03 -0.30572204702E+02  0.14431726490E+03  0.24224660452E+03  0.12509040586E+03 0.  0.
        -24    2    1    2    0    0  0.57636275585E+02 -0.13137677193E+02  0.11064160180E+04  0.11108868995E+04  0.80117162819E+02 0.  0.
        -11    1    3    3    0    0  0.63232463878E+02  0.66513625292E+02 -0.27683961772E+03  0.29165490014E+03  0.00000000000E+00 0.  1.
         12    1    3    3    0    0  0.24986240268E+02 -0.22803743397E+02 -0.83021520800E+02  0.89648735805E+02  0.00000000000E+00 0. -1.
         11    1    5    5    0    0 -0.64984150219E+01  0.13066915736E+02  0.54733652931E+03  0.54753104935E+03  0.00000000000E+00 0. -1.
        -12    1    5    5    0    0  0.64134690607E+02 -0.26204592929E+02  0.55907948867E+03  0.56335585013E+03  0.00000000000E+00 0.  1.
          5    1    4    4  501    0 -0.10338797728E+03 -0.57267547177E+02  0.15064019075E+03  0.19151654047E+03  0.41800000000E+01 0. -1.
         -5    1    4    4    0  501 -0.42467002449E+02  0.26695342476E+02 -0.63229258404E+01  0.50730064045E+02  0.41800000000E+01 0. -1.
</event>
<event>
11    1  0.1003949E-008  0.1404127E+03  0.7561462E-02  0.1107098E+00
         22   -1    0    0    0    0  0.00000000000E+00  0.00000000000E+00  0.37468069032E+03  0.37468069032E+03  0.00000000000E+00 0. -1.
         22   -1    0    0    0    0 -0.00000000000E+00 -0.00000000000E+00 -0.85454483188E+03  0.85454483188E+03  0.00000000000E+00 0.  1.
         24    2    1    2    0    0 -0.61174180915E+02  0.20197721933E+02 -0.79215809239E+03  0.79878517075E+03  0.79956721308E+02 0.  0.
         25    2    1    2    0    0  0.54156755942E+02  0.15676824840E+02  0.36365748762E+02  0.14194247531E+03  0.12508589673E+03 0.  0.
        -24    2    1    2    0    0  0.70174249728E+01 -0.35874546774E+02  0.27592820207E+03  0.28849787615E+03  0.75884283508E+02 0.  0.
        -13    1    3    3    0    0  0.27160809303E+01  0.21782709489E+01 -0.46233180969E+03  0.46234491909E+03  0.00000000000E+00 0.  1.
         14    1    3    3    0    0 -0.63890261845E+02  0.18019450984E+02 -0.32982628270E+03  0.33644025166E+03  0.00000000000E+00 0. -1.
         13    1    5    5    0    0  0.15428109872E+02 -0.58210000201E+02  0.18981914470E+03  0.19914250774E+03  0.00000000000E+00 0. -1.
        -14    1    5    5    0    0 -0.84106848993E+01  0.22335453427E+02  0.86109057378E+02  0.89355368405E+02  0.00000000000E+00 0.  1.
          5    1    4    4  501    0  0.22749842656E+02 -0.28450098653E+02 -0.36047009213E+02  0.51418116724E+02  0.41800000000E+01 0.  1.
         -5    1    4    4    0  501  0.31406913286E+02  0.44126923493E+02  0.72412757974E+02  0.90524358582E+02  0.41800000000E+01 0.  1.
</event>
<event>
11    1  0.1003949E-008  0.1441331E+03  0.7561462E-02  0.1103029E+00
         22   -1    0    0    0    0  0.00000000000E+00  0.00000000000E+00  0.94781392833E+03  0.94781392833E+03  0.00000000000E+00 0.  1.
         22   -1    0    0    0    0 -0.00000000000E+00 -0.00000000000E+00 -0.53078504989E+03  0.53078504989E+03  0.00000000000E+00 0.  1.
         24    2    1    2    0    0  0.29074065295E+02  0.65526125206E+02 -0.51084824901E+03  0.52204712248E+03  0.80176618895E+02 0.  0.
         25    2    1    2    0    0 -0.46768720910E+02 -0.49839619281E+02  0.47322133956E+03  0.49422340708E+03  0.12508812489E+03 0.  0.
        -24    2    1    2    0    0  0.17694655616E+02 -0.15686505924E+02  0.45465578789E+03  0.46232844865E+03  0.80476963536E+02 0.  0.
        -13    1    3    3    0    0 -0.20324297854E+02  0.47318952568E+02 -0.31794222258E+03  0.32208604015E+03  0.00000000000E+00 0.  1.
         14    1    3    3    0    0  0.49398363149E+02  0.18207172637E+02 -0.19290602643E+03  0.19996108234E+03  0.00000000000E+00 0. -1.
         11    1    5    5    0    0  0.35848026603E+02 -0.39700691922E+02  0.27220661357E+03  0.27741244821E+03  0.00000000000E+00 0. -1.
        -12    1    5    5    0    0 -0.18153370988E+02  0.24014185997E+02  0.18244917432E+03  0.18491600043E+03  0.00000000000E+00 0.  1.
          5    1    4    4  501    0  0.14529280972E+00  0.22403527586E+02  0.29858465309E+03  0.29945317934E+03  0.41800000000E+01 0.  1.
         -5    1    4    4    0  501 -0.46914013720E+02 -0.72243146867E+02  0.17463668647E+03  0.19477022774E+03  0.41800000000E+01 0.  1.
</event>
<event>
11    1  0.1003949E-008  0.2449435E+03  0.7561462E-02  0.1026628E+00
         22   -1    0    0    0    0  0.00000000000E+00  0.00000000000E+00  0.56549179612E+03  0.56549179612E+03  0.00000000000E+00 0.  1.
         22   -1    0    0    0    0 -0.00000000000E+00 -0.00000000000E+00 -0.25644721547E+04  0.25644721547E+04  0.00000000000E+00 0. -1.
        -24    2    1    2    0    0 -0.49075556473E+02 -0.25534672572E+02 -0.10211116071E+04  0.10256480138E+04  0.78895527933E+02 0.  0.
         25    2    1    2    0    0  0.23232339651E+03 -0.77323969331E+02 -0.15055983147E+04  0.15304986179E+04  0.12508627987E+03 0.  0.
         24    2    1    2    0    0 -0.18324784004E+03  0.10285864190E+03  0.52772956317E+03  0.57381731915E+03  0.81290545673E+02 0.  0.
        -11    1    5    5    0    0 -0.12664506301E+03  0.92554813467E+02  0.29533588121E+03  0.33440790692E+03  0.00000000000E+00 0.  1.
         12    1    5    5    0    0 -0.56602777031E+02  0.10303828437E+02  0.23239368196E+03  0.23940941223E+03  0.00000000000E+00 0. -1.
         11    1    3    3    0    0 -0.49695676758E+02 -0.38722159705E+02 -0.98792625644E+03  0.98993300486E+03  0.00000000000E+00 0. -1.
        -12    1    3    3    0    0  0.62012028523E+00  0.13187487133E+02 -0.33185350675E+02  0.35715008967E+02  0.00000000000E+00 0.  1.
          5    1    4    4  501    0  0.97930119780E+02 -0.87545535141E+02 -0.55292268973E+03  0.56832693258E+03  0.41800000000E+01 0.  1.
         -5    1    4    4    0  501  0.13439327673E+03  0.10221565809E+02 -0.95267562494E+03  0.96217168530E+03  0.41800000000E+01 0.  1.
</event>
<event>
11    1  0.1003949E-008  0.1388137E+03  0.7561462E-02  0.1108890E+00
         22   -1    0    0    0    0  0.00000000000E+00  0.00000000000E+00  0.60794849212E+03  0.60794849212E+03  0.00000000000E+00 0.  1.
         22   -1    0    0    0    0 -0.00000000000E+00 -0.00000000000E+00 -0.26197946365E+03  0.26197946365E+03  0.00000000000E+00 0. -1.
        -24    2    1    2    0    0 -0.33274585232E+02 -0.48817828642E+02 -0.22242543945E+03  0.24388970483E+03  0.80738674694E+02 0.  0.
         25    2    1    2    0    0  0.69375929139E+02  0.56933868636E+02  0.23234315539E+03  0.27872155290E+03  0.12509147554E+03 0.  0.
         24    2    1    2    0    0 -0.36101343907E+02 -0.81160399932E+01  0.33605131254E+03  0.34731669804E+03  0.79556438701E+02 0.  0.
        -13    1    5    5    0    0 -0.18628343984E+02 -0.39686645677E+02  0.25292702178E+03  0.25669850680E+03  0.00000000000E+00 0.  1.
         14    1    5    5    0    0 -0.17472999923E+02  0.31570605684E+02  0.83124290759E+02  0.90618191241E+02  0.00000000000E+00 0. -1.
         13    1    3    3    0    0 -0.46486948223E+02 -0.34935744781E+01 -0.15291039338E+03  0.15985878087E+03  0.00000000000E+00 0. -1.
        -14    1    3    3    0    0  0.13212362991E+02 -0.45324254164E+02 -0.69515046077E+02  0.84030923965E+02  0.00000000000E+00 0.  1.
          5    1    4    4  501    0  0.80504275949E+00  0.65037801391E+02  0.18156932215E+03  0.19291307589E+03  0.41800000000E+01 0. -1.
         -5    1    4    4    0  501  0.68570886379E+02 -0.81039327557E+01  0.50773833239E+02  0.85808477010E+02  0.41800000000E+01 0. -1.
</event>
<event>
11    1  0.1163153E-008  0.1728952E+03  0.7561462E-02  0.1075539E+00
         22   -1    0    0    0    0  0.00000000000E+00  0.00000000000E+00  0.10624237801E+03  0.10624237801E+03  0.00000000000E+00 0.  1.
         22   -1    0    0    0    0 -0.00000000000E+00 -0.00000000000E+00 -0.17019560242E+04  0.17019560242E+04  0.00000000000E+00 0. -1.
         24    2    1    2    0    0  0.21851398837E+01  0.18639658955E+02 -0.69654267991E+03  0.70115030383E+03  0.78024559627E+02 0.  0.
         25    2    1    2    0    0 -0.41208504673E+02 -0.13040928731E+03 -0.94102037665E+03  0.95909915339E+03  0.12508842354E+03 0.  0.
        -24    2    1    2    0    0  0.39023364789E+02  0.11176962835E+03  0.41849410333E+02  0.14794894502E+03  0.78244772138E+02 0.  0.
        -13    1    3    3    0    0  0.39956788876E+02  0.76076983791E+01 -0.32774203723E+03  0.33025636257E+03  0.00000000000E+00 0.  1.
         14    1    3    3    0    0 -0.37771648992E+02  0.11031960576E+02 -0.36880064268E+03  0.37089394126E+03  0.00000000000E+00 0. -1.
         11    1    5    5    0    0 -0.10311446601E+02  0.49480332247E+01 -0.13687523313E+02  0.17836963257E+02  0.00000000000E+00 0. -1.
        -12    1    5    5    0    0  0.49334811390E+02  0.10682159513E+03  0.55536933646E+02  0.13011198177E+03  0.00000000000E+00 0.  1.
          5    1    4    4  501    0 -0.83419038370E+02 -0.79535838846E+02 -0.49981367423E+03  0.51294821080E+03  0.41800000000E+01 0.  1.
         -5    1    4    4    0  501  0.42210533697E+02 -0.50873448459E+02 -0.44120670242E+03  0.44615094259E+03  0.41800000000E+01 0.  1.
</event>
<event>
11    1  0.1003949E-008  0.1628614E+03  0.7561462E-02  0.1084416E+00
         22   -1    0    0    0    0  0.00000000000E+00  0.00000000000E+00  0.12459898828E+03  0.12459898828E+03  0.00000000000E+00 0.  1.
         22   -1    0    0    0    0 -0.00000000000E+00 -0.00000000000E+00 -0.32519433715E+03  0.32519433715E+03  0.00000000000E+00 0. -1.
        -24    2    1    2    0    0 -0.20757265279E+02 -0.11590060451E+03 -0.14119889759E+03  0.20052495647E+03  0.80058199445E+02 0.  0.
         25    2    1    2    0    0 -0.47415699216E+01  0.75960147493E+02 -0.15521221038E+02  0.14724303446E+03  0.12508867415E+03 0.  0.
         24    2    1    2    0    0  0.25498835200E+02  0.39940457019E+02 -0.43875230243E+02  0.10202533450E+03  0.78985456557E+02 0.  0.
        -13    1    5    5    0    0  0.15511059531E+02  0.34050252763E+02  0.16249383570E+02  0.40792832059E+02  0.00000000000E+00 0.  1.
         14    1    5    5    0    0  0.99877756691E+01  0.58902042552E+01 -0.60124613813E+02  0.61232502441E+02  0.00000000000E+00 0. -1.
         11    1    3    3    0    0  0.10216514496E+01 -0.73144438473E+02 -0.13307937915E+03  0.15185938827E+03  0.00000000000E+00 0. -1.
        -12    1    3    3    0    0 -0.21778916728E+02 -0.42756166039E+02 -0.81195184380E+01  0.48665568196E+02  0.00000000000E+00 0.  1.
          5    1    4    4  501    0 -0.12147855689E+02  0.98828348502E+02 -0.44685062657E+02  0.10921922949E+03  0.41800000000E+01 0. -1.
         -5    1    4    4    0  501  0.74062857676E+01 -0.22868201009E+02  0.29163841619E+02  0.38023804967E+02  0.41800000000E+01 0. -1.
</event>
<event>
11    1  0.1003949E-008  0.1459314E+03  0.7561462E-02  0.1101110E+00
         22   -1    0    0    0    0  0.00000000000E+00  0.00000000000E+00  0.31850049199E+03  0.31850049199E+03  0.00000000000E+00 0.  1.
         22   -1    0    0    0    0 -0.00000000000E+00 -0.00000000000E+00 -0.18680631336E+04  0.18680631336E+04  0.00000000000E+00 0.  1.
        -24    2    1    2    0    0 -0.49141567192E+02 -0.28431442148E+02 -0.17661575307E+04  0.17693195893E+04  0.89197226889E+02 0.  0.
         25    2    1    2    0    0  0.49078749171E+02  0.99242304253E+02 -0.50606570025E+01  0.16712248762E+03  0.12508619847E+03 0.  0.
         24    2    1    2    0    0  0.62818020603E-01 -0.70810862105E+02  0.22165554607E+03  0.25012154869E+03  0.91735630360E+02 0.  0.
        -11    1    5    5    0    0 -0.47831316244E+01 -0.84118267585E+02  0.22033881354E+03  0.23589818575E+03  0.00000000000E+00 0.  1.
         12    1    5    5    0    0  0.48459496450E+01  0.13307405480E+02  0.13167325251E+01  0.14223362933E+02  0.00000000000E+00 0. -1.
         11    1    3    3    0    0 -0.52139709818E+02 -0.20949171531E+02 -0.50178796344E+03  0.50492432837E+03  0.00000000000E+00 0. -1.
        -12    1    3    3    0    0  0.29981426262E+01 -0.74822706169E+01 -0.12643695672E+04  0.12643952609E+04  0.00000000000E+00 0.  1.
          5    1    4    4  501    0 -0.94084076265E+01 -0.18870192364E+02 -0.25857955960E+02  0.33626010474E+02  0.41800000000E+01 0.  1.
         -5    1    4    4    0  501  0.58487156798E+02  0.11811249662E+03  0.20797298958E+02  0.13349647715E+03  0.41800000000E+01 0.  1.
</event>
<event>
11    1  0.1003949E-008  0.1299632E+03  0.7561462E-02  0.1119314E+00
         22   -1    0    0    0    0  0.00000000000E+00  0.00000000000E+00  0.43563591707E+02  0.43563591707E+02  0.00000000000E+00 0. -1.
         22   -1    0    0    0    0 -0.00000000000E+00 -0.00000000000E+00 -0.11959669241E+04  0.11959669241E+04  0.00000000000E+00 0. -1.
        -24    2    1    2    0    0  0.10242293061E+02  0.32072268647E+02 -0.72250532441E+03  0.72774611564E+03  0.80417224755E+02 0.  0.
         25    2    1    2    0    0  0.47200375681E+01  0.49676968288E+01 -0.39513495419E+03  0.41452019252E+03  0.12509356984E+03 0.  0.
         24    2    1    2    0    0 -0.14962330629E+02 -0.37039965476E+02 -0.34763053743E+02  0.97264207606E+02  0.81584470308E+02 0.  0.
        -13    1    5    5    0    0  0.28612943308E+02 -0.36654486373E+02 -0.24221732543E+02  0.52430375007E+02  0.00000000000E+00 0.  1.
         14    1    5    5    0    0 -0.43575273937E+02 -0.38547910318E+00 -0.10541321199E+02  0.44833832598E+02  0.00000000000E+00 0. -1.
         13    1    3    3    0    0 -0.77563919645E+01  0.16791095457E+02 -0.66908562459E+03  0.66934122504E+03  0.00000000000E+00 0. -1.
        -14    1    3    3    0    0  0.17998685025E+02  0.15281173190E+02 -0.53419699821E+02  0.58404890597E+02  0.00000000000E+00 0.  1.
          5    1    4    4  501    0 -0.26914316716E+02 -0.51306483568E+02 -0.14620671507E+03  0.15732327110E+03  0.41800000000E+01 0.  1.
         -5    1    4    4    0  501  0.31634354284E+02  0.56274180397E+02 -0.24892823913E+03  0.25719692141E+03  0.41800000000E+01 0.  1.
</event>
<event>
11    1  0.1003949E-008  0.7593514E+03  0.7561462E-02  0.8949140E-01
         22   -1    0    0    0    0  0.00000000000E+00  0.00000000000E+00  0.93803821477E+03  0.93803821477E+03  0.00000000000E+00 0.  1.
         22   -1    0    0    0    0 -0.00000000000E+00 -0.00000000000E+00 -0.15367566193E+03  0.15367566193E+03  0.00000000000E+00 0.  1.
         24    2    1    2    0    0 -0.11670490782E+03  0.25540578575E+02  0.18584944717E+03  0.23525256923E+03  0.80817062877E+02 0.  0.
         25    2    1    2    0    0  0.27596551508E+03 -0.14483486464E+03  0.16783368405E+03  0.37543263319E+03  0.12508961999E+03 0.  0.
        -24    2    1    2    0    0 -0.15926060727E+03  0.11929428606E+03  0.43067942162E+03  0.48102867429E+03  0.79427662482E+02 0.  0.
        -13    1    3    3    0    0  0.68459487576E+01 -0.10223336095E+02  0.34514922248E+02  0.36642372646E+02  0.00000000000E+00 0.  1.
         14    1    3    3    0    0 -0.12355085657E+03  0.35763914670E+02  0.15133452492E+03  0.19861019658E+03  0.00000000000E+00 0. -1.
         13    1    5    5    0    0 -0.15843288141E+03  0.10907128590E+03  0.34718554394E+03  0.39690719978E+03  0.00000000000E+00 0. -1.
        -14    1    5    5    0    0 -0.82772585283E+00  0.10223000159E+02  0.83493877684E+02  0.84121474506E+02  0.00000000000E+00 0.  1.
          5    1    4    4  501    0  0.17742301011E+03 -0.81079809502E+02  0.35182471067E+02  0.19826280210E+03  0.41800000000E+01 0. -1.
         -5    1    4    4    0  501  0.98542504969E+02 -0.63755055135E+02  0.13265121298E+03  0.17716983108E+03  0.41800000000E+01 0. -1.
</event>
<event>
11    1  0.1003949E-008  0.4772838E+03  0.7561462E-02  0.9445765E-01
         22   -1    0    0    0    0  0.00000000000E+00  0.00000000000E+00  0.48393490232E+03  0.48393490232E+03  0.00000000000E+00 0. -1.
         22   -1    0    0    0    0 -0.00000000000E+00 -0.00000000000E+00 -0.20225889912E+04  0.20225889912E+04  0.00000000000E+00 0.  1.
        -24    2    1    2    0    0 -0.33744413832E+02 -0.50535077678E+02 -0.86043116146E+03  0.86633018062E+03  0.80583613024E+02 0.  0.
         25    2    1    2    0    0 -0.38032121765E+03  0.25418164722E+03 -0.97634206060E+03  0.10854232661E+04  0.12508920386E+03 0.  0.
         24    2    1    2    0    0  0.41406563148E+03 -0.20364656955E+03  0.29811913323E+03  0.55477044675E+03  0.77284917893E+02 0.  0.
        -11    1    5    5    0    0  0.56202738893E+02 -0.61586566876E+01  0.18303657178E+02  0.59428114368E+02  0.00000000000E+00 0.  1.
         12    1    5    5    0    0  0.35786289259E+03 -0.19748791286E+03  0.27981547605E+03  0.49534233238E+03  0.00000000000E+00 0. -1.
         11    1    3    3    0    0 -0.49568627235E+02 -0.46079729090E+02 -0.81847373174E+03  0.82126709406E+03  0.00000000000E+00 0. -1.
        -12    1    3    3    0    0  0.15824213403E+02 -0.44553485880E+01 -0.41957429724E+02  0.45063086555E+02  0.00000000000E+00 0.  1.
          5    1    4    4  501    0 -0.76308244197E+02  0.30403739088E+02 -0.89388020387E+02  0.12147026826E+03  0.41800000000E+01 0.  1.
         -5    1    4    4    0  501 -0.30401297345E+03  0.22377790814E+03 -0.88695404022E+03  0.96395299784E+03  0.41800000000E+01 0.  1.
</event>
<event>
11    1  0.1003949E-008  0.1264351E+03  0.7561462E-02  0.1123728E+00
         22   -1    0    0    0    0  0.00000000000E+00  0.00000000000E+00  0.42392650514E+03  0.42392650514E+03  0.00000000000E+00 0.  1.
         22   -1    0    0    0    0 -0.00000000000E+00 -0.00000000000E+00 -0.76744588359E+03  0.76744588359E+03  0.00000000000E+00 0.  1.
        -24    2    1    2    0    0 -0.96475329495E+01 -0.15221967418E+02 -0.69967224696E+03  0.70457284124E+03  0.80974392701E+02 0.  0.
         25    2    1    2    0    0  0.22765063320E+02  0.19565074956E+02  0.76924126153E+01  0.12887083928E+03  0.12508988664E+03 0.  0.
         24    2    1    2    0    0 -0.13117530370E+02 -0.43431075377E+01  0.34846045588E+03  0.35792870821E+03  0.80606070849E+02 0.  0.
        -13    1    5    5    0    0  0.22156968160E+02  0.12235745481E+02  0.26041176093E+03  0.26163893047E+03  0.00000000000E+00 0.  1.
         14    1    5    5    0    0 -0.35274498531E+02 -0.16578853019E+02  0.88048694953E+02  0.96289777738E+02  0.00000000000E+00 0. -1.
         11    1    3    3    0    0 -0.25892963555E+02  0.19760228433E+02 -0.14742320895E+03  0.15097852406E+03  0.00000000000E+00 0. -1.
        -12    1    3    3    0    0  0.16245430606E+02 -0.34982195851E+02 -0.55224903801E+03  0.55359431719E+03  0.00000000000E+00 0.  1.
          5    1    4    4  501    0  0.55712888687E+01 -0.50216196305E+02 -0.15870538161E+02  0.53122989492E+02  0.41800000000E+01 0. -1.
         -5    1    4    4    0  501  0.17193774451E+02  0.69781271261E+02  0.23562950776E+02  0.75747849791E+02  0.41800000000E+01 0. -1.
</event>
<event>
11    1  0.1003949E-008  0.1775663E+03  0.7561462E-02  0.1071629E+00
         22   -1    0    0    0    0  0.00000000000E+00  0.00000000000E+00  0.53492504677E+03  0.53492504677E+03  0.00000000000E+00 0. -1.
         22   -1    0    0    0    0 -0.00000000000E+00 -0.00000000000E+00 -0.82028585427E+03  0.82028585427E+03  0.00000000000E+00 0.  1.
        -24    2    1    2    0    0 -0.93088895226E+01  0.40847203363E+02 -0.72572323492E+03  0.73151670658E+03  0.81776089795E+02 0.  0.
         25    2    1    2    0    0 -0.10269105504E+03  0.25254794681E+02  0.67354021963E+01  0.16393930868E+03  0.12508986309E+03 0.  0.
         24    2    1    2    0    0  0.11199994456E+03 -0.66101998045E+02  0.43362702522E+03  0.45975488578E+03  0.80179151056E+02 0.  0.
        -13    1    5    5    0    0  0.79679142780E+02 -0.50353647641E+02  0.17617587597E+03  0.19980539256E+03  0.00000000000E+00 0.  1.
         14    1    5    5    0    0  0.32320801783E+02 -0.15748350404E+02  0.25745114926E+03  0.25994949321E+03  0.00000000000E+00 0. -1.
         11    1    3    3    0    0  0.18029187391E+02  0.18865577451E+01 -0.37520418047E+02  0.41670042819E+02  0.00000000000E+00 0. -1.
        -12    1    3    3    0    0 -0.27338076913E+02  0.38960645618E+02 -0.68820281687E+03  0.68984666376E+03  0.00000000000E+00 0.  1.
          5    1    4    4  501    0 -0.40983650409E+02  0.62006864219E+02 -0.33358992183E+02  0.81576991674E+02  0.41800000000E+01 0. -1.
         -5    1    4    4    0  501 -0.61707404632E+02 -0.36752069537E+02  0.40094394379E+02  0.82362317004E+02  0.41800000000E+01 0. -1.
</event>
<event>
11    1  0.1003949E-008  0.1515884E+03  0.7561462E-02  0.1095267E+00
         22   -1    0    0    0    0  0.00000000000E+00  0.00000000000E+00  0.46682681587E+03  0.46682681587E+03  0.00000000000E+00 0.  1.
         22   -1    0    0    0    0 -0.00000000000E+00 -0.00000000000E+00 -0.37864453600E+03  0.37864453600E+03  0.00000000000E+00 0. -1.
        -24    2    1    2    0    0 -0.22217927961E+01  0.64769121562E+02 -0.31003802477E+03  0.32717343871E+03  0.81968937574E+02 0.  0.
         25    2    1    2    0    0  0.56138096263E+02 -0.11963562764E+03  0.11759992594E+03  0.21665853576E+03  0.12508800616E+03 0.  0.
         24    2    1    2    0    0 -0.53916303467E+02  0.54866506074E+02  0.28062037871E+03  0.30163937740E+03  0.79506073850E+02 0.  0.
        -11    1    5    5    0    0 -0.25978336728E+02  0.36775610063E+02  0.25678143284E+03  0.26069910573E+03  0.00000000000E+00 0.  1.
         12    1    5    5    0    0 -0.27937966739E+02  0.18090896012E+02  0.23838945867E+02  0.40940271666E+02  0.00000000000E+00 0. -1.
         11    1    3    3    0    0 -0.18419325360E+02  0.60688408565E+02 -0.11423992199E+03  0.13066412766E+03  0.00000000000E+00 0. -1.
        -12    1    3    3    0    0  0.16197532564E+02  0.40807129971E+01 -0.19579810278E+03  0.19650931105E+03  0.00000000000E+00 0.  1.
          5    1    4    4  501    0  0.76264333580E+01 -0.11121408829E+03  0.12404304868E+03  0.16682591599E+03  0.41800000000E+01 0.  1.
         -5    1    4    4    0  501  0.48511662905E+02 -0.84215393458E+01 -0.64431227410E+01  0.49832619773E+02  0.41800000000E+01 0.  1.
</event>
<event>
11    1  0.1003949E-008  0.1661484E+03  0.7561462E-02  0.1081433E+00
         22   -1    0    0    0    0  0.00000000000E+00  0.00000000000E+00  0.18835874027E+04  0.18835874027E+04  0.00000000000E+00 0. -1.
         22   -1    0    0    0    0 -0.00000000000E+00 -0.00000000000E+00 -0.74030001094E+02  0.74030001094E+02  0.00000000000E+00 0. -1.
         24    2    1    2    0    0 -0.18567788391E+02  0.57517641476E+02 -0.42527601876E+01  0.10021724761E+03  0.79827118839E+02 0.  0.
         25    2    1    2    0    0 -0.73012612961E+02  0.14771160298E+02  0.26682371485E+03  0.30395943210E+03  0.12508961877E+03 0.  0.
        -24    2    1    2    0    0  0.91580401352E+02 -0.72288801774E+02  0.15469864470E+04  0.15534407241E+04  0.79989846031E+02 0.  0.
        -11    1    3    3    0    0  0.12309884509E+02 -0.16116662794E+02 -0.99732472917E+00  0.20304549561E+02  0.00000000000E+00 0.  1.
         12    1    3    3    0    0 -0.30877672900E+02  0.73634304270E+02 -0.32554354585E+01  0.79912698047E+02  0.00000000000E+00 0. -1.
         13    1    5    5    0    0  0.10268117711E+03 -0.46911082246E+02  0.11677229282E+04  0.11731670430E+04  0.00000000000E+00 0. -1.
        -14    1    5    5    0    0 -0.11100775761E+02 -0.25377719528E+02  0.37926351878E+03  0.38027368111E+03  0.00000000000E+00 0.  1.
          5    1    4    4  501    0 -0.39505197890E+02  0.55768985187E+02  0.22829791156E+03  0.23834481155E+03  0.41800000000E+01 0. -1.
         -5    1    4    4    0  501 -0.33507415071E+02 -0.40997824889E+02  0.38525803293E+02  0.65614620548E+02  0.41800000000E+01 0. -1.
</event>
<event>
11    1  0.1003949E-008  0.1575321E+03  0.7561462E-02  0.1089422E+00
         22   -1    0    0    0    0  0.00000000000E+00  0.00000000000E+00  0.32976563770E+03  0.32976563770E+03  0.00000000000E+00 0.  1.
         22   -1    0    0    0    0 -0.00000000000E+00 -0.00000000000E+00 -0.13606172034E+04  0.13606172034E+04  0.00000000000E+00 0.  1.
         24    2    1    2    0    0  0.25229704310E+02  0.93897984336E+02 -0.12421975053E+04  0.12484670489E+04  0.78498156822E+02 0.  0.
         25    2    1    2    0    0 -0.58250411872E+02 -0.57101562826E+02 -0.52734476685E+02  0.15837836850E+03  0.12509629738E+03 0.  0.
        -24    2    1    2    0    0  0.33020707563E+02 -0.36796421509E+02  0.26408041630E+03  0.28353742367E+03  0.90612695492E+02 0.  0.
        -13    1    3    3    0    0  0.16987392256E+02  0.47298879414E+02 -0.10223302774E+04  0.10235648253E+04  0.00000000000E+00 0.  1.
         14    1    3    3    0    0  0.82423120541E+01  0.46599104921E+02 -0.21986722786E+03  0.22490222358E+03  0.00000000000E+00 0. -1.
         13    1    5    5    0    0 -0.40515230939E+01 -0.26826894315E+02  0.14004976683E+02  0.30532547713E+02  0.00000000000E+00 0. -1.
        -14    1    5    5    0    0  0.37072230656E+02 -0.99695271942E+01  0.25007543961E+03  0.25300487595E+03  0.00000000000E+00 0.  1.
          5    1    4    4  501    0 -0.13204853956E+02 -0.66728335672E+01 -0.82832053545E+02  0.84246758812E+02  0.41800000000E+01 0.  1.
         -5    1    4    4    0  501 -0.45045557917E+02 -0.50428729259E+02  0.30097576860E+02  0.74131609692E+02  0.41800000000E+01 0.  1.
</event>
<event>
11    1  0.1003949E-008  0.1777164E+03  0.7561462E-02  0.1071505E+00
         22   -1    0    0    0    0  0.00000000000E+00  0.00000000000E+00  0.25514573200E+04  0.25514573200E+04  0.00000000000E+00 0. -1.
         22   -1    0    0    0    0 -0.00000000000E+00 -0.00000000000E+00 -0.17303436086E+03  0.17303436086E+03  0.00000000000E+00 0. -1.
        -24    2    1    2    0    0  0.16688070699E+02  0.18004696699E+02 -0.13660641234E+03  0.16086215762E+03  0.81318270116E+02 0.  0.
         25    2    1    2    0    0 -0.96661540058E+02  0.80100951282E+02  0.33987280465E+03  0.38330251487E+03  0.12509068246E+03 0.  0.
         24    2    1    2    0    0  0.79973469359E+02 -0.98105647982E+02  0.21751565668E+04  0.21803270084E+04  0.80618231808E+02 0.  0.
        -13    1    5    5    0    0  0.28967134902E+01 -0.30434625518E+02  0.18335301046E+03  0.18588432916E+03  0.00000000000E+00 0.  1.
         14    1    5    5    0    0  0.77076755869E+02 -0.67671022463E+02  0.19918035564E+04  0.19944426792E+04  0.00000000000E+00 0. -1.
         11    1    3    3    0    0  0.14979321054E+02  0.35355995122E+02 -0.13812304024E+03  0.14336108501E+03  0.00000000000E+00 0. -1.
        -12    1    3    3    0    0  0.17087496455E+01 -0.17351298423E+02  0.15166278986E+01  0.17501072610E+02  0.00000000000E+00 0.  1.
          5    1    4    4  501    0 -0.10897736529E+03  0.99448499355E+02  0.24871066980E+03  0.28920674239E+03  0.41800000000E+01 0.  1.
         -5    1    4    4    0  501  0.12315825235E+02 -0.19347548073E+02  0.91162134850E+02  0.94095772477E+02  0.41800000000E+01 0.  1.
</event>
<event>
11    1  0.1003949E-008  0.1295750E+03  0.7561462E-02  0.1119792E+00
         22   -1    0    0    0    0  0.00000000000E+00  0.00000000000E+00  0.51624019064E+03  0.51624019064E+03  0.00000000000E+00 0. -1.
         22   -1    0    0    0    0 -0.00000000000E+00 -0.00000000000E+00 -0.99690594797E+03  0.99690594797E+03  0.00000000000E+00 0.  1.
         24    2    1    2    0    0 -0.34853389916E+02  0.90123102541E+01 -0.75121242411E+03  0.75668640372E+03  0.83415987205E+02 0.  0.
         25    2    1    2    0    0  0.22612623574E+02  0.11026840282E+02 -0.22244437754E+03  0.25644868603E+03  0.12510597714E+03 0.  0.
        -24    2    1    2    0    0  0.12240766343E+02 -0.20039150536E+02  0.49299104432E+03  0.50001104886E+03  0.80121628067E+02 0.  0.
        -11    1    3    3    0    0 -0.34025015290E+02 -0.32733770601E+02 -0.47422149584E+03  0.47656607991E+03  0.00000000000E+00 0.  1.
         12    1    3    3    0    0 -0.82837462678E+00  0.41746080855E+02 -0.27699092826E+03  0.28012032381E+03  0.00000000000E+00 0. -1.
         11    1    5    5    0    0  0.43269165723E+02  0.10178293356E+01  0.32606154405E+03  0.32892155172E+03  0.00000000000E+00 0. -1.
        -12    1    5    5    0    0 -0.31028399380E+02 -0.21056979872E+02  0.16692950027E+03  0.17108949713E+03  0.00000000000E+00 0.  1.
          5    1    4    4  501    0 -0.17159936698E+02 -0.50760188619E+02 -0.85789156503E+02  0.10123394663E+03  0.41800000000E+01 0.  1.
         -5    1    4    4    0  501  0.39772560272E+02  0.61787028901E+02 -0.13665522104E+03  0.15521473941E+03  0.41800000000E+01 0.  1.
</event>
<event>
11    1  0.1003949E-008  0.1462641E+03  0.7561462E-02  0.1100758E+00
         22   -1    0    0    0    0  0.00000000000E+00  0.00000000000E+00  0.39672633520E+03  0.39672633520E+03  0.00000000000E+00 0. -1.
         22   -1    0    0    0    0 -0.00000000000E+00 -0.00000000000E+00 -0.57323129099E+03  0.57323129099E+03  0.00000000000E+00 0.  1.
        -24    2    1    2    0    0  0.75252276615E+02 -0.73809323416E+01 -0.44740951551E+03  0.46071888762E+03  0.79807490499E+02 0.  0.
         25    2    1    2    0    0 -0.70445869535E+02  0.55410566784E+02 -0.60107222865E+02  0.16520840619E+03  0.12509191736E+03 0.  0.
         24    2    1    2    0    0 -0.48064070797E+01 -0.48029634442E+02  0.33101178259E+03  0.34403033238E+03  0.80362441808E+02 0.  0.
        -11    1    5    5    0    0  0.15586710243E+02 -0.12238318737E+02  0.13785068390E+02  0.24140217319E+02  0.00000000000E+00 0.  1.
         12    1    5    5    0    0 -0.20393117323E+02 -0.35791315705E+02  0.31722671420E+03  0.31989011506E+03  0.00000000000E+00 0. -1.
         13    1    3    3    0    0  0.43795863318E+01 -0.42434872639E+01  0.14660236893E+01  0.62719363879E+01  0.00000000000E+00 0. -1.
        -14    1    3    3    0    0  0.70872690283E+02 -0.31374450778E+01 -0.44887553920E+03  0.45444695123E+03  0.00000000000E+00 0.  1.
          5    1    4    4  501    0 -0.53606774943E+02 -0.33322403539E+02 -0.29054827216E+02  0.69611236751E+02  0.41800000000E+01 0.  1.
         -5    1    4    4    0  501 -0.16839094593E+02  0.88732970323E+02 -0.31052395649E+02  0.95597169438E+02  0.41800000000E+01 0.  1.
</event>
<event>
11    1  0.1003949E-008  0.1601000E+03  0.7561462E-02  0.1086983E+00
         22   -1    0    0    0    0  0.00000000000E+00  0.00000000000E+00  0.26558478067E+03  0.26558478067E+03  0.00000000000E+00 0. -1.
         22   -1    0    0    0    0 -0.00000000000E+00 -0.00000000000E+00 -0.19280409829E+04  0.19280409829E+04  0.00000000000E+00 0. -1.
         24    2    1    2    0    0  0.24575071350E+01 -0.98085827780E+02 -0.16678915638E+04  0.16726745690E+04  0.79693640581E+02 0.  0.
         25    2    1    2    0    0  0.54352760428E+02  0.12687727432E+03 -0.21101668736E+03  0.28147389673E+03  0.12508975533E+03 0.  0.
        -24    2    1    2    0    0 -0.56810267563E+02 -0.28791446539E+02  0.21645204893E+03  0.23947729781E+03  0.80259160158E+02 0.  0.
        -11    1    3    3    0    0  0.38426049580E+02 -0.29213356061E+02 -0.70786666135E+03  0.70951052967E+03  0.00000000000E+00 0.  1.
         12    1    3    3    0    0 -0.35968542445E+02 -0.68872471719E+02 -0.96002490245E+03  0.96316403937E+03  0.00000000000E+00 0. -1.
         11    1    5    5    0    0 -0.96207076653E+01 -0.49407141238E+02  0.12024162450E+03  0.13035210732E+03  0.00000000000E+00 0. -1.
        -12    1    5    5    0    0 -0.47189559898E+02  0.20615694699E+02  0.96210424430E+02  0.10912519049E+03  0.00000000000E+00 0.  1.
          5    1    4    4  501    0 -0.18880031448E+02  0.94332194549E+02 -0.15885988890E+03  0.18576586128E+03  0.41800000000E+01 0. -1.
         -5    1    4    4    0  501  0.73232791877E+02  0.32545079770E+02 -0.52156798467E+02  0.95708035449E+02  0.41800000000E+01 0. -1.
</event>
<event>
11    1  0.1003949E-008  0.1505845E+03  0.7561462E-02  0.1096283E+00
         22   -1    0    0    0    0  0.00000000000E+00  0.00000000000E+00  0.25399411920E+03  0.25399411920E+03  0.00000000000E+00 0.  1.
         22   -1    0    0    0    0 -0.00000000000E+00 -0.00000000000E+00 -0.50843193702E+03  0.50843193702E+03  0.00000000000E+00 0.  1.
         24    2    1    2    0    0 -0.26893543098E+02  0.81870369114E+02 -0.43490947367E+03  0.45067634925E+03  0.80851106892E+02 0.  0.
         25    2    1    2    0    0 -0.11135140612E+02 -0.62028831409E+02  0.42366063670E+02  0.14633329465E+03  0.12508789906E+03 0.  0.
        -24    2    1    2    0    0  0.38028683710E+02 -0.19841537705E+02  0.13810559218E+03  0.16541641232E+03  0.80309199162E+02 0.  0.
        -13    1    3    3    0    0 -0.22979485071E+02  0.96102820653E+02 -0.40984524992E+03  0.42158858826E+03  0.00000000000E+00 0.  1.
         14    1    3    3    0    0 -0.39140580278E+01 -0.14232451539E+02 -0.25064223757E+02  0.29087760993E+02  0.00000000000E+00 0. -1.
         13    1    5    5    0    0  0.23219784068E+02 -0.32044461599E+02  0.17458420676E+02  0.43252772672E+02  0.00000000000E+00 0. -1.
        -14    1    5    5    0    0  0.14808899643E+02  0.12202923894E+02  0.12064717150E+03  0.12216363965E+03  0.00000000000E+00 0.  1.
          5    1    4    4  501    0 -0.20549239927E+02  0.32820576786E+01  0.71130044588E+02  0.74229366205E+02  0.41800000000E+01 0. -1.
         -5    1    4    4    0  501  0.94140993150E+01 -0.65310889087E+02 -0.28763980918E+02  0.72103928447E+02  0.41800000000E+01 0. -1.
</event>
<event>
11    1  0.1003949E-008  0.2345618E+03  0.7561462E-02  0.1032461E+00
         22   -1    0    0    0    0  0.00000000000E+00  0.00000000000E+00  0.45601598532E+03  0.45601598532E+03  0.00000000000E+00 0. -1.
         22   -1    0    0    0    0 -0.00000000000E+00 -0.00000000000E+00 -0.15659863235E+04  0.15659863235E+04  0.00000000000E+00 0.  1.
        -24    2    1    2    0    0  0.45582829242E+02 -0.85828382361E+02 -0.91143049516E+03  0.92029019408E+03  0.82366184001E+02 0.  0.
         25    2    1    2    0    0 -0.15571045021E+03  0.24606460844E+03 -0.58296890016E+03  0.66354651871E+03  0.12509079940E+03 0.  0.
         24    2    1    2    0    0  0.11012762097E+03 -0.16023622608E+03  0.38442905709E+03  0.43816559608E+03  0.79997803733E+02 0.  0.
        -11    1    5    5    0    0  0.81743293404E+01 -0.79563696845E+02  0.15698509166E+03  0.17618603951E+03  0.00000000000E+00 0.  1.
         12    1    5    5    0    0  0.10195329163E+03 -0.80672529237E+02  0.22744396543E+03  0.26197955657E+03  0.00000000000E+00 0. -1.
         13    1    3    3    0    0 -0.51293714914E+00  0.12666580848E+02 -0.21953348718E+03  0.21989919820E+03  0.00000000000E+00 0. -1.
        -14    1    3    3    0    0  0.46095766391E+02 -0.98494963208E+02 -0.69189700798E+03  0.70039099588E+03  0.00000000000E+00 0.  1.
          5    1    4    4  501    0 -0.72650205613E+02  0.19771986143E+02 -0.12466133924E+03  0.14569456309E+03  0.41800000000E+01 0.  1.
         -5    1    4    4    0  501 -0.83060244601E+02  0.22629262230E+03 -0.45830756092E+03  0.51785195562E+03  0.41800000000E+01 0.  1.
</event>
<event>
11    1  0.1003949E-008  0.1510994E+03  0.7561462E-02  0.1095761E+00
         22   -1    0    0    0    0  0.00000000000E+00  0.00000000000E+00  0.14722776734E+04  0.14722776734E+04  0.00000000000E+00 0.  1.
         22   -1    0    0    0    0 -0.00000000000E+00 -0.00000000000E+00 -0.14440614415E+04  0.14440614415E+04  0.00000000000E+00 0. -1.
        -24    2    1    2    0    0  0.49487063032E+02  0.67409352576E+02 -0.13452548697E+04  0.13497848867E+04  0.72219010697E+02 0.  0.
         25    2    1    2    0    0 -0.11270317517E+03 -0.77483413695E+02 -0.38883780292E+01  0.18539411666E+03  0.12510065513E+03 0.  0.
         24    2    1    2    0    0  0.63216112141E+02  0.10074061120E+02  0.13773594797E+04  0.13811601115E+04  0.79914665702E+02 0.  0.
        -13    1    5    5    0    0  0.35439906830E+02  0.38662982422E+02  0.10615788257E+04  0.10628736597E+04  0.00000000000E+00 0.  1.
         14    1    5    5    0    0  0.27776205311E+02 -0.28588921302E+02  0.31578065396E+03  0.31828645183E+03  0.00000000000E+00 0. -1.
         11    1    3    3    0    0  0.60872903742E+02  0.63656574914E+02 -0.12996341743E+04  0.13026153143E+04  0.00000000000E+00 0. -1.
        -12    1    3    3    0    0 -0.11385840709E+02  0.37527776615E+01 -0.45620695400E+02  0.47169572371E+02  0.00000000000E+00 0.  1.
          5    1    4    4  501    0 -0.46333574380E+02 -0.76800275459E+02 -0.51584244729E+02  0.10355428108E+03  0.41800000000E+01 0.  1.
         -5    1    4    4    0  501 -0.66369600793E+02 -0.68313823609E+00  0.47695866699E+02  0.81839835578E+02  0.41800000000E+01 0.  1.
</event>
<event>
11    1  0.1003949E-008  0.3477640E+03  0.7561462E-02  0.9817849E-01
         22   -1    0    0    0    0  0.00000000000E+00  0.00000000000E+00  0.12984072654E+04  0.12984072654E+04  0.00000000000E+00 0.  1.
         22   -1    0    0    0    0 -0.00000000000E+00 -0.00000000000E+00 -0.32044886031E+03  0.32044886031E+03  0.00000000000E+00 0.  1.
        -24    2    1    2    0    0  0.21487535356E+01  0.32408836592E+03 -0.14638525073E+03  0.36458605515E+03  0.80352124502E+02 0.  0.
         25    2    1    2    0    0 -0.66267873905E+02 -0.32479841592E+03  0.45442418081E+03  0.57622447094E+03  0.12509141740E+03 0.  0.
         24    2    1    2    0    0  0.64119120370E+02  0.71005000779E+00  0.66991947505E+03  0.67804559967E+03  0.82716179894E+02 0.  0.
        -13    1    5    5    0    0  0.45893191712E+02  0.75123893049E+01  0.64380039339E+03  0.64547778239E+03  0.00000000000E+00 0.  1.
         14    1    5    5    0    0  0.18225928657E+02 -0.68023392971E+01  0.26119081658E+02  0.32567817274E+02  0.00000000000E+00 0. -1.
         13    1    3    3    0    0  0.58687375150E+01  0.25662070680E+02  0.93646441172E+01  0.27940660534E+02  0.00000000000E+00 0. -1.
        -14    1    3    3    0    0 -0.37199839794E+01  0.29842629524E+03 -0.15574989485E+03  0.33664539461E+03  0.00000000000E+00 0.  1.
          5    1    4    4  501    0 -0.60620495016E+02 -0.27925723951E+03  0.29690558146E+03  0.41210417001E+03  0.41800000000E+01 0. -1.
         -5    1    4    4    0  501 -0.56473788889E+01 -0.45541176414E+02  0.15751859935E+03  0.16412030093E+03  0.41800000000E+01 0. -1.
</event>
<event>
11    1  0.1003949E-008  0.1580368E+03  0.7561462E-02  0.1088938E+00
         22   -1    0    0    0    0  0.00000000000E+00  0.00000000000E+00  0.21846750363E+04  0.21846750363E+04  0.00000000000E+00 0. -1.
         22   -1    0    0    0    0 -0.00000000000E+00 -0.00000000000E+00 -0.85438438130E+03  0.85438438130E+03  0.00000000000E+00 0. -1.
        -24    2    1    2    0    0  0.67589092878E+02  0.14954242229E+02 -0.78514027377E+03  0.79222601798E+03  0.79905564429E+02 0.  0.
         25    2    1    2    0    0 -0.17392534901E+02  0.69229388409E+02  0.17729070503E+02  0.14511530299E+03  0.12509565432E+03 0.  0.
         24    2    1    2    0    0 -0.50196557977E+02 -0.84183630638E+02  0.20977018583E+04  0.21017180966E+04  0.85201487360E+02 0.  0.
        -11    1    5    5    0    0  0.12339162258E+02 -0.11220745110E+02  0.79540593402E+02  0.81270326964E+02  0.00000000000E+00 0.  1.
         12    1    5    5    0    0 -0.62535720235E+02 -0.72962885528E+02  0.20181612649E+04  0.20204477697E+04  0.00000000000E+00 0. -1.
         11    1    3    3    0    0  0.52722068895E+02  0.16365002841E+02 -0.76581932662E+03  0.76780640197E+03  0.00000000000E+00 0. -1.
        -12    1    3    3    0    0  0.14867023982E+02 -0.14107606120E+01 -0.19320947149E+02  0.24419616015E+02  0.00000000000E+00 0.  1.
          5    1    4    4  501    0 -0.70020364746E+02  0.51976682320E+02  0.17489604179E+01  0.87321006904E+02  0.41800000000E+01 0. -1.
         -5    1    4    4    0  501  0.52627829845E+02  0.17252706089E+02  0.15980110085E+02  0.57794296085E+02  0.41800000000E+01 0. -1.
</event>
<event>
11    1  0.1003949E-008  0.7694308E+03  0.7561462E-02  0.8935811E-01
         22   -1    0    0    0    0  0.00000000000E+00  0.00000000000E+00  0.11254061514E+04  0.11254061514E+04  0.00000000000E+00 0. -1.
         22   -1    0    0    0    0 -0.00000000000E+00 -0.00000000000E+00 -0.37342697290E+04  0.37342697290E+04  0.00000000000E+00 0. -1.
         24    2    1    2    0    0  0.72499059784E+03 -0.22427445607E+03 -0.34966574224E+04  0.35789620304E+04  0.80285034459E+02 0.  0.
         25    2    1    2    0    0 -0.76318899223E+03  0.12515159399E+03  0.80670473674E+03  0.11245180216E+04  0.12509152345E+03 0.  0.
        -24    2    1    2    0    0  0.38198394389E+02  0.99122862089E+02  0.81089107985E+02  0.15619582843E+03  0.80853164835E+02 0.  0.
        -13    1    3    3    0    0  0.21834405200E+03 -0.34138722977E+02 -0.93363312624E+03  0.95943232792E+03  0.00000000000E+00 0.  1.
         14    1    3    3    0    0  0.50664654584E+03 -0.19013573310E+03 -0.25630242961E+04  0.26195297025E+04  0.00000000000E+00 0. -1.
         11    1    5    5    0    0  0.36848550252E+02  0.10692701335E+03  0.49197156250E+02  0.12333516134E+03  0.00000000000E+00 0. -1.
        -12    1    5    5    0    0  0.13498441372E+01 -0.78041512657E+01  0.31891951735E+02  0.32860667090E+02  0.00000000000E+00 0.  1.
          5    1    4    4  501    0 -0.41505624411E+03  0.14526359562E+02  0.47634055283E+03  0.63198140445E+03  0.41800000000E+01 0. -1.
         -5    1    4    4    0  501 -0.34813274811E+03  0.11062523442E+03  0.33036418391E+03  0.49253661713E+03  0.41800000000E+01 0. -1.
</event>
<event>
11    1  0.1003949E-008  0.1409384E+03  0.7561462E-02  0.1106515E+00
         22   -1    0    0    0    0  0.00000000000E+00  0.00000000000E+00  0.10324430923E+04  0.10324430923E+04  0.00000000000E+00 0.  1.
         22   -1    0    0    0    0 -0.00000000000E+00 -0.00000000000E+00 -0.15361466591E+03  0.15361466591E+03  0.00000000000E+00 0.  1.
         24    2    1    2    0    0  0.11950054986E+02  0.30192342330E+01 -0.10529588863E+03  0.13431081447E+03  0.82463635214E+02 0.  0.
         25    2    1    2    0    0  0.39633667477E+02  0.38042857864E+02  0.12072737465E+03  0.18232023308E+03  0.12508989474E+03 0.  0.
        -24    2    1    2    0    0 -0.51583722463E+02 -0.41062092097E+02  0.86339694039E+03  0.86942671068E+03  0.78112436587E+02 0.  0.
        -11    1    3    3    0    0 -0.26735271899E+02 -0.14672560747E+01 -0.87477417320E+02  0.91483474709E+02  0.00000000000E+00 0.  1.
         12    1    3    3    0    0  0.38685326884E+02  0.44864903077E+01 -0.17818471308E+02  0.42827339763E+02  0.00000000000E+00 0. -1.
         13    1    5    5    0    0 -0.31565817760E+02 -0.21543973813E+02  0.13010121821E+03  0.13559819556E+03  0.00000000000E+00 0. -1.
        -14    1    5    5    0    0 -0.20017904703E+02 -0.19518118284E+02  0.73329572218E+03  0.73382851513E+03  0.00000000000E+00 0.  1.
          5    1    4    4  501    0 -0.87660047687E+01  0.74590558922E+02  0.58157956489E+02  0.95081094981E+02  0.41800000000E+01 0.  1.
         -5    1    4    4    0  501  0.48399672246E+02 -0.36547701058E+02  0.62569418165E+02  0.87239138096E+02  0.41800000000E+01 0.  1.
</event>
<event>
11    1  0.1003949E-008  0.1626491E+03  0.7561462E-02  0.1084612E+00
         22   -1    0    0    0    0  0.00000000000E+00  0.00000000000E+00  0.10074472231E+04  0.10074472231E+04  0.00000000000E+00 0. -1.
         22   -1    0    0    0    0 -0.00000000000E+00 -0.00000000000E+00 -0.29556538016E+03  0.29556538016E+03  0.00000000000E+00 0. -1.
         24    2    1    2    0    0  0.28644745293E+02 -0.97381196949E+02 -0.24575278418E+03  0.27773993261E+03  0.80258459253E+02 0.  0.
         25    2    1    2    0    0 -0.31210559985E+02  0.15104523866E+03  0.29429405961E+03  0.35502801583E+03  0.12508850997E+03 0.  0.
        -24    2    1    2    0    0  0.25658146921E+01 -0.53664041708E+02  0.66334056750E+03  0.67024465480E+03  0.79503308241E+02 0.  0.
        -11    1    3    3    0    0  0.19985507083E+00  0.47719042534E+01  0.41138566829E+01  0.63035568579E+01  0.00000000000E+00 0.  1.
         12    1    3    3    0    0  0.28444890222E+02 -0.10215310120E+03 -0.24986664087E+03  0.27143637575E+03  0.00000000000E+00 0. -1.
         11    1    5    5    0    0 -0.19214786429E+02 -0.63791019056E+02  0.56930144425E+03  0.57318638901E+03  0.00000000000E+00 0. -1.
        -12    1    5    5    0    0  0.21780601121E+02  0.10126977348E+02  0.94039123251E+02  0.97058265785E+02  0.00000000000E+00 0.  1.
          5    1    4    4  501    0  0.21256006103E+02  0.12970366092E+03  0.25188982663E+03  0.28414928226E+03  0.41800000000E+01 0. -1.
         -5    1    4    4    0  501 -0.52466566088E+02  0.21341577740E+02  0.42404232983E+02  0.70878733570E+02  0.41800000000E+01 0. -1.
</event>
<event>
11    1  0.1003949E-008  0.1670002E+03  0.7561462E-02  0.1080672E+00
         22   -1    0    0    0    0  0.00000000000E+00  0.00000000000E+00  0.30974393740E+03  0.30974393740E+03  0.00000000000E+00 0.  1.
         22   -1    0    0    0    0 -0.00000000000E+00 -0.00000000000E+00 -0.98672833418E+03  0.98672833418E+03  0.00000000000E+00 0. -1.
        -24    2    1    2    0    0 -0.10361269032E+03  0.45297975872E+02 -0.75298281083E+03  0.76581358673E+03  0.81852550367E+02 0.  0.
         25    2    1    2    0    0  0.93284430790E+02 -0.35402017174E+02 -0.19223333093E+03  0.25010969610E+03  0.12508364687E+03 0.  0.
         24    2    1    2    0    0  0.10328259533E+02 -0.98959586980E+01  0.26823174498E+03  0.28054898875E+03  0.80962109193E+02 0.  0.
        -11    1    5    5    0    0 -0.25794546115E+01  0.25029951796E+02  0.20952054867E+03  0.21102609409E+03  0.00000000000E+00 0.  1.
         12    1    5    5    0    0  0.12907714144E+02 -0.34925910494E+02  0.58711196319E+02  0.69522894657E+02  0.00000000000E+00 0. -1.
         11    1    3    3    0    0 -0.79790981984E+02  0.40018608026E+02 -0.71577137773E+03  0.72131598830E+03  0.00000000000E+00 0. -1.
        -12    1    3    3    0    0 -0.23821708339E+02  0.52793678462E+01 -0.37211433098E+02  0.44497598433E+02  0.00000000000E+00 0.  1.
          5    1    4    4  501    0  0.11947420450E+03 -0.50118961107E+02 -0.15806586672E+03  0.20442183451E+03  0.41800000000E+01 0. -1.
         -5    1    4    4    0  501 -0.26189773710E+02  0.14716943933E+02 -0.34167464208E+02  0.45687861584E+02  0.41800000000E+01 0. -1.
</event>
<event>
11    1  0.1003949E-008  0.1987994E+03  0.7561462E-02  0.1055376E+00
         22   -1    0    0    0    0  0.00000000000E+00  0.00000000000E+00  0.11752938738E+04  0.11752938738E+04  0.00000000000E+00 0.  1.
         22   -1    0    0    0    0 -0.00000000000E+00 -0.00000000000E+00 -0.87550324434E+03  0.87550324434E+03  0.00000000000E+00 0.  1.
         24    2    1    2    0    0 -0.10001918425E+03 -0.55471587444E+01 -0.75959747596E+03  0.77036817379E+03  0.80275709332E+02 0.  0.
         25    2    1    2    0    0  0.24802594035E+03  0.29514930884E+01  0.83325466457E+02  0.29002811417E+03  0.12509034835E+03 0.  0.
        -24    2    1    2    0    0 -0.14800675609E+03  0.25956656560E+01  0.97606263894E+03  0.99040083016E+03  0.79264064446E+02 0.  0.
        -13    1    3    3    0    0 -0.66055538593E+02 -0.55005531664E+01 -0.68731709875E+03  0.69050589027E+03  0.00000000000E+00 0.  1.
         14    1    3    3    0    0 -0.33963645661E+02 -0.46605577979E-01 -0.72280377207E+02  0.79862283513E+02  0.00000000000E+00 0. -1.
         11    1    5    5    0    0  0.34133445354E+01 -0.15013008826E+02  0.98662829071E+02  0.99856873550E+02  0.00000000000E+00 0. -1.
        -12    1    5    5    0    0 -0.15142010063E+03  0.17608674482E+02  0.87739980987E+03  0.89054395661E+03  0.00000000000E+00 0.  1.
          5    1    4    4  501    0  0.93630034425E+02 -0.29165479586E+02  0.88534726439E+02  0.13218577356E+03  0.41800000000E+01 0.  1.
         -5    1    4    4    0  501  0.15439590592E+03  0.32116972675E+02 -0.52092599824E+01  0.15784234061E+03  0.41800000000E+01 0.  1.
</event>
<event>
11    1  0.1003949E-008  0.1396292E+03  0.7561462E-02  0.1107973E+00
         22   -1    0    0    0    0  0.00000000000E+00  0.00000000000E+00  0.57044939641E+03  0.57044939641E+03  0.00000000000E+00 0.  1.
         22   -1    0    0    0    0 -0.00000000000E+00 -0.00000000000E+00 -0.19180300186E+04  0.19180300186E+04  0.00000000000E+00 0.  1.
        -24    2    1    2    0    0 -0.21493942241E+02  0.17789046238E+02 -0.18699804386E+04  0.18719083623E+04  0.80222417488E+02 0.  0.
         25    2    1    2    0    0  0.60273523826E+02 -0.61861665092E+02  0.98249474888E+02  0.18099387436E+03  0.12508421147E+03 0.  0.
         24    2    1    2    0    0 -0.38779581585E+02  0.44072618853E+02  0.42415034158E+03  0.43557717832E+03  0.79860593083E+02 0.  0.
        -13    1    5    5    0    0 -0.40500587489E+02  0.37803652035E+02  0.42537007324E+03  0.42896283394E+03  0.00000000000E+00 0.  1.
         14    1    5    5    0    0  0.17210059043E+01  0.62689668186E+01 -0.12197316543E+01  0.66143443820E+01  0.00000000000E+00 0. -1.
         11    1    3    3    0    0 -0.57195503034E+01 -0.22933828271E+02 -0.20545518135E+03  0.20681031231E+03  0.00000000000E+00 0. -1.
        -12    1    3    3    0    0 -0.15774391937E+02  0.40722874510E+02 -0.16645252573E+04  0.16650980500E+04  0.00000000000E+00 0.  1.
          5    1    4    4  501    0  0.43446740325E+01  0.31676051343E+02 -0.27315076055E+01  0.32360190898E+02  0.41800000000E+01 0. -1.
         -5    1    4    4    0  501  0.55928849793E+02 -0.93537716435E+02  0.10098098249E+03  0.14863368347E+03  0.41800000000E+01 0. -1.
</event>
<event>
11    1  0.1003949E-008  0.3122553E+03  0.7561462E-02  0.9951339E-01
         22   -1    0    0    0    0  0.00000000000E+00  0.00000000000E+00  0.65420609613E+03  0.65420609613E+03  0.00000000000E+00 0. -1.
         22   -1    0    0    0    0 -0.00000000000E+00 -0.00000000000E+00 -0.48740792849E+03  0.48740792849E+03  0.00000000000E+00 0. -1.
        -24    2    1    2    0    0 -0.29414985624E+03  0.25187477171E+02 -0.36123140344E+03  0.47351513163E+03  0.81054957396E+02 0.  0.
         25    2    1    2    0    0  0.22973072112E+03  0.67924645697E+02  0.32908837371E+03  0.42583242592E+03  0.12507651874E+03 0.  0.
         24    2    1    2    0    0  0.64419135128E+02 -0.93112122868E+02  0.19894119737E+03  0.24226646706E+03  0.79345753849E+02 0.  0.
        -11    1    5    5    0    0 -0.40483817205E+00 -0.47894000471E+02  0.12568389899E+03  0.13450071242E+03  0.00000000000E+00 0.  1.
         12    1    5    5    0    0  0.64823973300E+02 -0.45218122397E+02  0.73257298380E+02  0.10776575464E+03  0.00000000000E+00 0. -1.
         13    1    3    3    0    0 -0.24353611552E+03  0.27791134070E+02 -0.24428714600E+03  0.34606126105E+03  0.00000000000E+00 0. -1.
        -14    1    3    3    0    0 -0.50613740723E+02 -0.26036568991E+01 -0.11694425744E+03  0.12745387058E+03  0.00000000000E+00 0.  1.
          5    1    4    4  501    0  0.39211510183E+02  0.40835230400E+02  0.15949548910E+03  0.16929660958E+03  0.41800000000E+01 0.  1.
         -5    1    4    4    0  501  0.19051921093E+03  0.27089415297E+02  0.16959288461E+03  0.25653581634E+03  0.41800000000E+01 0.  1.
</event>
<event>
11    1  0.1003949E-008  0.1566234E+03  0.7561462E-02  0.1090297E+00
         22   -1    0    0    0    0  0.00000000000E+00  0.00000000000E+00  0.39717105966E+03  0.39717105966E+03  0.00000000000E+00 0. -1.
         22   -1    0    0    0    0 -0.00000000000E+00 -0.00000000000E+00 -0.63420706502E+03  0.63420706502E+03  0.00000000000E+00 0.  1.
         24    2    1    2    0    0  0.48829360964E+01 -0.72336509600E+01 -0.43604766680E+03  0.44273736597E+03  0.76175053228E+02 0.  0.
         25    2    1    2    0    0 -0.90254533405E+02  0.46215356769E+02 -0.14894515183E+03  0.21934590193E+03  0.12508487694E+03 0.  0.
        -24    2    1    2    0    0  0.85371597308E+02 -0.38981705809E+02  0.34795681327E+03  0.36929485678E+03  0.80603128522E+02 0.  0.
        -13    1    3    3    0    0  0.40737302304E+01 -0.41782645366E+02 -0.25212007183E+03  0.25559130531E+03  0.00000000000E+00 0.  1.
         14    1    3    3    0    0  0.80920586600E+00  0.34548994406E+02 -0.18392759498E+03  0.18714606067E+03  0.00000000000E+00 0. -1.
         13    1    5    5    0    0  0.99356530729E+02 -0.28771788647E+02  0.32101409215E+03  0.33726782144E+03  0.00000000000E+00 0. -1.
        -14    1    5    5    0    0 -0.13984933421E+02 -0.10209917162E+02  0.26942721124E+02  0.32027035342E+02  0.00000000000E+00 0.  1.
          5    1    4    4  501    0 -0.44714706847E+02 -0.36959364013E+02 -0.91430798758E+02  0.10836264558E+03  0.41800000000E+01 0.  1.
         -5    1    4    4    0  501 -0.45539826557E+02  0.83174720782E+02 -0.57514353070E+02  0.11098325635E+03  0.41800000000E+01 0.  1.
</event>
<event>
11    1  0.1003949E-008  0.1787130E+03  0.7561462E-02  0.1070689E+00
         22   -1    0    0    0    0  0.00000000000E+00  0.00000000000E+00  0.93260035017E+03  0.93260035017E+03  0.00000000000E+00 0.  1.
         22   -1    0    0    0    0 -0.00000000000E+00 -0.00000000000E+00 -0.12039913450E+04  0.12039913450E+04  0.00000000000E+00 0. -1.
        -24    2    1    2    0    0  0.10476167079E+03  0.74330280514E+02 -0.11511596141E+04  0.11610916054E+04  0.80406844791E+02 0.  0.
         25    2    1    2    0    0 -0.70200582738E+02 -0.78065246378E+02  0.10954839771E+03  0.19664780124E+03  0.12508877561E+03 0.  0.
         24    2    1    2    0    0 -0.34561088052E+02  0.37349658636E+01  0.77022022157E+03  0.77885228854E+03  0.11028725617E+03 0.  0.
        -11    1    5    5    0    0 -0.44569916946E+02  0.38388106775E+02  0.66549351754E+03  0.66808812751E+03  0.00000000000E+00 0.  1.
         12    1    5    5    0    0  0.10008828894E+02 -0.34653140911E+02  0.10472670403E+03  0.11076416103E+03  0.00000000000E+00 0. -1.
         13    1    3    3    0    0  0.11819542802E+03  0.62898523912E+02 -0.10120069435E+04  0.10208253706E+04  0.00000000000E+00 0. -1.
        -14    1    3    3    0    0 -0.13433757234E+02  0.11431756602E+02 -0.13915267059E+03  0.14026623479E+03  0.00000000000E+00 0.  1.
          5    1    4    4  501    0 -0.78819818386E+02 -0.48999931827E+02  0.13004055285E+03  0.15981731719E+03  0.41800000000E+01 0.  1.
         -5    1    4    4    0  501  0.86192356477E+01 -0.29065314551E+02 -0.20492155138E+02  0.36830484049E+02  0.41800000000E+01 0.  1.
</event>
<event>
11    1  0.1003949E-008  0.1469299E+03  0.7561462E-02  0.1100058E+00
         22   -1    0    0    0    0  0.00000000000E+00  0.00000000000E+00  0.83159265963E+03  0.83159265963E+03  0.00000000000E+00 0.  1.
         22   -1    0    0    0    0 -0.00000000000E+00 -0.00000000000E+00 -0.55144567857E+03  0.55144567857E+03  0.00000000000E+00 0.  1.
         24    2    1    2    0    0  0.34426285215E+01  0.22880818172E+01 -0.50588777299E+03  0.51251401757E+03  0.82043234545E+02 0.  0.
         25    2    1    2    0    0  0.31980119261E+02 -0.70696731201E+02  0.10613408413E+03  0.18147007733E+03  0.12508472858E+03 0.  0.
        -24    2    1    2    0    0 -0.35422747782E+02  0.68408649384E+02  0.67990066992E+03  0.68905424331E+03  0.81217700639E+02 0.  0.
        -13    1    3    3    0    0  0.35257446389E+02  0.13727825346E+02 -0.38897775130E+03  0.39081355110E+03  0.00000000000E+00 0.  1.
         14    1    3    3    0    0 -0.31814817868E+02 -0.11439743528E+02 -0.11691002168E+03  0.12170046647E+03  0.00000000000E+00 0. -1.
         11    1    5    5    0    0 -0.27894814116E+02  0.59684894308E+02  0.23652823769E+03  0.24553210480E+03  0.00000000000E+00 0. -1.
        -12    1    5    5    0    0 -0.75279336659E+01  0.87237550761E+01  0.44337243222E+03  0.44352213850E+03  0.00000000000E+00 0.  1.
          5    1    4    4  501    0  0.41453390142E+02 -0.85793510645E+02  0.25417763055E+02  0.98703825162E+02  0.41800000000E+01 0. -1.
         -5    1    4    4    0  501 -0.94732708812E+01  0.15096779444E+02  0.80716321073E+02  0.82766252171E+02  0.41800000000E+01 0. -1.
</event>
<event>
11    1  0.1003949E-008  0.1334169E+03  0.7561462E-02  0.1115141E+00
         22   -1    0    0    0    0  0.00000000000E+00  0.00000000000E+00  0.29083344056E+03  0.29083344056E+03  0.00000000000E+00 0. -1.
         22   -1    0    0    0    0 -0.00000000000E+00 -0.00000000000E+00 -0.38850842874E+03  0.38850842874E+03  0.00000000000E+00 0. -1.
        -24    2    1    2    0    0 -0.26853280524E+02 -0.32192150321E+02 -0.30286914181E+03  0.31578435788E+03  0.78946883411E+02 0.  0.
         25    2    1    2    0    0  0.60282484535E+02 -0.11197541955E+00  0.79203357076E-02  0.13885739535E+03  0.12508951075E+03 0.  0.
         24    2    1    2    0    0 -0.33429204010E+02  0.32304125741E+02  0.20518623330E+03  0.22470011607E+03  0.78915674018E+02 0.  0.
        -11    1    5    5    0    0 -0.23672037838E+02  0.23619389969E+02  0.19816549131E+02  0.38870767646E+02  0.00000000000E+00 0.  1.
         12    1    5    5    0    0 -0.97571661724E+01  0.86847357715E+01  0.18536968416E+03  0.18582934842E+03  0.00000000000E+00 0. -1.
         13    1    3    3    0    0  0.97278105941E+01  0.28105207270E+00 -0.21497976680E+03  0.21519992896E+03  0.00000000000E+00 0. -1.
        -14    1    3    3    0    0 -0.36581091118E+02 -0.32473202394E+02 -0.87889375007E+02  0.10058442892E+03  0.00000000000E+00 0.  1.
          5    1    4    4  501    0 -0.33980297416E+01 -0.54595500334E+02 -0.23762862099E+01  0.54912060597E+02  0.41800000000E+01 0. -1.
         -5    1    4    4    0  501  0.63680514276E+02  0.54483524915E+02  0.23842065456E+01  0.83945334751E+02  0.41800000000E+01 0. -1.
</event>
<event>
11    1  0.1003949E-008  0.1326282E+03  0.7561462E-02  0.1116081E+00
         22   -1    0    0    0    0  0.00000000000E+00  0.00000000000E+00  0.20193976354E+03  0.20193976354E+03  0.00000000000E+00 0. -1.
         22   -1    0    0    0    0 -0.00000000000E+00 -0.00000000000E+00 -0.23304885754E+04  0.23304885754E+04  0.00000000000E+00 0. -1.
         24    2    1    2    0    0 -0.34817208168E+01 -0.14536438820E+02 -0.17811189591E+04  0.17829783879E+04  0.80023465489E+02 0.  0.
         25    2    1    2    0    0  0.30755279600E+02 -0.20379127040E+02 -0.52994453772E+03  0.54575228346E+03  0.12507256210E+03 0.  0.
        -24    2    1    2    0    0 -0.27273558783E+02  0.34915565859E+02  0.18251468491E+03  0.20369766759E+03  0.78855474292E+02 0.  0.
        -11    1    3    3    0    0 -0.57818933772E+01 -0.45176472616E+02 -0.73600026761E+03  0.73740812166E+03  0.00000000000E+00 0.  1.
         12    1    3    3    0    0  0.23001725604E+01  0.30640033797E+02 -0.10451186914E+04  0.10455702662E+04  0.00000000000E+00 0. -1.
         11    1    5    5    0    0  0.17028576465E+02 -0.15471024837E+02  0.54758714042E+02  0.59395637798E+02  0.00000000000E+00 0. -1.
        -12    1    5    5    0    0 -0.44302135249E+02  0.50386590696E+02  0.12775597087E+03  0.14430202979E+03  0.00000000000E+00 0.  1.
          5    1    4    4  501    0  0.38369666484E+02 -0.60400445750E+02 -0.18525962389E+03  0.19864301095E+03  0.41800000000E+01 0.  1.
         -5    1    4    4    0  501 -0.76143868838E+01  0.40021318711E+02 -0.34468491383E+03  0.34710927251E+03  0.41800000000E+01 0.  1.
</event>
<event>
11    1  0.1003949E-008  0.1783030E+03  0.7561462E-02  0.1071024E+00
         22   -1    0    0    0    0  0.00000000000E+00  0.00000000000E+00  0.51956492217E+03  0.51956492217E+03  0.00000000000E+00 0. -1.
         22   -1    0    0    0    0 -0.00000000000E+00 -0.00000000000E+00 -0.47320532912E+03  0.47320532912E+03  0.00000000000E+00 0. -1.
        -24    2    1    2    0    0 -0.97858541314E+02 -0.78105879263E+02 -0.40920663102E+03  0.43602064725E+03  0.83588967390E+02 0.  0.
         25    2    1    2    0    0  0.15533421825E+03  0.73438697144E+02  0.25374550915E+03  0.33099279122E+03  0.12508989898E+03 0.  0.
         24    2    1    2    0    0 -0.57475676939E+02  0.46671821190E+01  0.20182071492E+03  0.22575681282E+03  0.83122208415E+02 0.  0.
        -11    1    5    5    0    0 -0.47828035939E+02 -0.12307631224E+02  0.42240555292E+02  0.64986639547E+02  0.00000000000E+00 0.  1.
         12    1    5    5    0    0 -0.96476410001E+01  0.16974813343E+02  0.15958015963E+03  0.16077017327E+03  0.00000000000E+00 0. -1.
         13    1    3    3    0    0 -0.78729497271E+02 -0.61092437529E+02 -0.39364240820E+03  0.40606029749E+03  0.00000000000E+00 0. -1.
        -14    1    3    3    0    0 -0.19129044043E+02 -0.17013441734E+02 -0.15564222827E+02  0.29960349761E+02  0.00000000000E+00 0.  1.
          5    1    4    4  501    0 -0.19576291588E+02  0.72008436026E+01  0.50268367761E+02  0.54584471585E+02  0.41800000000E+01 0. -1.
         -5    1    4    4    0  501  0.17491050984E+03  0.66237853542E+02  0.20347714139E+03  0.27640831964E+03  0.41800000000E+01 0. -1.
</event>
<event>
11    1  0.1003949E-008  0.1418390E+03  0.7561462E-02  0.1105522E+00
         22   -1    0    0    0    0  0.00000000000E+00  0.00000000000E+00  0.54661069354E+03  0.54661069354E+03  0.00000000000E+00 0.  1.
         22   -1    0    0    0    0 -0.00000000000E+00 -0.00000000000E+00 -0.24855785831E+03  0.24855785831E+03  0.00000000000E+00 0. -1.
         24    2    1    2    0    0 -0.23427549822E+02  0.14920614628E+02 -0.13240168572E+03  0.15544094731E+03  0.76551988134E+02 0.  0.
         25    2    1    2    0    0 -0.38374019421E+02 -0.42505230816E+02 -0.51182152593E+02  0.14678730893E+03  0.12509053244E+03 0.  0.
        -24    2    1    2    0    0  0.61801569243E+02  0.27584616188E+02  0.48163667354E+03  0.49294029561E+03  0.80224090660E+02 0.  0.
        -13    1    3    3    0    0 -0.50925204800E+02  0.49209909229E+01 -0.72012729725E+02  0.88337001749E+02  0.00000000000E+00 0.  1.
         14    1    3    3    0    0  0.27497654978E+02  0.99996237048E+01 -0.60388955996E+02  0.67103945561E+02  0.00000000000E+00 0. -1.
         13    1    5    5    0    0  0.15131940799E+02  0.47082824126E+02  0.16375312018E+03  0.17105803790E+03  0.00000000000E+00 0. -1.
        -14    1    5    5    0    0  0.46669628444E+02 -0.19498207938E+02  0.31788355336E+03  0.32188225771E+03  0.00000000000E+00 0.  1.
          5    1    4    4  501    0 -0.30919472146E+02 -0.40963541138E+02 -0.91797756412E+02  0.10525362674E+03  0.41800000000E+01 0.  1.
         -5    1    4    4    0  501 -0.74545472747E+01 -0.15416896783E+01  0.40615603820E+02  0.41533682184E+02  0.41800000000E+01 0.  1.
</event>
<event>
11    1  0.1003949E-008  0.1283223E+03  0.7561462E-02  0.1121348E+00
         22   -1    0    0    0    0  0.00000000000E+00  0.00000000000E+00  0.27277563758E+04  0.27277563758E+04  0.00000000000E+00 0.  1.
         22   -1    0    0    0    0 -0.00000000000E+00 -0.00000000000E+00 -0.51281553460E+02  0.51281553460E+02  0.00000000000E+00 0.  1.
         24    2    1    2    0    0 -0.29347493267E+02  0.25030856292E+01  0.44475789011E+01  0.89532948277E+02  0.84432381646E+02 0.  0.
         25    2    1    2    0    0  0.19100817291E+02 -0.36885638204E+01  0.49308463973E+03  0.50907784568E+03  0.12509733932E+03 0.  0.
        -24    2    1    2    0    0  0.10246675977E+02  0.11854781911E+01  0.21789426037E+04  0.21804271353E+04  0.79782343634E+02 0.  0.
        -13    1    3    3    0    0 -0.52557594935E+02  0.14712646184E+02 -0.15325034608E+02  0.56688794561E+02  0.00000000000E+00 0.  1.
         14    1    3    3    0    0  0.23210101667E+02 -0.12209560555E+02  0.19772613509E+02  0.32844153716E+02  0.00000000000E+00 0. -1.
         13    1    5    5    0    0  0.36254990788E+02 -0.23343830345E+02  0.97352915315E+03  0.97448364317E+03  0.00000000000E+00 0. -1.
        -14    1    5    5    0    0 -0.26008314812E+02  0.24529308537E+02  0.12054134506E+04  0.12059434921E+04  0.00000000000E+00 0.  1.
          5    1    4    4  501    0  0.12672486165E+02  0.32924377405E+02  0.45246587019E+03  0.45385839490E+03  0.41800000000E+01 0.  1.
         -5    1    4    4    0  501  0.64283311252E+01 -0.36612941226E+02  0.40618769539E+02  0.55219450786E+02  0.41800000000E+01 0.  1.
</event>
<event>
11    1  0.1003949E-008  0.1793615E+03  0.7561462E-02  0.1070160E+00
         22   -1    0    0    0    0  0.00000000000E+00  0.00000000000E+00  0.82187422517E+03  0.82187422517E+03  0.00000000000E+00 0. -1.
         22   -1    0    0    0    0 -0.00000000000E+00 -0.00000000000E+00 -0.31904570856E+03  0.31904570856E+03  0.00000000000E+00 0. -1.
        -24    2    1    2    0    0 -0.60581493328E+02  0.10687988618E+03 -0.18570606496E+03  0.23740040976E+03  0.82333374670E+02 0.  0.
         25    2    1    2    0    0  0.14946677788E+03 -0.84286132983E+02  0.83273943621E+01  0.21251265318E+03  0.12509121617E+03 0.  0.
         24    2    1    2    0    0 -0.88885284548E+02 -0.22593753196E+02  0.68020718722E+03  0.69100687079E+03  0.79985038887E+02 0.  0.
        -13    1    5    5    0    0 -0.14231552330E+02  0.13335685475E+02  0.31631055238E+02  0.37160479603E+02  0.00000000000E+00 0.  1.
         14    1    5    5    0    0 -0.74653732218E+02 -0.35929438671E+02  0.64857613198E+03  0.65384639119E+03  0.00000000000E+00 0. -1.
         11    1    3    3    0    0 -0.39618644070E+02  0.92887220601E+02 -0.80287182633E+02  0.12901048176E+03  0.00000000000E+00 0. -1.
        -12    1    3    3    0    0 -0.20962849258E+02  0.13992665578E+02 -0.10541888233E+03  0.10838992800E+03  0.00000000000E+00 0.  1.
          5    1    4    4  501    0  0.93866904517E+01 -0.70370206095E+02  0.89670691348E+01  0.71679540961E+02  0.41800000000E+01 0.  1.
         -5    1    4    4    0  501  0.14008008742E+03 -0.13915926888E+02 -0.63967477267E+00  0.14083311222E+03  0.41800000000E+01 0.  1.
</event>
<event>
11    1  0.1003949E-008  0.1505051E+03  0.7561462E-02  0.1096364E+00
         22   -1    0    0    0    0  0.00000000000E+00  0.00000000000E+00  0.42747956783E+03  0.42747956783E+03  0.00000000000E+00 0. -1.
         22   -1    0    0    0    0 -0.00000000000E+00 -0.00000000000E+00 -0.78465288930E+03  0.78465288930E+03  0.00000000000E+00 0. -1.
        -24    2    1    2    0    0  0.28461595965E+01 -0.26519976389E+02 -0.47914616946E+03  0.48626065080E+03  0.78466292363E+02 0.  0.
         25    2    1    2    0    0  0.56384305183E+02 -0.33420894067E+02 -0.27659097179E+03  0.31055806674E+03  0.12509037177E+03 0.  0.
         24    2    1    2    0    0 -0.59230464779E+02  0.59940870457E+02  0.39856381978E+03  0.41531373960E+03  0.80816012960E+02 0.  0.
        -11    1    5    5    0    0  0.15929523092E+02  0.33065788082E+02  0.13806421217E+03  0.14285945096E+03  0.00000000000E+00 0.  1.
         12    1    5    5    0    0 -0.75159987872E+02  0.26875082374E+02  0.26049960761E+03  0.27245428863E+03  0.00000000000E+00 0. -1.
         11    1    3    3    0    0  0.25934512723E+01 -0.51999876693E+02 -0.39272783436E+03  0.39616393708E+03  0.00000000000E+00 0. -1.
        -12    1    3    3    0    0  0.25270832417E+00  0.25479900304E+02 -0.86418335100E+02  0.90096713716E+02  0.00000000000E+00 0.  1.
          5    1    4    4  501    0  0.52510661818E+01 -0.18001515362E+02  0.81152784159E+01  0.20855656191E+02  0.41800000000E+01 0.  1.
         -5    1    4    4    0  501  0.51133239001E+02 -0.15419378705E+02 -0.28470625021E+03  0.28970241055E+03  0.41800000000E+01 0.  1.
</event>
<event>
11    1  0.1003949E-008  0.1321441E+03  0.7561462E-02  0.1116662E+00
         22   -1    0    0    0    0  0.00000000000E+00  0.00000000000E+00  0.20274652893E+04  0.20274652893E+04  0.00000000000E+00 0. -1.
         22   -1    0    0    0    0 -0.00000000000E+00 -0.00000000000E+00 -0.32658811828E+02  0.32658811828E+02  0.00000000000E+00 0. -1.
        -24    2    1    2    0    0 -0.32581011152E+01  0.23394766856E+02  0.54750859755E+02  0.10015806061E+03  0.80473909578E+02 0.  0.
         25    2    1    2    0    0  0.35555522126E+02 -0.47029203530E+02  0.55807820015E+03  0.57495576164E+03  0.12508760618E+03 0.  0.
         24    2    1    2    0    0 -0.32297421010E+02  0.23634436674E+02  0.13819774175E+04  0.13850102788E+04  0.82402548057E+02 0.  0.
        -13    1    5    5    0    0 -0.26378735170E+02  0.52111673500E+02  0.70783438035E+03  0.71024008208E+03  0.00000000000E+00 0.  1.
         14    1    5    5    0    0 -0.59186858408E+01 -0.28477236826E+02  0.67414303718E+03  0.67477019676E+03  0.00000000000E+00 0. -1.
         11    1    3    3    0    0 -0.20215636157E+02  0.42217633636E+02  0.87167097028E+01  0.47612829816E+02  0.00000000000E+00 0. -1.
        -12    1    3    3    0    0  0.16957535042E+02 -0.18822866780E+02  0.46034150052E+02  0.52545230797E+02  0.00000000000E+00 0.  1.
          5    1    4    4  501    0  0.27839439469E+02  0.99158602735E+01  0.46173168793E+03  0.46269534546E+03  0.41800000000E+01 0. -1.
         -5    1    4    4    0  501  0.77160826563E+01 -0.56945063804E+02  0.96346512227E+02  0.11226041618E+03  0.41800000000E+01 0. -1.
</event>
<event>
11    1  0.1003949E-008  0.1276617E+03  0.7561462E-02  0.1122176E+00
         22   -1    0    0    0    0  0.00000000000E+00  0.00000000000E+00  0.57610481296E+03  0.57610481296E+03  0.00000000000E+00 0.  1.
         22   -1    0    0    0    0 -0.00000000000E+00 -0.00000000000E+00 -0.21240205899E+04  0.21240205899E+04  0.00000000000E+00 0.  1.
         24    2    1    2    0    0 -0.11266020439E+02  0.21003801719E+02 -0.14629464505E+04  0.14652952621E+04  0.79434281388E+02 0.  0.
         25    2    1    2    0    0 -0.11482243485E+02 -0.93019824261E+01 -0.65068503904E+03  0.66276489560E+03  0.12509163852E+03 0.  0.
        -24    2    1    2    0    0  0.22748263924E+02 -0.11701819292E+02  0.56571571263E+03  0.57206524518E+03  0.81055296800E+02 0.  0.
        -11    1    3    3    0    0 -0.42327304806E+02  0.13944039387E+02 -0.55351011919E+03  0.55530125969E+03  0.00000000000E+00 0.  1.
         12    1    3    3    0    0  0.31061284367E+02  0.70597623318E+01 -0.90943633132E+03  0.90999400237E+03  0.00000000000E+00 0. -1.
         11    1    5    5    0    0 -0.21956279438E+02  0.10327625409E+02  0.75046715516E+02  0.78871715862E+02  0.00000000000E+00 0. -1.
        -12    1    5    5    0    0  0.44704543362E+02 -0.22029444701E+02  0.49066899711E+03  0.49319352931E+03  0.00000000000E+00 0.  1.
          5    1    4    4  501    0  0.29449771706E+01 -0.43975749632E+01 -0.64634302840E+03  0.64637821306E+03  0.41800000000E+01 0.  1.
         -5    1    4    4    0  501 -0.14427220655E+02 -0.49044074629E+01 -0.43420106333E+01  0.16386682542E+02  0.41800000000E+01 0.  1.
</event>
<event>
11    1  0.1003949E-008  0.1341328E+03  0.7561462E-02  0.1114293E+00
         22   -1    0    0    0    0  0.00000000000E+00  0.00000000000E+00  0.14704009921E+04  0.14704009921E+04  0.00000000000E+00 0. -1.
         22   -1    0    0    0    0 -0.00000000000E+00 -0.00000000000E+00 -0.23038288850E+03  0.23038288850E+03  0.00000000000E+00 0. -1.
         24    2    1    2    0    0  0.12694223434E+02 -0.48351035923E+02 -0.20255781854E+03  0.22325689200E+03  0.79466999364E+02 0.  0.
         25    2    1    2    0    0  0.10421778685E+02  0.15355191369E+02  0.23699729524E+03  0.26860905773E+03  0.12505483825E+03 0.  0.
        -24    2    1    2    0    0 -0.23116002119E+02  0.32995844554E+02  0.12055786269E+04  0.12089179309E+04  0.80247508653E+02 0.  0.
        -13    1    3    3    0    0  0.10723694160E+02  0.18853541624E+02 -0.23436415098E+02  0.31933042462E+02  0.00000000000E+00 0.  1.
         14    1    3    3    0    0  0.19705292739E+01 -0.67204577547E+02 -0.17912140345E+03  0.19132384954E+03  0.00000000000E+00 0. -1.
         11    1    5    5    0    0 -0.38845231930E+02  0.19580743684E+02  0.30342451247E+03  0.30652698468E+03  0.00000000000E+00 0. -1.
        -12    1    5    5    0    0  0.15729229811E+02  0.13415100869E+02  0.90215411442E+03  0.90239094619E+03  0.00000000000E+00 0.  1.
          5    1    4    4  501    0 -0.76208619858E+01  0.62304452542E+02  0.69822110268E+02  0.93981497255E+02  0.41800000000E+01 0.  1.
         -5    1    4    4    0  501  0.18042640671E+02 -0.46949261173E+02  0.16717518497E+03  0.17462756048E+03  0.41800000000E+01 0.  1.
</event>
<event>
11    1  0.1003949E-008  0.1580188E+03  0.7561462E-02  0.1088956E+00
         22   -1    0    0    0    0  0.00000000000E+00  0.00000000000E+00  0.72719438715E+02  0.72719438715E+02  0.00000000000E+00 0. -1.
         22   -1    0    0    0    0 -0.00000000000E+00 -0.00000000000E+00 -0.19555940912E+04  0.19555940912E+04  0.00000000000E+00 0.  1.
        -24    2    1    2    0    0  0.11717300629E+02  0.23235521819E+02 -0.14361592916E+04  0.14385984725E+04  0.79591893068E+02 0.  0.
         25    2    1    2    0    0  0.75173378482E+02 -0.65329903515E+02 -0.43532772769E+03  0.46376285779E+03  0.12508686840E+03 0.  0.
         24    2    1    2    0    0 -0.86890679111E+02  0.42094381696E+02 -0.11387633205E+02  0.12595219970E+03  0.80077158612E+02 0.  0.
        -11    1    5    5    0    0 -0.71921867173E+02  0.62778927366E+02 -0.22537467325E+02  0.98091213329E+02  0.00000000000E+00 0.  1.
         12    1    5    5    0    0 -0.14968811938E+02 -0.20684545670E+02  0.11149834120E+02  0.27860986367E+02  0.00000000000E+00 0. -1.
         13    1    3    3    0    0  0.19926493887E+01 -0.28885855032E+02 -0.37543216952E+03  0.37654704511E+03  0.00000000000E+00 0. -1.
        -14    1    3    3    0    0  0.97246512403E+01  0.52121376852E+02 -0.10607271221E+04  0.10620514273E+04  0.00000000000E+00 0.  1.
          5    1    4    4  501    0  0.10737583871E+03 -0.54235960831E+02 -0.38047073894E+03  0.39905709588E+03  0.41800000000E+01 0.  1.
         -5    1    4    4    0  501 -0.32202460233E+02 -0.11093942684E+02 -0.54856988752E+02  0.64705761909E+02  0.41800000000E+01 0.  1.
</event>
<event>
11    1  0.1003949E-008  0.1464391E+04  0.7561462E-02  0.8331003E-01
         22   -1    0    0    0    0  0.00000000000E+00  0.00000000000E+00  0.29850409930E+03  0.29850409930E+03  0.00000000000E+00 0. -1.
         22   -1    0    0    0    0 -0.00000000000E+00 -0.00000000000E+00 -0.17959903042E+04  0.17959903042E+04  0.00000000000E+00 0. -1.
        -24    2    1    2    0    0  0.16279378182E+03  0.55207288250E+03 -0.10567331845E+04  0.12059327995E+04  0.79388983673E+02 0.  0.
         25    2    1    2    0    0 -0.23242620853E+03 -0.57883266435E+03 -0.28180588313E+03  0.69579546869E+03  0.12509029841E+03 0.  0.
         24    2    1    2    0    0  0.69632426706E+02  0.26759781846E+02 -0.15894713725E+03  0.19276613528E+03  0.79560226860E+02 0.  0.
        -11    1    5    5    0    0  0.66756633424E+02 -0.88147619413E+01 -0.13151604295E+03  0.14775187879E+03  0.00000000000E+00 0.  1.
         12    1    5    5    0    0  0.28757932820E+01  0.35574543787E+02 -0.27431094304E+02  0.45014256490E+02  0.00000000000E+00 0. -1.
         11    1    3    3    0    0  0.10773858612E+03  0.23691217775E+03 -0.50624914828E+03  0.56923034269E+03  0.00000000000E+00 0. -1.
        -12    1    3    3    0    0  0.55055195705E+02  0.31516070475E+03 -0.55048403623E+03  0.63670245683E+03  0.00000000000E+00 0.  1.
          5    1    4    4  501    0 -0.69659969295E+01 -0.51612642257E+02  0.87295788208E+01  0.52972331461E+02  0.41800000000E+01 0. -1.
         -5    1    4    4    0  501 -0.22546021160E+03 -0.52722002209E+03 -0.29053546195E+03  0.64282313723E+03  0.41800000000E+01 0. -1.
</event>
<event>
11    1  0.1003949E-008  0.1578588E+03  0.7561462E-02  0.1089109E+00
         22   -1    0    0    0    0  0.00000000000E+00  0.00000000000E+00  0.13618767530E+04  0.13618767530E+04  0.00000000000E+00 0. -1.
         22   -1    0    0    0    0 -0.00000000000E+00 -0.00000000000E+00 -0.50770311700E+03  0.50770311700E+03  0.00000000000E+00 0.  1.
        -24    2    1    2    0    0 -0.81952918264E+02 -0.49479757315E+02 -0.46492294604E+03  0.48170784756E+03  0.82003520921E+02 0.  0.
         25    2    1    2    0    0  0.72561462859E+02  0.94979288102E+02  0.19814526350E+03  0.26305117736E+03  0.12509254735E+03 0.  0.
         24    2    1    2    0    0  0.93914554045E+01 -0.45499530787E+02  0.11209513186E+04  0.11248208451E+04  0.80818736984E+02 0.  0.
        -11    1    5    5    0    0  0.40444088344E+01  0.12454008522E+02  0.35962288366E+02  0.38271997016E+02  0.00000000000E+00 0.  1.
         12    1    5    5    0    0  0.53470465701E+01 -0.57953539309E+02  0.10849890302E+04  0.10865488481E+04  0.00000000000E+00 0. -1.
         11    1    3    3    0    0  0.15742768679E+02 -0.34711214626E+01 -0.94508083076E+02  0.95873151699E+02  0.00000000000E+00 0. -1.
        -12    1    3    3    0    0 -0.97695686943E+02 -0.46008635852E+02 -0.37041486297E+03  0.38583469586E+03  0.00000000000E+00 0.  1.
          5    1    4    4  501    0  0.68143166098E+02 -0.26463941160E+01  0.46677287306E+02  0.82745006121E+02  0.41800000000E+01 0.  1.
         -5    1    4    4    0  501  0.44182967611E+01  0.97625682218E+02  0.15146797619E+03  0.18030617124E+03  0.41800000000E+01 0.  1.
</event>
<event>
11    1  0.1003949E-008  0.1861647E+03  0.7561462E-02  0.1064763E+00
         22   -1    0    0    0    0  0.00000000000E+00  0.00000000000E+00  0.23317420470E+04  0.23317420470E+04  0.00000000000E+00 0.  1.
         22   -1    0    0    0    0 -0.00000000000E+00 -0.00000000000E+00 -0.22316145694E+02  0.22316145694E+02  0.00000000000E+00 0. -1.
        -24    2    1    2    0    0 -0.47194707460E+02 -0.11201527152E+03  0.62629036424E+03  0.64327793065E+03  0.82414284285E+02 0.  0.
         25    2    1    2    0    0  0.10489193866E+03  0.11631302401E+03  0.12681884672E+04  0.12839346066E+04  0.12512013223E+03 0.  0.
         24    2    1    2    0    0 -0.57697231196E+02 -0.42977524903E+01  0.41494706989E+03  0.42684565541E+03  0.81662118309E+02 0.  0.
        -11    1    5    5    0    0 -0.76304392232E+02  0.80528541437E+01  0.29358364043E+03  0.30344449684E+03  0.00000000000E+00 0.  1.
         12    1    5    5    0    0  0.18607161036E+02 -0.12350606634E+02  0.12136342946E+03  0.12340115857E+03  0.00000000000E+00 0. -1.
         13    1    3    3    0    0  0.42348428010E+01 -0.42302780113E+02  0.84362213118E+02  0.94469265378E+02  0.00000000000E+00 0. -1.
        -14    1    3    3    0    0 -0.51429550261E+02 -0.69712491405E+02  0.54192815112E+03  0.54880866527E+03  0.00000000000E+00 0.  1.
          5    1    4    4  501    0 -0.26900047383E+02  0.27346458694E+02  0.17269543316E+03  0.17695374081E+03  0.41800000000E+01 0.  1.
         -5    1    4    4    0  501  0.13179198604E+03  0.88966565314E+02  0.10954930340E+04  0.11069808658E+04  0.41800000000E+01 0.  1.
</event>
<event>
11    1  0.1003949E-008  0.1244738E+04  0.7561462E-02  0.8475747E-01
         22   -1    0    0    0    0  0.00000000000E+00  0.00000000000E+00  0.30158070020E+03  0.30158070020E+03  0.00000000000E+00 0. -1.
         22   -1    0    0    0    0 -0.00000000000E+00 -0.00000000000E+00 -0.12843765422E+04  0.12843765422E+04  0.00000000000E+00 0. -1.
         24    2    1    2    0    0  0.12505254999E+03  0.22155980572E+03 -0.15850949645E+03  0.31169970653E+03  0.85466711770E+02 0.  0.
         25    2    1    2    0    0 -0.22540597220E+03 -0.42025517731E+03 -0.89977616943E+03  0.10259961971E+04  0.12509506435E+03 0.  0.
        -24    2    1    2    0    0  0.10035342221E+03  0.19869537159E+03  0.75489823880E+02  0.24826133871E+03  0.79901932068E+02 0.  0.
        -11    1    3    3    0    0  0.73226054922E+02  0.55107883066E+02 -0.74870349635E+02  0.11834062341E+03  0.00000000000E+00 0.  1.
         12    1    3    3    0    0  0.51826495066E+02  0.16645192265E+03 -0.83639146811E+02  0.19335908312E+03  0.00000000000E+00 0. -1.
         13    1    5    5    0    0  0.10835187136E+03  0.14652104743E+03  0.69916054720E+02  0.19518401593E+03  0.00000000000E+00 0. -1.
        -14    1    5    5    0    0 -0.79984491553E+01  0.52174324163E+02  0.55737691599E+01  0.53077322779E+02  0.00000000000E+00 0.  1.
          5    1    4    4  501    0 -0.18038820089E+03 -0.39159040140E+03 -0.84902108106E+03  0.95222750116E+03  0.41800000000E+01 0. -1.
         -5    1    4    4    0  501 -0.45017771309E+02 -0.28664775913E+02 -0.50755088377E+02  0.73768695989E+02  0.41800000000E+01 0. -1.
</event>
<event>
11    1  0.1003949E-008  0.2111325E+03  0.7561462E-02  0.1046919E+00
         22   -1    0    0    0    0  0.00000000000E+00  0.00000000000E+00  0.18204444513E+04  0.18204444513E+04  0.00000000000E+00 0. -1.
         22   -1    0    0    0    0 -0.00000000000E+00 -0.00000000000E+00 -0.79581376144E+02  0.79581376144E+02  0.00000000000E+00 0. -1.
        -24    2    1    2    0    0 -0.52683443869E+02  0.14266995907E+03  0.11677205354E+03  0.20833164684E+03  0.81462261859E+02 0.  0.
         25    2    1    2    0    0  0.14816607737E+03 -0.20693431814E+03  0.67374031104E+03  0.73098746704E+03  0.12506666919E+03 0.  0.
         24    2    1    2    0    0 -0.95482633503E+02  0.64264359068E+02  0.95035071053E+03  0.96070671352E+03  0.80895458763E+02 0.  0.
        -11    1    5    5    0    0 -0.50647116998E+02  0.71989325631E+01  0.18561993717E+03  0.19254016767E+03  0.00000000000E+00 0.  1.
         12    1    5    5    0    0 -0.44835516506E+02  0.57065426505E+02  0.76473077336E+03  0.76816654585E+03  0.00000000000E+00 0. -1.
         11    1    3    3    0    0 -0.71886255815E+02  0.95826008876E+02  0.96383989159E+02  0.15375347514E+03  0.00000000000E+00 0. -1.
        -12    1    3    3    0    0  0.19202811946E+02  0.46843950195E+02  0.20388064382E+02  0.54578171697E+02  0.00000000000E+00 0.  1.
          5    1    4    4  501    0  0.55994381690E+02 -0.53893361587E+01  0.86112512143E+02  0.10294295932E+03  0.41800000000E+01 0.  1.
         -5    1    4    4    0  501  0.92171695682E+02 -0.20154498198E+03  0.58762779890E+03  0.62804450773E+03  0.41800000000E+01 0.  1.
</event>
<event>
11    1  0.1003949E-008  0.1506109E+03  0.7561462E-02  0.1096256E+00
         22   -1    0    0    0    0  0.00000000000E+00  0.00000000000E+00  0.13032115881E+04  0.13032115881E+04  0.00000000000E+00 0. -1.
         22   -1    0    0    0    0 -0.00000000000E+00 -0.00000000000E+00 -0.11749094826E+03  0.11749094826E+03  0.00000000000E+00 0.  1.
         24    2    1    2    0    0  0.15368766574E+02  0.65877158704E+01 -0.52259290078E+02  0.95382723327E+02  0.78020724961E+02 0.  0.
         25    2    1    2    0    0  0.48845433994E+02  0.49263895108E+02  0.86510587641E+02  0.16716308482E+03  0.12508639962E+03 0.  0.
        -24    2    1    2    0    0 -0.64214200568E+02 -0.55851610979E+02  0.11514693423E+04  0.11581567282E+04  0.90567626034E+02 0.  0.
        -11    1    3    3    0    0  0.15514932798E+02 -0.32188767309E+02 -0.81464831100E+01  0.36649625750E+02  0.00000000000E+00 0.  1.
         12    1    3    3    0    0 -0.14616622422E+00  0.38776483179E+02 -0.44112806968E+02  0.58733097576E+02  0.00000000000E+00 0. -1.
         11    1    5    5    0    0 -0.24672636463E+02 -0.59237713118E+02  0.98233444782E+03  0.98442816550E+03  0.00000000000E+00 0. -1.
        -12    1    5    5    0    0 -0.39541564105E+02  0.33861021392E+01  0.16913489449E+03  0.17372856275E+03  0.00000000000E+00 0.  1.
          5    1    4    4  501    0  0.70122692052E+02  0.76033189027E+02  0.44087349247E+02  0.11251401930E+03  0.41800000000E+01 0.  1.
         -5    1    4    4    0  501 -0.21277258058E+02 -0.26769293919E+02  0.42423238394E+02  0.54649065529E+02  0.41800000000E+01 0.  1.
</event>
<event>
11    1  0.1003949E-008  0.1329999E+03  0.7561462E-02  0.1115637E+00
         22   -1    0    0    0    0  0.00000000000E+00  0.00000000000E+00  0.86020699964E+02  0.86020699964E+02  0.00000000000E+00 0. -1.
         22   -1    0    0    0    0 -0.00000000000E+00 -0.00000000000E+00 -0.64968613542E+03  0.64968613542E+03  0.00000000000E+00 0.  1.
        -24    2    1    2    0    0 -0.79161187740E+01 -0.15681073216E+02 -0.48150980565E+03  0.48868050339E+03  0.81537601556E+02 0.  0.
         25    2    1    2    0    0 -0.27876414553E+02  0.41045823699E+02 -0.65243525542E+02  0.14955371164E+03  0.12509093056E+03 0.  0.
         24    2    1    2    0    0  0.35792533327E+02 -0.25364750484E+02 -0.16912104264E+02  0.97472620348E+02  0.85383935479E+02 0.  0.
        -11    1    5    5    0    0  0.30068070064E+02  0.22563669342E+02 -0.29273271731E+02  0.47645906953E+02  0.00000000000E+00 0.  1.
         12    1    5    5    0    0  0.57244632628E+01 -0.47928419825E+02  0.12361167468E+02  0.49826713395E+02  0.00000000000E+00 0. -1.
         11    1    3    3    0    0  0.32280567899E+02  0.68732053377E+01 -0.12834423169E+03  0.13251987709E+03  0.00000000000E+00 0. -1.
        -12    1    3    3    0    0 -0.40196686673E+02 -0.22554278553E+02 -0.35316557395E+03  0.35616062630E+03  0.00000000000E+00 0.  1.
          5    1    4    4  501    0 -0.63759989626E+01  0.74371149537E+02 -0.77649493697E+02  0.10778978392E+03  0.41800000000E+01 0.  1.
         -5    1    4    4    0  501 -0.21500415590E+02 -0.33325325838E+02  0.12405968155E+02  0.41763927720E+02  0.41800000000E+01 0.  1.
</event>
<event>
11    1  0.1003949E-008  0.1582179E+03  0.7561462E-02  0.1088766E+00
         22   -1    0    0    0    0  0.00000000000E+00  0.00000000000E+00  0.63726992002E+03  0.63726992002E+03  0.00000000000E+00 0.  1.
         22   -1    0    0    0    0 -0.00000000000E+00 -0.00000000000E+00 -0.61598778607E+03  0.61598778607E+03  0.00000000000E+00 0. -1.
         24    2    1    2    0    0  0.80398092940E+02 -0.59088073113E+02 -0.54089459954E+03  0.55671973210E+03  0.86108295571E+02 0.  0.
         25    2    1    2    0    0 -0.44627588179E+02  0.53139597203E+02  0.16450276449E+02  0.14398821741E+03  0.12508619724E+03 0.  0.
        -24    2    1    2    0    0 -0.35770504762E+02  0.59484759109E+01  0.54572645704E+03  0.55254975658E+03  0.78606324181E+02 0.  0.
        -13    1    3    3    0    0 -0.35213715129E+01 -0.42175546932E+02 -0.12101898877E+03  0.12820597669E+03  0.00000000000E+00 0.  1.
         14    1    3    3    0    0  0.83919464453E+02 -0.16912526182E+02 -0.41987561078E+03  0.42851375542E+03  0.00000000000E+00 0. -1.
         11    1    5    5    0    0 -0.32298671752E+02  0.40522224134E+02  0.32637076521E+03  0.33045897056E+03  0.00000000000E+00 0. -1.
        -12    1    5    5    0    0 -0.34718330096E+01 -0.34573748223E+02  0.21935569184E+03  0.22209078601E+03  0.00000000000E+00 0.  1.
          5    1    4    4  501    0  0.45111382056E+01  0.83885885772E+02  0.17275378976E+02  0.85866776569E+02  0.41800000000E+01 0.  1.
         -5    1    4    4    0  501 -0.49138726384E+02 -0.30746288569E+02 -0.82510252679E+00  0.58121440843E+02  0.41800000000E+01 0.  1.
</event>
<event>
11    1  0.1003949E-008  0.1652044E+03  0.7561462E-02  0.1082282E+00
         22   -1    0    0    0    0  0.00000000000E+00  0.00000000000E+00  0.22517478701E+03  0.22517478701E+03  0.00000000000E+00 0. -1.
         22   -1    0    0    0    0 -0.00000000000E+00 -0.00000000000E+00 -0.33276759299E+04  0.33276759299E+04  0.00000000000E+00 0. -1.
        -24    2    1    2    0    0  0.10459786663E+03 -0.25611664839E+02 -0.30782709964E+04  0.30811840993E+04  0.79664640568E+02 0.  0.
         25    2    1    2    0    0 -0.11707510157E+03 -0.49606419074E+01 -0.20698871965E+03  0.26874170062E+03  0.12508630706E+03 0.  0.
         24    2    1    2    0    0  0.12477234942E+02  0.30572306746E+02  0.18275857317E+03  0.20292491706E+03  0.81777005104E+02 0.  0.
        -11    1    5    5    0    0 -0.24661880699E+02 -0.14175198896E+02  0.43071464754E+02  0.51616816053E+02  0.00000000000E+00 0.  1.
         12    1    5    5    0    0  0.37139115641E+02  0.44747505642E+02  0.13968710842E+03  0.15130810101E+03  0.00000000000E+00 0. -1.
         13    1    3    3    0    0  0.99513056448E+02 -0.24772323152E+02 -0.18100975315E+04  0.18130001627E+04  0.00000000000E+00 0. -1.
        -14    1    3    3    0    0  0.50848101837E+01 -0.83934168628E+00 -0.12681734650E+04  0.12681839366E+04  0.00000000000E+00 0.  1.
          5    1    4    4  501    0 -0.71083202723E+02  0.42217312887E+02 -0.45910320498E+02  0.94659141899E+02  0.41800000000E+01 0.  1.
         -5    1    4    4    0  501 -0.45991898850E+02 -0.47177954794E+02 -0.16107839915E+03  0.17408255872E+03  0.41800000000E+01 0.  1.
</event>
<event>
11    1  0.1003949E-008  0.1377602E+03  0.7561462E-02  0.1110086E+00
         22   -1    0    0    0    0  0.00000000000E+00  0.00000000000E+00  0.21378788418E+03  0.21378788418E+03  0.00000000000E+00 0.  1.
         22   -1    0    0    0    0 -0.00000000000E+00 -0.00000000000E+00 -0.22210701034E+04  0.22210701034E+04  0.00000000000E+00 0.  1.
         24    2    1    2    0    0 -0.20694416139E+02 -0.53869201729E+02 -0.20507643504E+04  0.20530592923E+04  0.78024912572E+02 0.  0.
         25    2    1    2    0    0  0.27452086031E+02  0.50704089823E+02 -0.13092243659E+03  0.19003983528E+03  0.12509969161E+03 0.  0.
        -24    2    1    2    0    0 -0.67576698912E+01  0.31651119060E+01  0.17440456782E+03  0.19175885997E+03  0.79365124996E+02 0.  0.
        -13    1    3    3    0    0 -0.33669736923E+02 -0.26646204609E+02 -0.17964604966E+04  0.17969735633E+04  0.00000000000E+00 0.  1.
         14    1    3    3    0    0  0.12975320784E+02 -0.27222997120E+02 -0.25430385388E+03  0.25608572904E+03  0.00000000000E+00 0. -1.
         13    1    5    5    0    0 -0.79461691370E+01 -0.20020531490E+01 -0.66949824904E+01  0.10581711171E+02  0.00000000000E+00 0. -1.
        -14    1    5    5    0    0  0.11884992458E+01  0.51671650549E+01  0.18109955031E+03  0.18117714880E+03  0.00000000000E+00 0.  1.
          5    1    4    4  501    0 -0.99689896111E+01  0.85045622439E+02 -0.70495810748E+02  0.11099220866E+03  0.41800000000E+01 0.  1.
         -5    1    4    4    0  501  0.37421075642E+02 -0.34341532616E+02 -0.60426625840E+02  0.79047626625E+02  0.41800000000E+01 0.  1.
</event>
<event>
11    1  0.1003949E-008  0.1332855E+03  0.7561462E-02  0.1115297E+00
         22   -1    0    0    0    0  0.00000000000E+00  0.00000000000E+00  0.10956182513E+04  0.10956182513E+04  0.00000000000E+00 0. -1.
         22   -1    0    0    0    0 -0.00000000000E+00 -0.00000000000E+00 -0.10270333711E+03  0.10270333711E+03  0.00000000000E+00 0. -1.
         24    2    1    2    0    0  0.46483979208E+02  0.24694530132E+01 -0.67138891135E+02  0.11588625101E+03  0.82189621905E+02 0.  0.
         25    2    1    2    0    0 -0.33270341826E+02 -0.10949849683E+02  0.54785288803E+03  0.56304280894E+03  0.12509037899E+03 0.  0.
        -24    2    1    2    0    0 -0.13213637382E+02  0.84803966694E+01  0.51220091727E+03  0.51939252845E+03  0.84689442169E+02 0.  0.
        -11    1    3    3    0    0 -0.23861672910E+02  0.16729353149E+01 -0.20265070091E+02  0.31350457930E+02  0.00000000000E+00 0.  1.
         12    1    3    3    0    0  0.70345652117E+02  0.79651769830E+00 -0.46873821043E+02  0.84535793079E+02  0.00000000000E+00 0. -1.
         13    1    5    5    0    0 -0.28306008216E+02 -0.26735286227E+02  0.37262126466E+03  0.37464998667E+03  0.00000000000E+00 0. -1.
        -14    1    5    5    0    0  0.15092370834E+02  0.35215682897E+02  0.13957965261E+03  0.14474254178E+03  0.00000000000E+00 0.  1.
          5    1    4    4  501    0  0.34944156008E+02 -0.56342272858E+01  0.38091693860E+03  0.38258074320E+03  0.41800000000E+01 0.  1.
         -5    1    4    4    0  501 -0.68214497834E+02 -0.53156223968E+01  0.16693594943E+03  0.18046206574E+03  0.41800000000E+01 0.  1.
</event>
<event>
11    1  0.1003949E-008  0.1838007E+03  0.7561462E-02  0.1066609E+00
         22   -1    0    0    0    0  0.00000000000E+00  0.00000000000E+00  0.21284885614E+04  0.21284885614E+04  0.00000000000E+00 0. -1.
         22   -1    0    0    0    0 -0.00000000000E+00 -0.00000000000E+00 -0.34767119617E+03  0.34767119617E+03  0.00000000000E+00 0.  1.
         24    2    1    2    0    0 -0.12454532038E+03  0.16673470375E+02 -0.23229792157E+03  0.27625319722E+03  0.81018289103E+02 0.  0.
         25    2    1    2    0    0  0.19198417369E+03 -0.11136770323E+03  0.88153559177E+02  0.26959118732E+03  0.12509064718E+03 0.  0.
        -24    2    1    2    0    0 -0.67438853316E+02  0.94694232857E+02  0.19249617276E+04  0.19303153730E+04  0.84408470477E+02 0.  0.
        -11    1    3    3    0    0 -0.12938484312E+03 -0.16642976418E+01 -0.18975224025E+03  0.22967176621E+03  0.00000000000E+00 0.  1.
         12    1    3    3    0    0  0.48395227408E+01  0.18337768017E+02 -0.42545681318E+02  0.46581431011E+02  0.00000000000E+00 0. -1.
         11    1    5    5    0    0 -0.22100139944E+02  0.52915404973E+02  0.14790994687E+04  0.14802106927E+04  0.00000000000E+00 0. -1.
        -12    1    5    5    0    0 -0.45338713372E+02  0.41778827885E+02  0.44586225887E+03  0.45010468035E+03  0.00000000000E+00 0.  1.
          5    1    4    4  501    0  0.19205374678E+03 -0.62681722933E+02  0.88808436430E+02  0.22072165916E+03  0.41800000000E+01 0. -1.
         -5    1    4    4    0  501 -0.69573084323E-01 -0.48685980300E+02 -0.65487725280E+00  0.48869528158E+02  0.41800000000E+01 0. -1.
</event>
<event>
11    1  0.1003949E-008  0.2356488E+03  0.7561462E-02  0.1031835E+00
         22   -1    0    0    0    0  0.00000000000E+00  0.00000000000E+00  0.13526220987E+03  0.13526220987E+03  0.00000000000E+00 0.  1.
         22   -1    0    0    0    0 -0.00000000000E+00 -0.00000000000E+00 -0.16953148605E+04  0.16953148605E+04  0.00000000000E+00 0. -1.
        -24    2    1    2    0    0 -0.48761120366E+02  0.54276964226E+02 -0.87856559875E+03  0.88523290677E+03  0.80225633123E+02 0.  0.
         25    2    1    2    0    0 -0.15034187836E+03  0.45970665828E+01 -0.69551635264E+03  0.72250526843E+03  0.12508817972E+03 0.  0.
         24    2    1    2    0    0  0.19910299873E+03 -0.58874030809E+02  0.14029300777E+02  0.22283889515E+03  0.79700666912E+02 0.  0.
        -11    1    5    5    0    0  0.14364506484E+03 -0.47331018305E+02  0.45628463379E+02  0.15797495567E+03  0.00000000000E+00 0.  1.
         12    1    5    5    0    0  0.55457933881E+02 -0.11543012504E+02 -0.31599162602E+02  0.64863939482E+02  0.00000000000E+00 0. -1.
         11    1    3    3    0    0  0.20073466240E+02  0.33461849627E+01 -0.25578134607E+03  0.25658962957E+03  0.00000000000E+00 0. -1.
        -12    1    3    3    0    0 -0.68834586606E+02  0.50930779263E+02 -0.62278425268E+03  0.62864327720E+03  0.00000000000E+00 0.  1.
          5    1    4    4  501    0 -0.39228910415E+02 -0.36530747330E+02 -0.40767448076E+03  0.41120476356E+03  0.41800000000E+01 0.  1.
         -5    1    4    4    0  501 -0.11111296794E+03  0.41127813913E+02 -0.28784187188E+03  0.31130050487E+03  0.41800000000E+01 0.  1.
</event>
<event>
11    1  0.1003949E-008  0.1546278E+03  0.7561462E-02  0.1092242E+00
         22   -1    0    0    0    0  0.00000000000E+00  0.00000000000E+00  0.45036961763E+03  0.45036961763E+03  0.00000000000E+00 0. -1.
         22   -1    0    0    0    0 -0.00000000000E+00 -0.00000000000E+00 -0.13904412083E+04  0.13904412083E+04  0.00000000000E+00 0. -1.
        -24    2    1    2    0    0 -0.30592985667E+02  0.68089282323E+01 -0.13471718885E+04  0.13497487136E+04  0.77247656682E+02 0.  0.
         25    2    1    2    0    0 -0.47600188202E+02  0.59502524083E+02  0.19900277974E+03  0.24709736496E+03  0.12509465671E+03 0.  0.
         24    2    1    2    0    0  0.78193173870E+02 -0.66311452316E+02  0.20809751809E+03  0.24396474734E+03  0.75517148793E+02 0.  0.
        -13    1    5    5    0    0  0.11538641356E+02 -0.56962474802E+02  0.75667398921E+02  0.95411839095E+02  0.00000000000E+00 0.  1.
         14    1    5    5    0    0  0.66654532514E+02 -0.93489775131E+01  0.13243011917E+03  0.14855290825E+03  0.00000000000E+00 0. -1.
         13    1    3    3    0    0 -0.74729534246E+01 -0.47515427649E+01 -0.12171509180E+04  0.12171831330E+04  0.00000000000E+00 0. -1.
        -14    1    3    3    0    0 -0.23120032243E+02  0.11560470997E+02 -0.13002097047E+03  0.13256558053E+03  0.00000000000E+00 0.  1.
          5    1    4    4  501    0 -0.34119911227E+02  0.89529915306E+02  0.18982066999E+03  0.21267142081E+03  0.41800000000E+01 0. -1.
         -5    1    4    4    0  501 -0.13480276975E+02 -0.30027391223E+02  0.91821097552E+01  0.34425944149E+02  0.41800000000E+01 0. -1.
</event>
<event>
11    1  0.1003949E-008  0.1397180E+03  0.7561462E-02  0.1107874E+00
         22   -1    0    0    0    0  0.00000000000E+00  0.00000000000E+00  0.94146750748E+03  0.94146750748E+03  0.00000000000E+00 0. -1.
         22   -1    0    0    0    0 -0.00000000000E+00 -0.00000000000E+00 -0.17046928187E+03  0.17046928187E+03  0.00000000000E+00 0.  1.
        -24    2    1    2    0    0  0.59487240700E+02 -0.82161120825E+01 -0.12535314013E+03  0.16084921669E+03  0.80949518013E+02 0.  0.
         25    2    1    2    0    0 -0.89415601162E+02  0.41049873406E+02  0.23828423508E+03  0.28654289065E+03  0.12508880707E+03 0.  0.
         24    2    1    2    0    0  0.29928360462E+02 -0.32833761324E+02  0.65806713065E+03  0.66454468201E+03  0.81200512894E+02 0.  0.
        -11    1    5    5    0    0  0.25048577171E+02 -0.57752261112E+02  0.36583908232E+03  0.37121555602E+03  0.00000000000E+00 0.  1.
         12    1    5    5    0    0  0.48797832908E+01  0.24918499788E+02  0.29222804834E+03  0.29332912598E+03  0.00000000000E+00 0. -1.
         11    1    3    3    0    0 -0.15920102642E+02  0.67141530369E+01 -0.49038998071E+01  0.17960449673E+02  0.00000000000E+00 0. -1.
        -12    1    3    3    0    0  0.75407343342E+02 -0.14930265119E+02 -0.12044924032E+03  0.14288876702E+03  0.00000000000E+00 0.  1.
          5    1    4    4  501    0 -0.10600982035E+03  0.66859089895E+01  0.21932178314E+03  0.24372587131E+03  0.41800000000E+01 0.  1.
         -5    1    4    4    0  501  0.16594219186E+02  0.34363964417E+02  0.18962451943E+02  0.42817019333E+02  0.41800000000E+01 0.  1.
</event>
<event>
11    1  0.1003949E-008  0.1664421E+03  0.7561462E-02  0.1081170E+00
         22   -1    0    0    0    0  0.00000000000E+00  0.00000000000E+00  0.54361384151E+03  0.54361384151E+03  0.00000000000E+00 0. -1.
         22   -1    0    0    0    0 -0.00000000000E+00 -0.00000000000E+00 -0.29652578815E+03  0.29652578815E+03  0.00000000000E+00 0. -1.
        -24    2    1    2    0    0 -0.29272530880E+01 -0.87893315747E+02 -0.22635482261E+03  0.25560587088E+03  0.79775007038E+02 0.  0.
         25    2    1    2    0    0 -0.87896290770E+02  0.31694550089E+01  0.98566878333E+02  0.18192329880E+03  0.12507938986E+03 0.  0.
         24    2    1    2    0    0  0.90823543858E+02  0.84723860738E+02  0.37487599764E+03  0.40261045997E+03  0.78333391195E+02 0.  0.
        -11    1    5    5    0    0  0.25289157294E+02  0.40790020230E+02  0.54306736036E+02  0.72474745987E+02  0.00000000000E+00 0.  1.
         12    1    5    5    0    0  0.65534386564E+02  0.43933840509E+02  0.32056926160E+03  0.33013571399E+03  0.00000000000E+00 0. -1.
         11    1    3    3    0    0  0.36557295460E+02 -0.25324365394E+02 -0.93554545339E+02  0.10358673799E+03  0.00000000000E+00 0. -1.
        -12    1    3    3    0    0 -0.39484548548E+02 -0.62568950353E+02 -0.13280027727E+03  0.15201913289E+03  0.00000000000E+00 0.  1.
          5    1    4    4  501    0 -0.11489952126E+03  0.20059904850E+02  0.93190553254E+02  0.14935277495E+03  0.41800000000E+01 0. -1.
         -5    1    4    4    0  501  0.27003230492E+02 -0.16890449841E+02  0.53763250787E+01  0.32570523855E+02  0.41800000000E+01 0. -1.
</event>
<event>
11    1  0.1003949E-008  0.1264290E+03  0.7561462E-02  0.1123736E+00
         22   -1    0    0    0    0  0.00000000000E+00  0.00000000000E+00  0.27783163102E+03  0.27783163102E+03  0.00000000000E+00 0. -1.
         22   -1    0    0    0    0 -0.00000000000E+00 -0.00000000000E+00 -0.67941154303E+03  0.67941154303E+03  0.00000000000E+00 0. -1.
         24    2    1    2    0    0 -0.40133373340E+01  0.21238244718E+02 -0.45237477140E+03  0.45992092878E+03  0.80107159603E+02 0.  0.
         25    2    1    2    0    0  0.10107831312E+02 -0.19863013669E+00 -0.19846688422E+03  0.23481798449E+03  0.12509266167E+03 0.  0.
        -24    2    1    2    0    0 -0.60944939780E+01 -0.21039614581E+02  0.24926174360E+03  0.26250426077E+03  0.79355288796E+02 0.  0.
        -13    1    3    3    0    0 -0.10202953936E+02  0.38772816051E+01 -0.47279687993E+01  0.11894842186E+02  0.00000000000E+00 0.  1.
         14    1    3    3    0    0  0.61896166024E+01  0.17360963113E+02 -0.44764680260E+03  0.44802608660E+03  0.00000000000E+00 0. -1.
         11    1    5    5    0    0  0.36297731746E+01 -0.53467853088E+00  0.23638140453E+03  0.23640987615E+03  0.00000000000E+00 0. -1.
        -12    1    5    5    0    0 -0.97242671526E+01 -0.20504936050E+02  0.12880339077E+02  0.26094384623E+02  0.00000000000E+00 0.  1.
          5    1    4    4  501    0  0.42270813234E+02 -0.38221239144E+02 -0.42992950158E+02  0.71509096879E+02  0.41800000000E+01 0. -1.
         -5    1    4    4    0  501 -0.32162981922E+02  0.38022609008E+02 -0.15547393406E+03  0.16330888761E+03  0.41800000000E+01 0. -1.
</event>
<event>
11    1  0.1003949E-008  0.1286672E+03  0.7561462E-02  0.1120917E+00
         22   -1    0    0    0    0  0.00000000000E+00  0.00000000000E+00  0.28174285809E+03  0.28174285809E+03  0.00000000000E+00 0. -1.
         22   -1    0    0    0    0 -0.00000000000E+00 -0.00000000000E+00 -0.21452771718E+03  0.21452771718E+03  0.00000000000E+00 0. -1.
        -24    2    1    2    0    0  0.19006003388E+02 -0.10178196541E+02 -0.11712529906E+03  0.14458156447E+03  0.81979688062E+02 0.  0.
         25    2    1    2    0    0  0.69493039879E+01 -0.91255837400E+01 -0.22308912651E+02  0.12758158509E+03  0.12509118340E+03 0.  0.
         24    2    1    2    0    0 -0.25955307376E+02  0.19303780281E+02  0.20664935262E+03  0.22410742571E+03  0.80460359234E+02 0.  0.
        -11    1    5    5    0    0 -0.13761286776E+02  0.19002100928E+02  0.75671107571E+01  0.24651856291E+02  0.00000000000E+00 0.  1.
         12    1    5    5    0    0 -0.12194020600E+02  0.30167935356E+00  0.19908224186E+03  0.19945556942E+03  0.00000000000E+00 0. -1.
         11    1    3    3    0    0  0.31205499293E+02 -0.20885178623E+02 -0.12198862166E+03  0.12763697618E+03  0.00000000000E+00 0. -1.
        -12    1    3    3    0    0 -0.12199495905E+02  0.10706982082E+02  0.48633226036E+01  0.16944588292E+02  0.00000000000E+00 0.  1.
          5    1    4    4  501    0  0.41557199546E+02 -0.53391789527E+02 -0.21894817832E+02  0.71235801890E+02  0.41800000000E+01 0. -1.
         -5    1    4    4    0  501 -0.34607895558E+02  0.44266205787E+02 -0.41409481917E+00  0.56345783199E+02  0.41800000000E+01 0. -1.
</event>
<event>
11    1  0.1003949E-008  0.2593527E+04  0.7561462E-02  0.7859511E-01
         22   -1    0    0    0    0  0.00000000000E+00  0.00000000000E+00  0.79300504322E+03  0.79300504322E+03  0.00000000000E+00 0. -1.
         22   -1    0    0    0    0 -0.00000000000E+00 -0.00000000000E+00 -0.21205360788E+04  0.21205360788E+04  0.00000000000E+00 0. -1.
         24    2    1    2    0    0  0.92354384177E+03 -0.14362972487E+03 -0.10218412537E+04  0.13870333830E+04  0.78353889743E+02 0.  0.
         25    2    1    2    0    0 -0.11296120806E+04  0.33777718927E+03 -0.15553675992E+03  0.11958081448E+04  0.12509417773E+03 0.  0.
        -24    2    1    2    0    0  0.20606823881E+03 -0.19414746440E+03 -0.15015302189E+03  0.33069959424E+03  0.81602295728E+02 0.  0.
        -11    1    3    3    0    0  0.72188816314E+03 -0.86245552570E+02 -0.76262552469E+03  0.10536405964E+04  0.00000000000E+00 0.  1.
         12    1    3    3    0    0  0.20165567863E+03 -0.57384172299E+02 -0.25921572905E+03  0.33339278658E+03  0.00000000000E+00 0. -1.
         13    1    5    5    0    0  0.14111209616E+03 -0.79267472692E+02 -0.70389741611E+02  0.17649552865E+03  0.00000000000E+00 0. -1.
        -14    1    5    5    0    0  0.64956142648E+02 -0.11487999171E+03 -0.79763280283E+02  0.15420406559E+03  0.00000000000E+00 0.  1.
          5    1    4    4  501    0 -0.48469972711E+03  0.16072699998E+03 -0.12793296512E+03  0.52645162166E+03  0.41800000000E+01 0. -1.
         -5    1    4    4    0  501 -0.64491235347E+03  0.17705018929E+03 -0.27603794801E+02  0.66935652314E+03  0.41800000000E+01 0. -1.
</event>
<event>
11    1  0.1003949E-008  0.1381095E+03  0.7561462E-02  0.1109688E+00
         22   -1    0    0    0    0  0.00000000000E+00  0.00000000000E+00  0.13337271865E+04  0.13337271865E+04  0.00000000000E+00 0. -1.
         22   -1    0    0    0    0 -0.00000000000E+00 -0.00000000000E+00 -0.24268939012E+03  0.24268939012E+03  0.00000000000E+00 0.  1.
        -24    2    1    2    0    0 -0.16570254430E+02  0.59490350482E+01 -0.19403162493E+03  0.21156726509E+03  0.82477098838E+02 0.  0.
         25    2    1    2    0    0  0.18122776633E+02  0.52842376784E+02  0.86179276077E+02  0.16185043698E+03  0.12509174436E+03 0.  0.
         24    2    1    2    0    0 -0.15525222030E+01 -0.58791411832E+02  0.11988901453E+04  0.12029988746E+04  0.80061672616E+02 0.  0.
        -11    1    5    5    0    0  0.73410092086E+01  0.17798645689E+02  0.14190225815E+03  0.14320241993E+03  0.00000000000E+00 0.  1.
         12    1    5    5    0    0 -0.88935314116E+01 -0.76590057521E+02  0.10569878871E+04  0.10597964547E+04  0.00000000000E+00 0. -1.
         11    1    3    3    0    0 -0.93104395066E+01 -0.21487671771E+02 -0.10174976258E+02  0.25533007340E+02  0.00000000000E+00 0. -1.
        -12    1    3    3    0    0 -0.72598149237E+01  0.27436706819E+02 -0.18385664867E+03  0.18603425775E+03  0.00000000000E+00 0.  1.
          5    1    4    4  501    0  0.30901561717E+02 -0.22823606020E+02 -0.88411137765E+01  0.39641659919E+02  0.41800000000E+01 0. -1.
         -5    1    4    4    0  501 -0.12778785084E+02  0.75665982805E+02  0.95020389854E+02  0.12220877706E+03  0.41800000000E+01 0. -1.
</event>
<event>
11    1  0.1003949E-008  0.1861659E+03  0.7561462E-02  0.1064762E+00
         22   -1    0    0    0    0  0.00000000000E+00  0.00000000000E+00  0.32404816782E+03  0.32404816782E+03  0.00000000000E+00 0. -1.
         22   -1    0    0    0    0 -0.00000000000E+00 -0.00000000000E+00 -0.28749836447E+04  0.28749836447E+04  0.00000000000E+00 0. -1.
         24    2    1    2    0    0  0.23799369939E+02  0.13166774652E+03 -0.24679900617E+04  0.24729999271E+04  0.82770099005E+02 0.  0.
         25    2    1    2    0    0 -0.61266409865E+02 -0.18475439000E+03 -0.36192985407E+03  0.42956816554E+03  0.12509129455E+03 0.  0.
        -24    2    1    2    0    0  0.37467039926E+02  0.53086643484E+02  0.27898443887E+03  0.29646371990E+03  0.76396657568E+02 0.  0.
        -13    1    3    3    0    0  0.41946784517E+02  0.27012572922E+02 -0.93940780046E+03  0.94073175103E+03  0.00000000000E+00 0.  1.
         14    1    3    3    0    0 -0.18147414578E+02  0.10465517360E+03 -0.15285822613E+04  0.15322681761E+04  0.00000000000E+00 0. -1.
         11    1    5    5    0    0 -0.47903520305E+01  0.57414035164E+02  0.16974513224E+03  0.17925604265E+03  0.00000000000E+00 0. -1.
        -12    1    5    5    0    0  0.42257391957E+02 -0.43273916799E+01  0.10923930663E+03  0.11720767725E+03  0.00000000000E+00 0.  1.
          5    1    4    4  501    0 -0.25389723454E+02 -0.16557131694E+03 -0.34821571382E+03  0.38643260060E+03  0.41800000000E+01 0. -1.
         -5    1    4    4    0  501 -0.35876686411E+02 -0.19183073057E+02 -0.13714140244E+02  0.43135564936E+02  0.41800000000E+01 0. -1.
</event>
<event>
11    1  0.1003949E-008  0.4068400E+03  0.7561462E-02  0.9629789E-01
         22   -1    0    0    0    0  0.00000000000E+00  0.00000000000E+00  0.13990619966E+04  0.13990619966E+04  0.00000000000E+00 0.  1.
         22   -1    0    0    0    0 -0.00000000000E+00 -0.00000000000E+00 -0.22960799714E+04  0.22960799714E+04  0.00000000000E+00 0.  1.
         24    2    1    2    0    0  0.64927207995E+02  0.80265681801E+02 -0.17411846862E+04  0.17460489992E+04  0.79403239381E+02 0.  0.
         25    2    1    2    0    0 -0.21863721662E+03 -0.42972206185E+03 -0.40405961982E+03  0.64138467889E+03  0.12508735751E+03 0.  0.
        -24    2    1    2    0    0  0.15371000862E+03  0.34945638005E+03  0.12482263311E+04  0.13077082899E+04  0.79280952046E+02 0.  0.
        -11    1    3    3    0    0  0.62951477447E+02  0.89977436247E+02 -0.12639244045E+04  0.12686858271E+04  0.00000000000E+00 0.  1.
         12    1    3    3    0    0  0.19757305476E+01 -0.97117544456E+01 -0.47726028162E+03  0.47736317212E+03  0.00000000000E+00 0. -1.
         11    1    5    5    0    0  0.44060982315E+01  0.69743356949E+02  0.16923303452E+03  0.18309388169E+03  0.00000000000E+00 0. -1.
        -12    1    5    5    0    0  0.14930391039E+03  0.27971302310E+03  0.10789932966E+04  0.11246144082E+04  0.00000000000E+00 0.  1.
          5    1    4    4  501    0 -0.15918402278E+03 -0.39657494834E+03 -0.32446052444E+03  0.53656625600E+03  0.41800000000E+01 0.  1.
         -5    1    4    4    0  501 -0.59453193832E+02 -0.33147113519E+02 -0.79599095383E+02  0.10481842289E+03  0.41800000000E+01 0.  1.
</event>
<event>
11    1  0.1003949E-008  0.1601408E+03  0.7561462E-02  0.1086945E+00
         22   -1    0    0    0    0  0.00000000000E+00  0.00000000000E+00  0.11764373515E+04  0.11764373515E+04  0.00000000000E+00 0. -1.
         22   -1    0    0    0    0 -0.00000000000E+00 -0.00000000000E+00 -0.33727373973E+03  0.33727373973E+03  0.00000000000E+00 0. -1.
         24    2    1    2    0    0 -0.14434424443E+02  0.57288412564E+02 -0.29441136505E+03  0.31100581621E+03  0.80970680040E+02 0.  0.
         25    2    1    2    0    0 -0.48476476392E+02  0.29262011938E+02  0.12634881630E+03  0.18659324032E+03  0.12508708905E+03 0.  0.
        -24    2    1    2    0    0  0.62910900835E+02 -0.86550424502E+02  0.10072261605E+04  0.10161120347E+04  0.80810712210E+02 0.  0.
        -11    1    3    3    0    0  0.28230633141E+02  0.67498245625E+00 -0.64428676904E+02  0.70345423849E+02  0.00000000000E+00 0.  1.
         12    1    3    3    0    0 -0.42665057585E+02  0.56613430107E+02 -0.22998268814E+03  0.24066039236E+03  0.00000000000E+00 0. -1.
         13    1    5    5    0    0  0.29979816283E+02 -0.95237946669E+02  0.77351050016E+03  0.77992791316E+03  0.00000000000E+00 0. -1.
        -14    1    5    5    0    0  0.32931084553E+02  0.86875221668E+01  0.23371566037E+03  0.23618412156E+03  0.00000000000E+00 0.  1.
          5    1    4    4  501    0 -0.12936153927E+02  0.15296908965E+02  0.14319355423E+03  0.14464855988E+03  0.41800000000E+01 0. -1.
         -5    1    4    4    0  501 -0.35540322465E+02  0.13965102973E+02 -0.16844737923E+02  0.41944680445E+02  0.41800000000E+01 0. -1.
</event>
<event>
11    1  0.1003949E-008  0.1430817E+03  0.7561462E-02  0.1104165E+00
         22   -1    0    0    0    0  0.00000000000E+00  0.00000000000E+00  0.11623176702E+04  0.11623176702E+04  0.00000000000E+00 0.  1.
         22   -1    0    0    0    0 -0.00000000000E+00 -0.00000000000E+00 -0.77143553674E+03  0.77143553674E+03  0.00000000000E+00 0. -1.
         24    2    1    2    0    0 -0.61830575052E+02 -0.46569573623E+02 -0.44631406265E+03  0.45992635676E+03  0.79650900360E+02 0.  0.
         25    2    1    2    0    0  0.41790023213E+02  0.31820306060E+02 -0.30221522275E+03  0.33126954018E+03  0.12508608824E+03 0.  0.
        -24    2    1    2    0    0  0.20040551840E+02  0.14749267563E+02  0.11394114189E+04  0.11425573100E+04  0.80991731633E+02 0.  0.
        -11    1    3    3    0    0 -0.42515272116E+01 -0.36386612378E+02 -0.69130521197E+02  0.78237395183E+02  0.00000000000E+00 0.  1.
         12    1    3    3    0    0 -0.57579047841E+02 -0.10182961245E+02 -0.37718354145E+03  0.38168896158E+03  0.00000000000E+00 0. -1.
         13    1    5    5    0    0  0.82264731659E+01  0.42475076292E+02  0.36427585197E+03  0.36683607142E+03  0.00000000000E+00 0. -1.
        -14    1    5    5    0    0  0.11814078674E+02 -0.27725808728E+02  0.77513556691E+03  0.77572123860E+03  0.00000000000E+00 0.  1.
          5    1    4    4  501    0  0.62712285020E+02 -0.24500824589E+02 -0.10279240195E+03  0.12295068685E+03  0.41800000000E+01 0. -1.
         -5    1    4    4    0  501 -0.20922261807E+02  0.56321130649E+02 -0.19942282080E+03  0.20831885333E+03  0.41800000000E+01 0. -1.
</event>
<event>
11    1  0.1003949E-008  0.1575299E+03  0.7561462E-02  0.1089424E+00
         22   -1    0    0    0    0  0.00000000000E+00  0.00000000000E+00  0.47739075632E+03  0.47739075632E+03  0.00000000000E+00 0.  1.
         22   -1    0    0    0    0 -0.00000000000E+00 -0.00000000000E+00 -0.10750311894E+04  0.10750311894E+04  0.00000000000E+00 0. -1.
         24    2    1    2    0    0 -0.38950973424E+02  0.28888451299E+02 -0.93636549224E+03  0.94101774435E+03  0.79889543514E+02 0.  0.
         25    2    1    2    0    0  0.99871288968E+02 -0.98421470687E+02 -0.57248483802E+02  0.19643328516E+03  0.12509031285E+03 0.  0.
        -24    2    1    2    0    0 -0.60920315544E+02  0.69533019388E+02  0.39597354299E+03  0.41497091618E+03  0.82823238871E+02 0.  0.
        -13    1    3    3    0    0  0.21182624136E+01  0.37999247603E+02 -0.20900844591E+03  0.21244519367E+03  0.00000000000E+00 0.  1.
         14    1    3    3    0    0 -0.41069235837E+02 -0.91107963038E+01 -0.72735704633E+03  0.72857255067E+03  0.00000000000E+00 0. -1.
         11    1    5    5    0    0 -0.33560344902E+02  0.14173604249E+02  0.41770315515E+02  0.55425148313E+02  0.00000000000E+00 0. -1.
        -12    1    5    5    0    0 -0.27359970642E+02  0.55359415139E+02  0.35420322748E+03  0.35954576787E+03  0.00000000000E+00 0.  1.
          5    1    4    4  501    0  0.10574429671E+03 -0.72936151655E+02 -0.88062466640E+02  0.15580118400E+03  0.41800000000E+01 0. -1.
         -5    1    4    4    0  501 -0.58730077460E+01 -0.25485319032E+02  0.30813982838E+02  0.40632101158E+02  0.41800000000E+01 0. -1.
</event>
<event>
11    1  0.1376255E-008  0.1588548E+03  0.7561462E-02  0.1088159E+00
         22   -1    0    0    0    0  0.00000000000E+00  0.00000000000E+00  0.53021545029E+03  0.53021545029E+03  0.00000000000E+00 0.  1.
         22   -1    0    0    0    0 -0.00000000000E+00 -0.00000000000E+00 -0.12830635281E+04  0.12830635281E+04  0.00000000000E+00 0.  1.
        -24    2    1    2    0    0 -0.34556869741E+02  0.12443773559E+02 -0.99744070099E+03  0.10013304473E+04  0.80160388583E+02 0.  0.
         25    2    1    2    0    0  0.91279321579E+02 -0.91171567318E+02 -0.24673561371E+03  0.30525687272E+03  0.12513642969E+03 0.  0.
         24    2    1    2    0    0 -0.56722451838E+02  0.78727793758E+02  0.49132823690E+03  0.50669165838E+03  0.76925277011E+02 0.  0.
        -13    1    5    5    0    0 -0.18558720433E+02  0.63131931409E+02  0.41267411988E+03  0.41788754000E+03  0.00000000000E+00 0.  1.
         14    1    5    5    0    0 -0.38163731406E+02  0.15595862349E+02  0.78654117025E+02  0.88804118386E+02  0.00000000000E+00 0. -1.
         11    1    3    3    0    0  0.15760841715E+02  0.23748140757E+02 -0.17790763753E+03  0.18017631868E+03  0.00000000000E+00 0. -1.
        -12    1    3    3    0    0 -0.50317711456E+02 -0.11304367197E+02 -0.81953306346E+03  0.82115412860E+03  0.00000000000E+00 0.  1.
          5    1    4    4  501    0  0.16348609211E+02  0.40864825697E+01 -0.14761588693E+03  0.14863343781E+03  0.41800000000E+01 0.  1.
         -5    1    4    4    0  501  0.74930712369E+02 -0.95258049888E+02 -0.99119726787E+02  0.15662343491E+03  0.41800000000E+01 0.  1.
</event>
<event>
11    1  0.1003949E-008  0.2110955E+03  0.7561462E-02  0.1046943E+00
         22   -1    0    0    0    0  0.00000000000E+00  0.00000000000E+00  0.13796403706E+03  0.13796403706E+03  0.00000000000E+00 0.  1.
         22   -1    0    0    0    0 -0.00000000000E+00 -0.00000000000E+00 -0.51089585366E+03  0.51089585366E+03  0.00000000000E+00 0. -1.
         24    2    1    2    0    0 -0.14918481207E+03  0.11856529239E+03 -0.24818973590E+03  0.32316333553E+03  0.80762365694E+02 0.  0.
         25    2    1    2    0    0  0.73322170547E+02 -0.11574328796E+03 -0.51830362337E+02  0.19263442351E+03  0.12509590425E+03 0.  0.
        -24    2    1    2    0    0  0.75862641520E+02 -0.28220044310E+01 -0.72911718366E+02  0.13306213168E+03  0.81402138330E+02 0.  0.
        -11    1    3    3    0    0 -0.10967129223E+03  0.11842617780E+03 -0.16370759887E+03  0.22989721585E+03  0.00000000000E+00 0.  1.
         12    1    3    3    0    0 -0.39513519837E+02  0.13911458945E+00 -0.84482137026E+02  0.93266119675E+02  0.00000000000E+00 0. -1.
         11    1    5    5    0    0 -0.19714847295E+01 -0.54380972484E+01 -0.52142217478E+02  0.52462086284E+02  0.00000000000E+00 0. -1.
        -12    1    5    5    0    0  0.77834126250E+02  0.26160928174E+01 -0.20769500887E+02  0.80600045396E+02  0.00000000000E+00 0.  1.
          5    1    4    4  501    0  0.93289009228E+02 -0.84585168246E+02 -0.77021224940E+02  0.14767271725E+03  0.41800000000E+01 0. -1.
         -5    1    4    4    0  501 -0.19966838682E+02 -0.31158119713E+02  0.25190862603E+02  0.44961706259E+02  0.41800000000E+01 0. -1.
</event>
<event>
11    1  0.1003949E-008  0.1520910E+03  0.7561462E-02  0.1094761E+00
         22   -1    0    0    0    0  0.00000000000E+00  0.00000000000E+00  0.13691622514E+04  0.13691622514E+04  0.00000000000E+00 0.  1.
         22   -1    0    0    0    0 -0.00000000000E+00 -0.00000000000E+00 -0.90130566406E+02  0.90130566406E+02  0.00000000000E+00 0.  1.
        -24    2    1    2    0    0  0.10135776456E+02 -0.27192932188E+02 -0.26230019142E+02  0.91457287023E+02  0.82669413449E+02 0.  0.
         25    2    1    2    0    0 -0.54796585352E+02  0.98266260778E+02  0.22020898502E+03  0.27712517326E+03  0.12508973098E+03 0.  0.
         24    2    1    2    0    0  0.44660808895E+02 -0.71073328590E+02  0.10850527191E+04  0.10907103575E+04  0.72551187836E+02 0.  0.
        -13    1    5    5    0    0  0.40560147966E+02 -0.40933314191E+02  0.96982337546E+03  0.97153386014E+03  0.00000000000E+00 0.  1.
         14    1    5    5    0    0  0.41006609293E+01 -0.30140014399E+02  0.11522934361E+03  0.11917649733E+03  0.00000000000E+00 0. -1.
         11    1    3    3    0    0  0.71208924622E+01  0.53240371997E+01  0.27322726066E+02  0.28732974807E+02  0.00000000000E+00 0. -1.
        -12    1    3    3    0    0  0.30148839942E+01 -0.32516969387E+02 -0.53552745208E+02  0.62724312216E+02  0.00000000000E+00 0.  1.
          5    1    4    4  501    0 -0.69656233655E+02  0.11780711827E+03  0.20890223149E+03  0.24977614522E+03  0.41800000000E+01 0. -1.
         -5    1    4    4    0  501  0.14859648303E+02 -0.19540857491E+02  0.11306753533E+02  0.27349028038E+02  0.41800000000E+01 0. -1.
</event>
<event>
11    1  0.1003949E-008  0.1441840E+03  0.7561462E-02  0.1102974E+00
         22   -1    0    0    0    0  0.00000000000E+00  0.00000000000E+00  0.25189695429E+02  0.25189695429E+02  0.00000000000E+00 0.  1.
         22   -1    0    0    0    0 -0.00000000000E+00 -0.00000000000E+00 -0.22877284511E+04  0.22877284511E+04  0.00000000000E+00 0.  1.
        -24    2    1    2    0    0  0.43043855852E+02  0.14129866851E+01 -0.11686196626E+04  0.11720803660E+04  0.79029731996E+02 0.  0.
         25    2    1    2    0    0 -0.33634320048E+02  0.70432723615E+02 -0.94922390607E+03  0.96060649524E+03  0.12508708491E+03 0.  0.
         24    2    1    2    0    0 -0.94095358040E+01 -0.71845710300E+02 -0.14469518699E+03  0.18023128525E+03  0.79349061698E+02 0.  0.
        -13    1    5    5    0    0 -0.40464327058E+02 -0.62916414826E+02 -0.94318689380E+02  0.12038210907E+03  0.00000000000E+00 0.  1.
         14    1    5    5    0    0  0.31054791254E+02 -0.89292954746E+01 -0.50376497614E+02  0.59849176179E+02  0.00000000000E+00 0. -1.
         13    1    3    3    0    0  0.29082278273E+01  0.91176359084E+01 -0.15364521174E+02  0.18101314443E+02  0.00000000000E+00 0. -1.
        -14    1    3    3    0    0  0.40135628024E+02 -0.77046492233E+01 -0.11532551414E+04  0.11539790516E+04  0.00000000000E+00 0.  1.
          5    1    4    4  501    0  0.59354276769E+01  0.50062016861E+01 -0.69603642299E+03  0.69609228259E+03  0.41800000000E+01 0. -1.
         -5    1    4    4    0  501 -0.39569747725E+02  0.65426521929E+02 -0.25318748308E+03  0.26451421265E+03  0.41800000000E+01 0. -1.
</event>
<event>
11    1  0.1003949E-008  0.1496644E+03  0.7561462E-02  0.1097222E+00
         22   -1    0    0    0    0  0.00000000000E+00  0.00000000000E+00  0.71655648544E+03  0.71655648544E+03  0.00000000000E+00 0. -1.
         22   -1    0    0    0    0 -0.00000000000E+00 -0.00000000000E+00 -0.41816945849E+03  0.41816945849E+03  0.00000000000E+00 0. -1.
         24    2    1    2    0    0  0.31740382073E+02 -0.79867631269E+01 -0.30326338929E+03  0.31648161626E+03  0.84384180406E+02 0.  0.
         25    2    1    2    0    0 -0.73739160462E+02 -0.62016212036E+02 -0.41555425606E+02  0.16327338459E+03  0.12509144806E+03 0.  0.
        -24    2    1    2    0    0  0.41998778389E+02  0.70002975163E+02  0.64320584185E+03  0.65497094308E+03  0.92783982294E+02 0.  0.
        -13    1    3    3    0    0  0.32792812302E+02 -0.10973537971E+02 -0.38697815367E+02  0.51897090366E+02  0.00000000000E+00 0.  1.
         14    1    3    3    0    0 -0.10524302288E+01  0.29867748441E+01 -0.26456557393E+03  0.26458452589E+03  0.00000000000E+00 0. -1.
         13    1    5    5    0    0  0.15564990818E+02  0.88451705991E+02  0.51515230739E+03  0.52292243501E+03  0.00000000000E+00 0. -1.
        -14    1    5    5    0    0  0.26433787571E+02 -0.18448730828E+02  0.12805353446E+03  0.13204850807E+03  0.00000000000E+00 0.  1.
          5    1    4    4  501    0  0.13292338867E+01 -0.80381502995E+02 -0.21022719865E+02  0.83200841564E+02  0.41800000000E+01 0. -1.
         -5    1    4    4    0  501 -0.75068394349E+02  0.18365290959E+02 -0.20532705741E+02  0.80072543029E+02  0.41800000000E+01 0. -1.
</event>
<event>
11    1  0.1003949E-008  0.2581856E+03  0.7561462E-02  0.1019627E+00
         22   -1    0    0    0    0  0.00000000000E+00  0.00000000000E+00  0.12038979435E+04  0.12038979435E+04  0.00000000000E+00 0.  1.
         22   -1    0    0    0    0 -0.00000000000E+00 -0.00000000000E+00 -0.18585496257E+03  0.18585496257E+03  0.00000000000E+00 0. -1.
         24    2    1    2    0    0 -0.15711708483E+03 -0.99768254152E+02  0.64722976473E+02  0.21343308996E+03  0.82006934609E+02 0.  0.
         25    2    1    2    0    0  0.24981944317E+03  0.15718260097E+03  0.13650609430E+03  0.34841927952E+03  0.12508379722E+03 0.  0.
        -24    2    1    2    0    0 -0.92702358340E+02 -0.57414346823E+02  0.81681391016E+03  0.82790053659E+03  0.79650487777E+02 0.  0.
        -13    1    3    3    0    0 -0.23295666913E+02 -0.50698796297E+02 -0.24816974410E+01  0.55849931648E+02  0.00000000000E+00 0.  1.
         14    1    3    3    0    0 -0.13382141791E+03 -0.49069457855E+02  0.67204673914E+02  0.15758315831E+03  0.00000000000E+00 0. -1.
         11    1    5    5    0    0 -0.15485405551E+02 -0.27661854540E+02  0.74173817891E+02  0.80664312073E+02  0.00000000000E+00 0. -1.
        -12    1    5    5    0    0 -0.77216952789E+02 -0.29752492283E+02  0.74264009226E+03  0.74723622452E+03  0.00000000000E+00 0.  1.
          5    1    4    4  501    0  0.12772253605E+03  0.14719002748E+03  0.60098165567E+02  0.20397846041E+03  0.41800000000E+01 0.  1.
         -5    1    4    4    0  501  0.12209690712E+03  0.99925734903E+01  0.76407928737E+02  0.14444081912E+03  0.41800000000E+01 0.  1.
</event>
<event>
11    1  0.1003949E-008  0.1467135E+03  0.7561462E-02  0.1100285E+00
         22   -1    0    0    0    0  0.00000000000E+00  0.00000000000E+00  0.21044395091E+04  0.21044395091E+04  0.00000000000E+00 0.  1.
         22   -1    0    0    0    0 -0.00000000000E+00 -0.00000000000E+00 -0.11851098726E+03  0.11851098726E+03  0.00000000000E+00 0.  1.
        -24    2    1    2    0    0  0.75393350436E+02  0.12657485085E+02 -0.70444720151E+02  0.13190458267E+03  0.81191077797E+02 0.  0.
         25    2    1    2    0    0 -0.78838282448E+02 -0.75554956515E+01  0.31705634888E+03  0.34992079167E+03  0.12508905541E+03 0.  0.
         24    2    1    2    0    0  0.34449320127E+01 -0.51019894330E+01  0.17393168932E+04  0.17411251221E+04  0.79091959390E+02 0.  0.
        -11    1    5    5    0    0 -0.31075073933E+02 -0.20701534107E+02  0.11406255703E+04  0.11412365685E+04  0.00000000000E+00 0.  1.
         12    1    5    5    0    0  0.34520005945E+02  0.15599544674E+02  0.59869132288E+03  0.59988855357E+03  0.00000000000E+00 0. -1.
         13    1    3    3    0    0  0.29004655023E+00  0.99066647316E+01  0.15083838975E+02  0.18048499420E+02  0.00000000000E+00 0. -1.
        -14    1    3    3    0    0  0.75103303885E+02  0.27508203529E+01 -0.85528559125E+02  0.11385608325E+03  0.00000000000E+00 0.  1.
          5    1    4    4  501    0  0.88822516169E+01  0.44344676812E+02  0.11303415011E+03  0.12181763520E+03  0.41800000000E+01 0. -1.
         -5    1    4    4    0  501 -0.87720534065E+02 -0.51900172463E+02  0.20402219877E+03  0.22810315647E+03  0.41800000000E+01 0. -1.
</event>
<event>
11    1  0.1003949E-008  0.1621680E+03  0.7561462E-02  0.1085056E+00
         22   -1    0    0    0    0  0.00000000000E+00  0.00000000000E+00  0.27217059656E+03  0.27217059656E+03  0.00000000000E+00 0.  1.
         22   -1    0    0    0    0 -0.00000000000E+00 -0.00000000000E+00 -0.59454493774E+03  0.59454493774E+03  0.00000000000E+00 0.  1.
         24    2    1    2    0    0 -0.10540148155E+03  0.19208516597E+01 -0.48734965576E+03  0.50545725528E+03  0.82850395056E+02 0.  0.
         25    2    1    2    0    0  0.86305865091E+02 -0.21956491427E+02 -0.23032856323E+02  0.15527722968E+03  0.12509882382E+03 0.  0.
        -24    2    1    2    0    0  0.19095616464E+02  0.20035639767E+02  0.18800817090E+03  0.20598104934E+03  0.79467294748E+02 0.  0.
        -11    1    3    3    0    0 -0.51740275477E+02 -0.36916508290E-01 -0.39698409487E+03  0.40034164041E+03  0.00000000000E+00 0.  1.
         12    1    3    3    0    0 -0.53661206077E+02  0.19577681680E+01 -0.90365560892E+02  0.10511561487E+03  0.00000000000E+00 0. -1.
         13    1    5    5    0    0 -0.16065862105E+02 -0.14820366394E+02  0.16268944938E+02  0.27247637597E+02  0.00000000000E+00 0. -1.
        -14    1    5    5    0    0  0.35161478569E+02  0.34856006161E+02  0.17173922596E+03  0.17873341174E+03  0.00000000000E+00 0.  1.
          5    1    4    4  501    0  0.64775337247E+02  0.45357836281E+01 -0.70966396145E+02  0.96281459432E+02  0.41800000000E+01 0.  1.
         -5    1    4    4    0  501  0.21530527843E+02 -0.26492275055E+02  0.47933539822E+02  0.58995770244E+02  0.41800000000E+01 0.  1.
</event>
<event>
11    1  0.1003949E-008  0.1575850E+03  0.7561462E-02  0.1089371E+00
         22   -1    0    0    0    0  0.00000000000E+00  0.00000000000E+00  0.10079833296E+04  0.10079833296E+04  0.00000000000E+00 0. -1.
         22   -1    0    0    0    0 -0.00000000000E+00 -0.00000000000E+00 -0.18376107503E+03  0.18376107503E+03  0.00000000000E+00 0.  1.
         24    2    1    2    0    0  0.44674224551E+02  0.84270403542E+02 -0.13244318185E+03  0.17934028844E+03  0.74326680199E+02 0.  0.
         25    2    1    2    0    0 -0.68048361797E+02 -0.77972333384E+02  0.23260646859E+03  0.28365856771E+03  0.12508456934E+03 0.  0.
        -24    2    1    2    0    0  0.23374137245E+02 -0.62980701578E+01  0.72405896784E+03  0.72874554850E+03  0.78883899265E+02 0.  0.
        -13    1    3    3    0    0  0.18569798390E+02  0.92662693155E+01 -0.83528508651E+02  0.86068071413E+02  0.00000000000E+00 0.  1.
         14    1    3    3    0    0  0.26104426161E+02  0.75004134226E+02 -0.48914673196E+02  0.93272217032E+02  0.00000000000E+00 0. -1.
         11    1    5    5    0    0  0.47609166404E+02 -0.11611737123E+02  0.61267743362E+03  0.61463412111E+03  0.00000000000E+00 0. -1.
        -12    1    5    5    0    0 -0.24235029159E+02  0.53136669651E+01  0.11138153422E+03  0.11411142738E+03  0.00000000000E+00 0.  1.
          5    1    4    4  501    0 -0.24033507666E+02 -0.28861832644E+02 -0.39968101832E+01  0.38000812701E+02  0.41800000000E+01 0.  1.
         -5    1    4    4    0  501 -0.44014854131E+02 -0.49110500740E+02  0.23660327878E+03  0.24565775501E+03  0.41800000000E+01 0.  1.
</event>
<event>
11    1  0.1003949E-008  0.1884898E+03  0.7561462E-02  0.1062975E+00
         22   -1    0    0    0    0  0.00000000000E+00  0.00000000000E+00  0.81467825746E+03  0.81467825746E+03  0.00000000000E+00 0.  1.
         22   -1    0    0    0    0 -0.00000000000E+00 -0.00000000000E+00 -0.10229404774E+04  0.10229404774E+04  0.00000000000E+00 0.  1.
         24    2    1    2    0    0 -0.57952486490E+02 -0.68606124392E+02 -0.96370515873E+03  0.97122061142E+03  0.80477028275E+02 0.  0.
         25    2    1    2    0    0  0.14849715168E+03  0.15096126918E+03  0.30056972977E+03  0.38836964722E+03  0.12509241216E+03 0.  0.
        -24    2    1    2    0    0 -0.90544665194E+02 -0.82355144787E+02  0.45487320901E+03  0.47802847624E+03  0.81368799680E+02 0.  0.
        -13    1    3    3    0    0 -0.68875164853E+02 -0.65828720004E+02 -0.94160339234E+03  0.94641119878E+03  0.00000000000E+00 0.  1.
         14    1    3    3    0    0  0.10922678363E+02 -0.27774043888E+01 -0.22101766398E+02  0.24809412643E+02  0.00000000000E+00 0. -1.
         13    1    5    5    0    0 -0.95769119784E+02 -0.39455481609E+02  0.30995013580E+03  0.32679893821E+03  0.00000000000E+00 0. -1.
        -14    1    5    5    0    0  0.52244545895E+01 -0.42899663178E+02  0.14492307321E+03  0.15122953803E+03  0.00000000000E+00 0.  1.
          5    1    4    4  501    0  0.13486430011E+03  0.12699114179E+03  0.30805992590E+03  0.35949063950E+03  0.41800000000E+01 0. -1.
         -5    1    4    4    0  501  0.13632851570E+02  0.23970127391E+02 -0.74901961341E+01  0.28879007725E+02  0.41800000000E+01 0. -1.
</event>
<event>
11    1  0.1003949E-008  0.1812491E+03  0.7561462E-02  0.1068637E+00
         22   -1    0    0    0    0  0.00000000000E+00  0.00000000000E+00  0.15073517788E+04  0.15073517788E+04  0.00000000000E+00 0.  1.
         22   -1    0    0    0    0 -0.00000000000E+00 -0.00000000000E+00 -0.14620133858E+04  0.14620133858E+04  0.00000000000E+00 0.  1.
        -24    2    1    2    0    0  0.11449630659E+03 -0.63426231341E+02 -0.14186161508E+04  0.14275677847E+04  0.91354833585E+02 0.  0.
         25    2    1    2    0    0 -0.11879308133E+03  0.89545702272E+02  0.21442731523E+03  0.28940112985E+03  0.12507482352E+03 0.  0.
         24    2    1    2    0    0  0.42967747325E+01 -0.26119470932E+02  0.12495272286E+04  0.12523962501E+04  0.80482192000E+02 0.  0.
        -13    1    5    5    0    0  0.35020112253E+02 -0.35384990437E+02  0.90832591950E+03  0.90968922268E+03  0.00000000000E+00 0.  1.
         14    1    5    5    0    0 -0.30723337521E+02  0.92655195054E+01  0.34120130908E+03  0.34270702741E+03  0.00000000000E+00 0. -1.
         11    1    3    3    0    0  0.14369754548E+02  0.22565497786E+02 -0.18793936217E+03  0.18983386260E+03  0.00000000000E+00 0. -1.
        -12    1    3    3    0    0  0.10012655205E+03 -0.85991729127E+02 -0.12306767886E+04  0.12377339221E+04  0.00000000000E+00 0.  1.
          5    1    4    4  501    0 -0.27003659788E+02  0.86095234299E+02  0.56160971320E+02  0.10636312383E+03  0.41800000000E+01 0.  1.
         -5    1    4    4    0  501 -0.91789421539E+02  0.34504679735E+01  0.15826634391E+03  0.18303800603E+03  0.41800000000E+01 0.  1.
</event>
<event>
11    1  0.1003949E-008  0.1329087E+03  0.7561462E-02  0.1115746E+00
         22   -1    0    0    0    0  0.00000000000E+00  0.00000000000E+00  0.37526217325E+04  0.37526217325E+04  0.00000000000E+00 0.  1.
         22   -1    0    0    0    0 -0.00000000000E+00 -0.00000000000E+00 -0.24907573301E+02  0.24907573301E+02  0.00000000000E+00 0.  1.
         24    2    1    2    0    0 -0.49495415279E+02 -0.71302085758E+01  0.11839093419E+03  0.15016248910E+03  0.77664173380E+02 0.  0.
         25    2    1    2    0    0  0.27707585978E+02 -0.10951132310E+02  0.48136580381E+03  0.49824408938E+03  0.12508596205E+03 0.  0.
        -24    2    1    2    0    0  0.21787829301E+02  0.18081340885E+02  0.31279574211E+04  0.31291227273E+04  0.80559105116E+02 0.  0.
        -13    1    3    3    0    0  0.14934048152E+02  0.43994915357E+01  0.80782464292E+00  0.15589544594E+02  0.00000000000E+00 0.  1.
         14    1    3    3    0    0 -0.64429463431E+02 -0.11529700111E+02  0.11758310955E+03  0.13457294451E+03  0.00000000000E+00 0. -1.
         11    1    5    5    0    0 -0.81109481305E+01  0.25537416148E+02  0.36073655197E+03  0.36173029598E+03  0.00000000000E+00 0. -1.
        -12    1    5    5    0    0  0.29898777432E+02 -0.74560752623E+01  0.27672208692E+04  0.27673924313E+04  0.00000000000E+00 0.  1.
          5    1    4    4  501    0 -0.23266452664E+02 -0.37663495764E+02  0.37146326889E+03  0.37411535556E+03  0.41800000000E+01 0.  1.
         -5    1    4    4    0  501  0.50974038642E+02  0.26712363454E+02  0.10990253492E+03  0.12412873382E+03  0.41800000000E+01 0.  1.
</event>
<event>
11    1  0.1003949E-008  0.3497519E+03  0.7561462E-02  0.9810886E-01
         22   -1    0    0    0    0  0.00000000000E+00  0.00000000000E+00  0.68174680597E+03  0.68174680597E+03  0.00000000000E+00 0.  1.
         22   -1    0    0    0    0 -0.00000000000E+00 -0.00000000000E+00 -0.13139972787E+04  0.13139972787E+04  0.00000000000E+00 0. -1.
        -24    2    1    2    0    0  0.24855880834E+03  0.30642462491E+02 -0.35971497875E+03  0.44524508563E+03  0.78280767962E+02 0.  0.
         25    2    1    2    0    0 -0.40652450872E+03 -0.14859242488E+03 -0.83518846910E+03  0.94896156294E+03  0.12508550714E+03 0.  0.
         24    2    1    2    0    0  0.15796570038E+03  0.11794996239E+03  0.56265297511E+03  0.60153743611E+03  0.80022250198E+02 0.  0.
        -11    1    5    5    0    0  0.73068918380E+02  0.99177296047E+02  0.28219956598E+03  0.30791524471E+03  0.00000000000E+00 0.  1.
         12    1    5    5    0    0  0.84896782001E+02  0.18772666343E+02  0.28045340913E+03  0.29362219141E+03  0.00000000000E+00 0. -1.
         13    1    3    3    0    0  0.38328137781E+02  0.26169234180E+02 -0.33924450059E+02  0.57486896552E+02  0.00000000000E+00 0. -1.
        -14    1    3    3    0    0  0.21023067056E+03  0.44732283103E+01 -0.32579052869E+03  0.38775818908E+03  0.00000000000E+00 0.  1.
          5    1    4    4  501    0 -0.40381258582E+03 -0.12585323345E+03 -0.75448099696E+03  0.86496398076E+03  0.41800000000E+01 0.  1.
         -5    1    4    4    0  501 -0.27119228973E+01 -0.22739191430E+02 -0.80707472142E+02  0.83997582181E+02  0.41800000000E+01 0.  1.
</event>
<event>
11    1  0.1003949E-008  0.1651290E+03  0.7561462E-02  0.1082350E+00
         22   -1    0    0    0    0  0.00000000000E+00  0.00000000000E+00  0.27156016295E+03  0.27156016295E+03  0.00000000000E+00 0. -1.
         22   -1    0    0    0    0 -0.00000000000E+00 -0.00000000000E+00 -0.23502379367E+04  0.23502379367E+04  0.00000000000E+00 0. -1.
        -24    2    1    2    0    0 -0.50280142992E+01  0.18851318150E+02 -0.20407281488E+04  0.20424197880E+04  0.80787128329E+02 0.  0.
         25    2    1    2    0    0  0.10857339719E+03 -0.46433814682E+02 -0.26291300469E+03  0.31419014228E+03  0.12509162941E+03 0.  0.
         24    2    1    2    0    0 -0.10354538289E+03  0.27582496533E+02  0.22496337964E+03  0.26518816943E+03  0.90740303008E+02 0.  0.
        -13    1    5    5    0    0  0.98019222635E+01  0.10226320982E+02  0.75435738927E+02  0.76754192252E+02  0.00000000000E+00 0.  1.
         14    1    5    5    0    0 -0.11334730515E+03  0.17356175551E+02  0.14952764072E+03  0.18843397717E+03  0.00000000000E+00 0. -1.
         11    1    3    3    0    0 -0.33803861890E+02  0.31826440402E+02 -0.84456416483E+03  0.84583937713E+03  0.00000000000E+00 0. -1.
        -12    1    3    3    0    0  0.28775847591E+02 -0.12975122252E+02 -0.11961639839E+04  0.11965804108E+04  0.00000000000E+00 0.  1.
          5    1    4    4  501    0  0.19497919880E+02 -0.47135780238E+02 -0.19180961920E+02  0.54656494202E+02  0.41800000000E+01 0. -1.
         -5    1    4    4    0  501  0.89075477307E+02  0.70196555546E+00 -0.24373204277E+03  0.25953364808E+03  0.41800000000E+01 0. -1.
</event>
<event>
11    1  0.1003949E-008  0.1290341E+03  0.7561462E-02  0.1120461E+00
         22   -1    0    0    0    0  0.00000000000E+00  0.00000000000E+00  0.70500388611E+03  0.70500388611E+03  0.00000000000E+00 0.  1.
         22   -1    0    0    0    0 -0.00000000000E+00 -0.00000000000E+00 -0.25059809177E+03  0.25059809177E+03  0.00000000000E+00 0. -1.
         24    2    1    2    0    0 -0.10444574633E+02 -0.28704088234E+02 -0.21263289721E+03  0.22782330341E+03  0.75879475343E+02 0.  0.
         25    2    1    2    0    0  0.21694855630E+02  0.53861017738E+02  0.15463351934E+03  0.20719701863E+03  0.12508958084E+03 0.  0.
        -24    2    1    2    0    0 -0.11250280997E+02 -0.25156929504E+02  0.51240517222E+03  0.52058165584E+03  0.87674169254E+02 0.  0.
        -13    1    3    3    0    0 -0.40966197391E+02 -0.94207195613E+01 -0.14727990724E+03  0.15316119079E+03  0.00000000000E+00 0.  1.
         14    1    3    3    0    0  0.30521622758E+02 -0.19283368672E+02 -0.65352989969E+02  0.74662112621E+02  0.00000000000E+00 0. -1.
         11    1    5    5    0    0 -0.43483317054E+02  0.88292369518E+01  0.21749649353E+03  0.22197630275E+03  0.00000000000E+00 0. -1.
        -12    1    5    5    0    0  0.32233036057E+02 -0.33986166456E+02  0.29490867869E+03  0.29860535308E+03  0.00000000000E+00 0.  1.
          5    1    4    4  501    0  0.42773391499E+02  0.87789788352E+02  0.10894951013E+03  0.14636966256E+03  0.41800000000E+01 0. -1.
         -5    1    4    4    0  501 -0.21078535869E+02 -0.33928770614E+02  0.45684009203E+02  0.60827356071E+02  0.41800000000E+01 0. -1.
</event>
<event>
11    1  0.1003949E-008  0.2820699E+03  0.7561462E-02  0.1008079E+00
         22   -1    0    0    0    0  0.00000000000E+00  0.00000000000E+00  0.19422761624E+04  0.19422761624E+04  0.00000000000E+00 0.  1.
         22   -1    0    0    0    0 -0.00000000000E+00 -0.00000000000E+00 -0.10912201430E+04  0.10912201430E+04  0.00000000000E+00 0.  1.
         24    2    1    2    0    0 -0.24295371928E+02 -0.43142578467E+02 -0.10325487820E+04  0.10369868654E+04  0.82056227682E+02 0.  0.
         25    2    1    2    0    0  0.73157845957E+01  0.28654841838E+03  0.50497004509E+03  0.59397472009E+03  0.12509078658E+03 0.  0.
        -24    2    1    2    0    0  0.16979587332E+02 -0.24340583991E+03  0.13786347564E+04  0.14025347199E+04  0.83277486197E+02 0.  0.
        -11    1    3    3    0    0 -0.19951408762E+02 -0.67318545162E+02 -0.69180926246E+03  0.69536314316E+03  0.00000000000E+00 0.  1.
         12    1    3    3    0    0 -0.43439631657E+01  0.24175966694E+02 -0.34073951958E+03  0.34162372222E+03  0.00000000000E+00 0. -1.
         11    1    5    5    0    0  0.16600955900E+02 -0.14714588949E+03  0.60142096121E+03  0.61938249661E+03  0.00000000000E+00 0. -1.
        -12    1    5    5    0    0  0.37863143151E+00 -0.96259950425E+02  0.77721379519E+03  0.78315222329E+03  0.00000000000E+00 0.  1.
          5    1    4    4  501    0 -0.93335613471E+01  0.83102174088E+02  0.55911176915E+02  0.10068077676E+03  0.41800000000E+01 0. -1.
         -5    1    4    4    0  501  0.16649345943E+02  0.20344624429E+03  0.44905886818E+03  0.49329394333E+03  0.41800000000E+01 0. -1.
</event>
<event>
11    1  0.1003949E-008  0.1946616E+03  0.7561462E-02  0.1058364E+00
         22   -1    0    0    0    0  0.00000000000E+00  0.00000000000E+00  0.64622108216E+03  0.64622108216E+03  0.00000000000E+00 0. -1.
         22   -1    0    0    0    0 -0.00000000000E+00 -0.00000000000E+00 -0.87022661551E+03  0.87022661551E+03  0.00000000000E+00 0.  1.
        -24    2    1    2    0    0 -0.27897834061E+02  0.19646189367E+02 -0.71729313220E+03  0.72259307875E+03  0.80418020620E+02 0.  0.
         25    2    1    2    0    0  0.16034523634E+03  0.45883100151E+02 -0.58900913772E+02  0.21664003331E+03  0.12509089772E+03 0.  0.
         24    2    1    2    0    0 -0.13244740228E+03 -0.65529289517E+02  0.55218851262E+03  0.57721458562E+03  0.80175571224E+02 0.  0.
        -11    1    5    5    0    0 -0.76433427633E+02  0.47082225915E+01  0.21367759333E+03  0.22698535220E+03  0.00000000000E+00 0.  1.
         12    1    5    5    0    0 -0.56013974646E+02 -0.70237512109E+02  0.33851091929E+03  0.35022923342E+03  0.00000000000E+00 0. -1.
         13    1    3    3    0    0 -0.52168537701E+01 -0.26865564155E+02 -0.12088159110E+03  0.12394084544E+03  0.00000000000E+00 0. -1.
        -14    1    3    3    0    0 -0.22680980291E+02  0.46511753522E+02 -0.59641154110E+03  0.59865223331E+03  0.00000000000E+00 0.  1.
          5    1    4    4  501    0  0.16510657094E+03  0.16444620816E+02 -0.19600391017E+02  0.16712944998E+03  0.41800000000E+01 0. -1.
         -5    1    4    4    0  501 -0.47613346028E+01  0.29438479334E+02 -0.39300522755E+02  0.49510583329E+02  0.41800000000E+01 0. -1.
</event>
<event>
11    1  0.1003949E-008  0.1330315E+03  0.7561462E-02  0.1115599E+00
         22   -1    0    0    0    0  0.00000000000E+00  0.00000000000E+00  0.92463292489E+03  0.92463292489E+03  0.00000000000E+00 0.  1.
         22   -1    0    0    0    0 -0.00000000000E+00 -0.00000000000E+00 -0.85220616522E+02  0.85220616522E+02  0.00000000000E+00 0.  1.
         24    2    1    2    0    0  0.29800321358E+02 -0.26907799052E+02 -0.35474040264E+02  0.95730660702E+02  0.79333870844E+02 0.  0.
         25    2    1    2    0    0  0.18068531002E+02  0.57071373578E+01  0.23501803491E+03  0.26690870391E+03  0.12509091199E+03 0.  0.
        -24    2    1    2    0    0 -0.47868852359E+02  0.21200661694E+02  0.63986831372E+03  0.64721417680E+03  0.81938004943E+02 0.  0.
        -11    1    3    3    0    0 -0.25846371114E+02 -0.19344187770E+02 -0.82481476697E+01  0.33320630850E+02  0.00000000000E+00 0.  1.
         12    1    3    3    0    0  0.55646692471E+02 -0.75636112811E+01 -0.27225892595E+02  0.62410029853E+02  0.00000000000E+00 0. -1.
         11    1    5    5    0    0  0.20490376357E+02 -0.27754055080E+00  0.24826899782E+03  0.24911328313E+03  0.00000000000E+00 0. -1.
        -12    1    5    5    0    0 -0.68359228717E+02  0.21478202245E+02  0.39159931591E+03  0.39810089367E+03  0.00000000000E+00 0.  1.
          5    1    4    4  501    0  0.26465261367E+02  0.61472614958E+02  0.98679720392E+02  0.11930822296E+03  0.41800000000E+01 0. -1.
         -5    1    4    4    0  501 -0.83967303652E+01 -0.55765477601E+02  0.13633831452E+03  0.14760048095E+03  0.41800000000E+01 0. -1.
</event>
<event>
11    1  0.1003949E-008  0.1808863E+03  0.7561462E-02  0.1068928E+00
         22   -1    0    0    0    0  0.00000000000E+00  0.00000000000E+00  0.55506057519E+03  0.55506057519E+03  0.00000000000E+00 0.  1.
         22   -1    0    0    0    0 -0.00000000000E+00 -0.00000000000E+00 -0.38013621005E+03  0.38013621005E+03  0.00000000000E+00 0. -1.
         24    2    1    2    0    0  0.83397724140E+02  0.10555612771E+03 -0.31977936064E+03  0.35642496638E+03  0.81747420021E+02 0.  0.
         25    2    1    2    0    0 -0.57432651152E+02 -0.75414592058E+02  0.13412271276E+03  0.20644928064E+03  0.12508610348E+03 0.  0.
        -24    2    1    2    0    0 -0.25965072987E+02 -0.30141535651E+02  0.36058101302E+03  0.37232253821E+03  0.83801600936E+02 0.  0.
        -11    1    3    3    0    0 -0.12625500554E+02  0.17648392406E+02 -0.19639953100E+02  0.29267674601E+02  0.00000000000E+00 0.  1.
         12    1    3    3    0    0  0.96023224694E+02  0.87907735303E+02 -0.30013940754E+03  0.32715729178E+03  0.00000000000E+00 0. -1.
         11    1    5    5    0    0  0.16502789362E+02 -0.39097560707E+02  0.10798047294E+03  0.11602044581E+03  0.00000000000E+00 0. -1.
        -12    1    5    5    0    0 -0.42467862349E+02  0.89560250569E+01  0.25260054008E+03  0.25630209240E+03  0.00000000000E+00 0.  1.
          5    1    4    4  501    0  0.32470520850E+02 -0.20144433414E+02  0.36884199816E+01  0.38616185257E+02  0.41800000000E+01 0.  1.
         -5    1    4    4    0  501 -0.89903172002E+02 -0.55270158644E+02  0.13043429278E+03  0.16783309538E+03  0.41800000000E+01 0.  1.
</event>
<event>
11    1  0.1003949E-008  0.1506382E+03  0.7561462E-02  0.1096228E+00
         22   -1    0    0    0    0  0.00000000000E+00  0.00000000000E+00  0.69495618517E+03  0.69495618517E+03  0.00000000000E+00 0.  1.
         22   -1    0    0    0    0 -0.00000000000E+00 -0.00000000000E+00 -0.98967580283E+03  0.98967580283E+03  0.00000000000E+00 0. -1.
        -24    2    1    2    0    0  0.10308733305E+02  0.79447393974E+02 -0.83968256801E+03  0.84732132825E+03  0.80426736229E+02 0.  0.
         25    2    1    2    0    0 -0.28827576356E+02 -0.15091931273E+03 -0.71852153927E+02  0.21075436713E+03  0.12508798154E+03 0.  0.
         24    2    1    2    0    0  0.18518843051E+02  0.71471918760E+02  0.61681510427E+03  0.62655629262E+03  0.81613309231E+02 0.  0.
        -13    1    5    5    0    0  0.29654414109E+02  0.78317356492E+02  0.59682673179E+03  0.60267332809E+03  0.00000000000E+00 0.  1.
         14    1    5    5    0    0 -0.11135571057E+02 -0.68454377326E+01  0.19988372479E+02  0.23882964533E+02  0.00000000000E+00 0. -1.
         13    1    3    3    0    0  0.45386263384E+01  0.82898235958E+02 -0.45083593068E+03  0.45841657152E+03  0.00000000000E+00 0. -1.
        -14    1    3    3    0    0  0.57701069662E+01 -0.34508419840E+01 -0.38884663733E+03  0.38890475673E+03  0.00000000000E+00 0.  1.
          5    1    4    4  501    0 -0.17609795462E+02 -0.98773931765E+02 -0.10699946203E+03  0.14674042309E+03  0.41800000000E+01 0. -1.
         -5    1    4    4    0  501 -0.11217780894E+02 -0.52145380969E+02  0.35147308108E+02  0.64013944042E+02  0.41800000000E+01 0. -1.
</event>
<event>
11    1  0.1003949E-008  0.1487345E+03  0.7561462E-02  0.1098179E+00
         22   -1    0    0    0    0  0.00000000000E+00  0.00000000000E+00  0.64578839627E+03  0.64578839627E+03  0.00000000000E+00 0. -1.
         22   -1    0    0    0    0 -0.00000000000E+00 -0.00000000000E+00 -0.32445216332E+03  0.32445216332E+03  0.00000000000E+00 0.  1.
         24    2    1    2    0    0 -0.78661453524E+02 -0.32461023316E+01 -0.23754896255E+03  0.26314743345E+03  0.81356626468E+02 0.  0.
         25    2    1    2    0    0  0.93856965390E+02 -0.56724822052E+02  0.30900445832E+02  0.16920184750E+03  0.12509033638E+03 0.  0.
        -24    2    1    2    0    0 -0.15195511866E+02  0.59970924383E+02  0.52798474967E+03  0.53789127865E+03  0.82047037821E+02 0.  0.
        -13    1    3    3    0    0 -0.38307335358E+02 -0.33164530398E+02 -0.59518038318E+02  0.78164793251E+02  0.00000000000E+00 0.  1.
         14    1    3    3    0    0 -0.40354118166E+02  0.29918428067E+02 -0.17803092423E+03  0.18498264020E+03  0.00000000000E+00 0. -1.
         13    1    5    5    0    0  0.11871183849E+02  0.64693698400E+02  0.45812706745E+03  0.46282459911E+03  0.00000000000E+00 0. -1.
        -14    1    5    5    0    0 -0.27066695714E+02 -0.47227740164E+01  0.69857682219E+02  0.75066679535E+02  0.00000000000E+00 0.  1.
          5    1    4    4  501    0  0.54166482677E+02 -0.13605973378E+02  0.76513495761E+02  0.94820450277E+02  0.41800000000E+01 0.  1.
         -5    1    4    4    0  501  0.39690482712E+02 -0.43118848673E+02 -0.45613049929E+02  0.74381397222E+02  0.41800000000E+01 0.  1.
</event>
<event>
11    1  0.1003949E-008  0.1722613E+03  0.7561462E-02  0.1076080E+00
         22   -1    0    0    0    0  0.00000000000E+00  0.00000000000E+00  0.10545851707E+04  0.10545851707E+04  0.00000000000E+00 0.  1.
         22   -1    0    0    0    0 -0.00000000000E+00 -0.00000000000E+00 -0.15536154975E+04  0.15536154975E+04  0.00000000000E+00 0. -1.
        -24    2    1    2    0    0 -0.43585496387E+02  0.11133264033E+03 -0.14821581797E+04  0.14892822022E+04  0.82909323059E+02 0.  0.
         25    2    1    2    0    0  0.45509543722E+02 -0.78515811607E+02  0.24775711823E+02  0.15651643272E+03  0.12509079332E+03 0.  0.
         24    2    1    2    0    0 -0.19240473347E+01 -0.32816828722E+02  0.95835214106E+03  0.96240203333E+03  0.81842539496E+02 0.  0.
        -11    1    5    5    0    0  0.34196637103E+02 -0.15338369300E+02  0.69504869230E+03  0.69605844598E+03  0.00000000000E+00 0.  1.
         12    1    5    5    0    0 -0.36120684437E+02 -0.17478459422E+02  0.26330344877E+03  0.26634358735E+03  0.00000000000E+00 0. -1.
         11    1    3    3    0    0 -0.44057522019E+02  0.12367638803E+03 -0.14073915550E+04  0.14135019997E+04  0.00000000000E+00 0. -1.
        -12    1    3    3    0    0  0.47202563156E+00 -0.12343747697E+02 -0.74766624698E+02  0.75780202455E+02  0.00000000000E+00 0.  1.
          5    1    4    4  501    0  0.46685870891E+02 -0.10950579147E+03  0.44438463356E+01  0.11919861189E+03  0.41800000000E+01 0.  1.
         -5    1    4    4    0  501 -0.11763271690E+01  0.30989979862E+02  0.20331865487E+02  0.37317820832E+02  0.41800000000E+01 0.  1.
</event>
<event>
11    1  0.1003949E-008  0.1528632E+03  0.7561462E-02  0.1093989E+00
         22   -1    0    0    0    0  0.00000000000E+00  0.00000000000E+00  0.16502888615E+03  0.16502888615E+03  0.00000000000E+00 0.  1.
         22   -1    0    0    0    0 -0.00000000000E+00 -0.00000000000E+00 -0.37367906886E+03  0.37367906886E+03  0.00000000000E+00 0.  1.
        -24    2    1    2    0    0  0.74304622651E+02 -0.19471374811E+02 -0.17104996050E+03  0.20385342505E+03  0.79986364680E+02 0.  0.
         25    2    1    2    0    0 -0.12440393527E+03 -0.91114372697E+01 -0.11322835299E+03  0.20982825980E+03  0.12509149168E+03 0.  0.
         24    2    1    2    0    0  0.50099312615E+02  0.28582812080E+02  0.75628130771E+02  0.12502627016E+03  0.81148233462E+02 0.  0.
        -13    1    5    5    0    0  0.57678639744E+02  0.23843833489E+02  0.15595451127E+02  0.64331733803E+02  0.00000000000E+00 0.  1.
         14    1    5    5    0    0 -0.75793271288E+01  0.47389785912E+01  0.60032679644E+02  0.60694536352E+02  0.00000000000E+00 0. -1.
         11    1    3    3    0    0  0.82747304902E+01 -0.30346139564E+02 -0.16680826142E+02  0.35603501400E+02  0.00000000000E+00 0. -1.
        -12    1    3    3    0    0  0.66029892161E+02  0.10874764754E+02 -0.15436913435E+03  0.16824992365E+03  0.00000000000E+00 0.  1.
          5    1    4    4  501    0 -0.97889283037E+02  0.42949484748E+02 -0.35944393358E+02  0.11285584516E+03  0.41800000000E+01 0.  1.
         -5    1    4    4    0  501 -0.26514652230E+02 -0.52060922017E+02 -0.77283959633E+02  0.96972414638E+02  0.41800000000E+01 0.  1.
</event>
<event>
11    1  0.1003949E-008  0.1694293E+03  0.7561462E-02  0.1078529E+00
         22   -1    0    0    0    0  0.00000000000E+00  0.00000000000E+00  0.54073433889E+03  0.54073433889E+03  0.00000000000E+00 0.  1.
         22   -1    0    0    0    0 -0.00000000000E+00 -0.00000000000E+00 -0.24380476238E+03  0.24380476238E+03  0.00000000000E+00 0. -1.
         24    2    1    2    0    0  0.52696492138E+02 -0.73005372384E+02 -0.57961685042E+02  0.13751465516E+03  0.86278727216E+02 0.  0.
         25    2    1    2    0    0 -0.47923651160E+02  0.18211434386E+03 -0.41590291116E+02  0.22986560489E+03  0.12508450509E+03 0.  0.
        -24    2    1    2    0    0 -0.47728409778E+01 -0.10910897148E+03  0.39648155268E+03  0.41715884122E+03  0.69973777451E+02 0.  0.
        -11    1    3    3    0    0  0.22923445059E+02  0.12833923424E+02  0.53040719517E+01  0.26801625008E+02  0.00000000000E+00 0.  1.
         12    1    3    3    0    0  0.29773047079E+02 -0.85839295808E+02 -0.63265756993E+02  0.11071303015E+03  0.00000000000E+00 0. -1.
         11    1    5    5    0    0  0.86804116781E+01  0.36440724775E+01  0.86909245835E+02  0.87417651665E+02  0.00000000000E+00 0. -1.
        -12    1    5    5    0    0 -0.13453252656E+02 -0.11275304396E+03  0.30957230684E+03  0.32974118956E+03  0.00000000000E+00 0.  1.
          5    1    4    4  501    0 -0.58848295460E+02  0.42295829945E+02 -0.51814350749E+02  0.89186649521E+02  0.41800000000E+01 0.  1.
         -5    1    4    4    0  501  0.10924644300E+02  0.13981851392E+03  0.10224059633E+02  0.14067895537E+03  0.41800000000E+01 0.  1.
</event>
<event>
11    1  0.1003949E-008  0.1350177E+03  0.7561462E-02  0.1113253E+00
         22   -1    0    0    0    0  0.00000000000E+00  0.00000000000E+00  0.53407109219E+03  0.53407109219E+03  0.00000000000E+00 0. -1.
         22   -1    0    0    0    0 -0.00000000000E+00 -0.00000000000E+00 -0.35827351792E+03  0.35827351792E+03  0.00000000000E+00 0.  1.
         24    2    1    2    0    0 -0.28603081554E+02  0.43282224077E+02 -0.26056532962E+03  0.27784425316E+03  0.81312058261E+02 0.  0.
         25    2    1    2    0    0  0.32272903392E+02 -0.31517553541E+02 -0.33907348798E+02  0.13724280960E+03  0.12510389286E+03 0.  0.
        -24    2    1    2    0    0 -0.36698218377E+01 -0.11764670536E+02  0.47027025268E+03  0.47725754735E+03  0.80428731703E+02 0.  0.
        -13    1    3    3    0    0 -0.43773674045E+02  0.15244611074E+02 -0.22647942747E+03  0.23117409840E+03  0.00000000000E+00 0.  1.
         14    1    3    3    0    0  0.15170592491E+02  0.28037613003E+02 -0.34085902148E+02  0.46670154753E+02  0.00000000000E+00 0. -1.
         13    1    5    5    0    0 -0.93401071151E+01 -0.11357442189E+02  0.47125810620E+03  0.47148746723E+03  0.00000000000E+00 0. -1.
        -14    1    5    5    0    0  0.56702852774E+01 -0.40722834692E+00 -0.98785352009E+00  0.57700801234E+01  0.00000000000E+00 0.  1.
          5    1    4    4  501    0 -0.60128401599E+01 -0.10830185564E+02 -0.75665342054E+02  0.76786480284E+02  0.41800000000E+01 0.  1.
         -5    1    4    4    0  501  0.38285743552E+02 -0.20687367977E+02  0.41757993256E+02  0.60456329312E+02  0.41800000000E+01 0.  1.
</event>
<event>
11    1  0.1003949E-008  0.2322549E+03  0.7561462E-02  0.1033801E+00
         22   -1    0    0    0    0  0.00000000000E+00  0.00000000000E+00  0.35573389423E+03  0.35573389423E+03  0.00000000000E+00 0.  1.
         22   -1    0    0    0    0 -0.00000000000E+00 -0.00000000000E+00 -0.68162361892E+03  0.68162361892E+03  0.00000000000E+00 0.  1.
        -24    2    1    2    0    0 -0.14303012169E+02  0.34606401655E+01 -0.52572500429E+03  0.53255210542E+03  0.83716262821E+02 0.  0.
         25    2    1    2    0    0  0.32991319533E+02  0.19205224930E+03  0.47597206441E+02  0.23640259054E+03  0.12509275409E+03 0.  0.
         24    2    1    2    0    0 -0.18688307364E+02 -0.19551288947E+03  0.15223807315E+03  0.26840281720E+03  0.10143519400E+03 0.  0.
        -11    1    5    5    0    0 -0.21508766673E+01 -0.17879528659E+03  0.16353570418E+03  0.24231448021E+03  0.00000000000E+00 0.  1.
         12    1    5    5    0    0 -0.16537430696E+02 -0.16717602878E+02 -0.11297631027E+02  0.26088336989E+02  0.00000000000E+00 0. -1.
         13    1    3    3    0    0 -0.22156860577E+02 -0.20008808607E+02 -0.69305569311E+02  0.75462181456E+02  0.00000000000E+00 0. -1.
        -14    1    3    3    0    0  0.78538484078E+01  0.23469448773E+02 -0.45641943498E+03  0.45708992396E+03  0.00000000000E+00 0.  1.
          5    1    4    4  501    0 -0.31820045404E+02  0.89225691778E+02  0.62953956722E+02  0.11381745222E+03  0.41800000000E+01 0.  1.
         -5    1    4    4    0  501  0.64811364936E+02  0.10282655752E+03 -0.15356750281E+02  0.12258513832E+03  0.41800000000E+01 0.  1.
</event>
<event>
11    1  0.1003949E-008  0.2198528E+03  0.7561462E-02  0.1041310E+00
         22   -1    0    0    0    0  0.00000000000E+00  0.00000000000E+00  0.22381957421E+03  0.22381957421E+03  0.00000000000E+00 0.  1.
         22   -1    0    0    0    0 -0.00000000000E+00 -0.00000000000E+00 -0.80573947029E+03  0.80573947029E+03  0.00000000000E+00 0.  1.
        -24    2    1    2    0    0 -0.14761440686E+03  0.82612418102E+02 -0.49010335753E+03  0.52490183502E+03  0.81889013957E+02 0.  0.
         25    2    1    2    0    0  0.18822437501E+03 -0.11035908734E+03 -0.22728842467E+03  0.33899077546E+03  0.12508866594E+03 0.  0.
         24    2    1    2    0    0 -0.40609968149E+02  0.27746669240E+02  0.13547188612E+03  0.16566643402E+03  0.81692645100E+02 0.  0.
        -13    1    5    5    0    0 -0.61584860814E+02  0.33978115060E+02  0.82870697918E+02  0.10869572189E+03  0.00000000000E+00 0.  1.
         14    1    5    5    0    0  0.20974892666E+02 -0.62314458199E+01  0.52601188203E+02  0.56970712122E+02  0.00000000000E+00 0. -1.
         11    1    3    3    0    0 -0.46843487305E+02  0.28035757476E+02 -0.66333782940E+02  0.85909759395E+02  0.00000000000E+00 0. -1.
        -12    1    3    3    0    0 -0.10077091956E+03  0.54576660627E+02 -0.42376957459E+03  0.43899207563E+03  0.00000000000E+00 0.  1.
          5    1    4    4  501    0  0.45033765356E+02 -0.19693301721E+02 -0.13973175331E+03  0.14818333725E+03  0.41800000000E+01 0.  1.
         -5    1    4    4    0  501  0.14319060966E+03 -0.90665785621E+02 -0.87556671365E+02  0.19080743821E+03  0.41800000000E+01 0.  1.
</event>
<event>
11    1  0.1003949E-008  0.1361692E+03  0.7561462E-02  0.1111913E+00
         22   -1    0    0    0    0  0.00000000000E+00  0.00000000000E+00  0.13570405226E+04  0.13570405226E+04  0.00000000000E+00 0. -1.
         22   -1    0    0    0    0 -0.00000000000E+00 -0.00000000000E+00 -0.12944508710E+03  0.12944508710E+03  0.00000000000E+00 0.  1.
        -24    2    1    2    0    0  0.32019257816E+02 -0.19042775845E+02 -0.79338506103E+02  0.11853004575E+03  0.79792938356E+02 0.  0.
         25    2    1    2    0    0 -0.15711487618E+02  0.69682576757E+02  0.15345287307E+03  0.21047094414E+03  0.12509085389E+03 0.  0.
         24    2    1    2    0    0 -0.16307770197E+02 -0.50639800913E+02  0.11534810686E+04  0.11574846198E+04  0.80135739950E+02 0.  0.
        -13    1    5    5    0    0  0.66391971299E+01 -0.25195867875E+01  0.77404391135E+01  0.10504363559E+02  0.00000000000E+00 0.  1.
         14    1    5    5    0    0 -0.22946967327E+02 -0.48120214125E+02  0.11457406295E+04  0.11469802563E+04  0.00000000000E+00 0. -1.
         13    1    3    3    0    0 -0.24286711344E+02 -0.18458907676E+02 -0.37711479166E+02  0.48504961410E+02  0.00000000000E+00 0. -1.
        -14    1    3    3    0    0  0.56305969159E+02 -0.58386816864E+00 -0.41627026937E+02  0.70025084338E+02  0.00000000000E+00 0.  1.
          5    1    4    4  501    0 -0.23084965408E+02  0.92098204116E+02  0.15957861184E+03  0.18573583549E+03  0.41800000000E+01 0. -1.
         -5    1    4    4    0  501  0.73734777898E+01 -0.22415627359E+02 -0.61257387649E+01  0.24735108652E+02  0.41800000000E+01 0. -1.
</event>
<event>
11    1  0.1003949E-008  0.1605783E+03  0.7561462E-02  0.1086535E+00
         22   -1    0    0    0    0  0.00000000000E+00  0.00000000000E+00  0.30762241463E+03  0.30762241463E+03  0.00000000000E+00 0.  1.
         22   -1    0    0    0    0 -0.00000000000E+00 -0.00000000000E+00 -0.15897213883E+04  0.15897213883E+04  0.00000000000E+00 0.  1.
        -24    2    1    2    0    0 -0.63826365903E+01  0.97429492418E+01 -0.13147422880E+04  0.13171555764E+04  0.78840758706E+02 0.  0.
         25    2    1    2    0    0 -0.92616317790E+02 -0.29328809206E+02 -0.23502054281E+03  0.28340807350E+03  0.12509004441E+03 0.  0.
         24    2    1    2    0    0  0.98998954380E+02  0.19585859965E+02  0.26766385722E+03  0.29678015305E+03  0.79057699852E+02 0.  0.
        -11    1    5    5    0    0  0.10975808566E+03  0.11558095593E+02  0.25679798061E+03  0.27950962378E+03  0.00000000000E+00 0.  1.
         12    1    5    5    0    0 -0.10759131283E+02  0.80277643712E+01  0.10865876608E+02  0.17270529269E+02  0.00000000000E+00 0. -1.
         11    1    3    3    0    0  0.22224446590E+02 -0.25601230950E+02 -0.62101582037E+03  0.62194051018E+03  0.00000000000E+00 0. -1.
        -12    1    3    3    0    0 -0.28607083180E+02  0.35344180191E+02 -0.69372646767E+03  0.69521506617E+03  0.00000000000E+00 0.  1.
          5    1    4    4  501    0 -0.15663594749E+02  0.32023107226E+02 -0.92226282472E+01  0.37058829834E+02  0.41800000000E+01 0.  1.
         -5    1    4    4    0  501 -0.76952723041E+02 -0.61351916433E+02 -0.22579791456E+03  0.24634924367E+03  0.41800000000E+01 0.  1.
</event>
<event>
11    1  0.1003949E-008  0.1732470E+03  0.7561462E-02  0.1075240E+00
         22   -1    0    0    0    0  0.00000000000E+00  0.00000000000E+00  0.40628033858E+03  0.40628033858E+03  0.00000000000E+00 0. -1.
         22   -1    0    0    0    0 -0.00000000000E+00 -0.00000000000E+00 -0.17941404089E+04  0.17941404089E+04  0.00000000000E+00 0.  1.
         24    2    1    2    0    0 -0.52116002972E+02 -0.62378449586E+02 -0.15085472329E+04  0.15129857096E+04  0.82485482326E+02 0.  0.
         25    2    1    2    0    0  0.87681373868E+02 -0.54756086476E+02 -0.24200810161E+03  0.29138012086E+03  0.12509277060E+03 0.  0.
        -24    2    1    2    0    0 -0.35565370896E+02  0.11713453606E+03  0.36269526418E+03  0.39605491705E+03  0.10161814558E+03 0.  0.
        -11    1    3    3    0    0 -0.27355815679E+02 -0.39145464993E+02 -0.13499609115E+04  0.13508053786E+04  0.00000000000E+00 0.  1.
         12    1    3    3    0    0 -0.24760187292E+02 -0.23232984593E+02 -0.15858632133E+03  0.16218033099E+03  0.00000000000E+00 0. -1.
         13    1    5    5    0    0 -0.17420399807E+02  0.14452637410E+02  0.20962409475E+03  0.21084261941E+03  0.00000000000E+00 0. -1.
        -14    1    5    5    0    0 -0.18144971089E+02  0.10268189865E+03  0.15307116943E+03  0.18521229764E+03  0.00000000000E+00 0.  1.
          5    1    4    4  501    0  0.67888847214E+02 -0.55506011789E+02 -0.55688129572E+02  0.10396371048E+03  0.41800000000E+01 0. -1.
         -5    1    4    4    0  501  0.19792526654E+02  0.74992531286E+00 -0.18631997204E+03  0.18741641038E+03  0.41800000000E+01 0. -1.
</event>
<event>
11    1  0.1003949E-008  0.1303171E+03  0.7561462E-02  0.1118880E+00
         22   -1    0    0    0    0  0.00000000000E+00  0.00000000000E+00  0.30386678561E+03  0.30386678561E+03  0.00000000000E+00 0.  1.
         22   -1    0    0    0    0 -0.00000000000E+00 -0.00000000000E+00 -0.67924729001E+03  0.67924729001E+03  0.00000000000E+00 0.  1.
        -24    2    1    2    0    0 -0.14625917773E+02 -0.51709486847E+02 -0.57992573227E+03  0.58808776635E+03  0.81520411379E+02 0.  0.
         25    2    1    2    0    0 -0.11356732985E+02  0.73439750762E+02 -0.23099746685E+02  0.14731772347E+03  0.12508613422E+03 0.  0.
         24    2    1    2    0    0  0.25982650757E+02 -0.21730263915E+02  0.22764497456E+03  0.24770858580E+03  0.91596978820E+02 0.  0.
        -13    1    5    5    0    0  0.42207254130E+02 -0.20739434039E+02  0.47535260715E+02  0.66866863518E+02  0.00000000000E+00 0.  1.
         14    1    5    5    0    0 -0.16224603373E+02 -0.99082987571E+00  0.18010971384E+03  0.18084172228E+03  0.00000000000E+00 0. -1.
         13    1    3    3    0    0  0.16917006449E+02 -0.62149216002E+02 -0.38468990559E+03  0.39004491231E+03  0.00000000000E+00 0. -1.
        -14    1    3    3    0    0 -0.31542924221E+02  0.10439729155E+02 -0.19523582668E+03  0.19804285403E+03  0.00000000000E+00 0.  1.
          5    1    4    4  501    0 -0.44308076318E+02  0.90871299682E+02  0.36420736229E+01  0.10124986831E+03  0.41800000000E+01 0. -1.
         -5    1    4    4    0  501  0.32951343333E+02 -0.17431548920E+02 -0.26741820308E+02  0.46067855155E+02  0.41800000000E+01 0. -1.
</event>
<event>
11    1  0.1003949E-008  0.1682119E+03  0.7561462E-02  0.1079598E+00
         22   -1    0    0    0    0  0.00000000000E+00  0.00000000000E+00  0.42131200618E+02  0.42131200618E+02  0.00000000000E+00 0. -1.
         22   -1    0    0    0    0 -0.00000000000E+00 -0.00000000000E+00 -0.16245304054E+04  0.16245304054E+04  0.00000000000E+00 0. -1.
        -24    2    1    2    0    0 -0.55381061129E+01 -0.48313378224E+02 -0.82340571845E+03  0.82876391623E+03  0.80546871664E+02 0.  0.
         25    2    1    2    0    0  0.11200846058E+03  0.54162111164E+01 -0.61472284364E+03  0.63726663708E+03  0.12509740864E+03 0.  0.
         24    2    1    2    0    0 -0.10647035447E+03  0.42897167107E+02 -0.14427064274E+03  0.20063105276E+03  0.79137207747E+02 0.  0.
        -13    1    5    5    0    0 -0.14541701625E+02  0.45165539317E+02 -0.47596555203E+02  0.67207284539E+02  0.00000000000E+00 0.  1.
         14    1    5    5    0    0 -0.91928652843E+02 -0.22683722095E+01 -0.96674087534E+02  0.13342376822E+03  0.00000000000E+00 0. -1.
         13    1    3    3    0    0 -0.22336415678E+02  0.43088762018E+01 -0.51143065758E+03  0.51193632358E+03  0.00000000000E+00 0. -1.
        -14    1    3    3    0    0  0.16798309565E+02 -0.52622254425E+02 -0.31197506087E+03  0.31682759265E+03  0.00000000000E+00 0.  1.
          5    1    4    4  501    0  0.16809352998E+02  0.16618406050E+02 -0.41498950965E+03  0.41568316214E+03  0.41800000000E+01 0. -1.
         -5    1    4    4    0  501  0.95199107583E+02 -0.11202194934E+02 -0.19973333400E+03  0.22158347494E+03  0.41800000000E+01 0. -1.
</event>
<event>
11    1  0.1003949E-008  0.1700136E+03  0.7561462E-02  0.1078020E+00
         22   -1    0    0    0    0  0.00000000000E+00  0.00000000000E+00  0.46125962531E+03  0.46125962531E+03  0.00000000000E+00 0.  1.
         22   -1    0    0    0    0 -0.00000000000E+00 -0.00000000000E+00 -0.21824930040E+03  0.21824930040E+03  0.00000000000E+00 0. -1.
        -24    2    1    2    0    0  0.77484078604E+02  0.22978873932E+02 -0.12032214209E+03  0.16673615157E+03  0.82411863706E+02 0.  0.
         25    2    1    2    0    0 -0.11426068947E+03  0.83613812410E+02  0.98340300700E+02  0.21299649273E+03  0.12509962585E+03 0.  0.
         24    2    1    2    0    0  0.36776610867E+02 -0.10659268634E+03  0.26499216629E+03  0.29977628141E+03  0.83249329201E+02 0.  0.
        -11    1    5    5    0    0  0.54059725479E+02 -0.44287152199E+02  0.95256161669E+02  0.11814204207E+03  0.00000000000E+00 0.  1.
         12    1    5    5    0    0 -0.17283114612E+02 -0.62305534143E+02  0.16973600462E+03  0.18163423934E+03  0.00000000000E+00 0. -1.
         11    1    3    3    0    0 -0.64435632165E+01  0.11922047533E+02 -0.63144613823E+02  0.64582481984E+02  0.00000000000E+00 0. -1.
        -12    1    3    3    0    0  0.83927641821E+02  0.11056826399E+02 -0.57177528267E+02  0.10215366959E+03  0.00000000000E+00 0.  1.
          5    1    4    4  501    0 -0.66358279305E+02  0.87824615976E+02  0.11750408801E+03  0.16106293026E+03  0.41800000000E+01 0. -1.
         -5    1    4    4    0  501 -0.47902410167E+02 -0.42108035661E+01 -0.19163787313E+02  0.51933562468E+02  0.41800000000E+01 0. -1.
</event>
<event>
11    1  0.1003949E-008  0.1847291E+03  0.7561462E-02  0.1065880E+00
         22   -1    0    0    0    0  0.00000000000E+00  0.00000000000E+00  0.51414347573E+03  0.51414347573E+03  0.00000000000E+00 0. -1.
         22   -1    0    0    0    0 -0.00000000000E+00 -0.00000000000E+00 -0.79959044714E+03  0.79959044714E+03  0.00000000000E+00 0. -1.
         24    2    1    2    0    0  0.52416474176E+02  0.12412171203E+03 -0.71031227542E+03  0.72738917291E+03  0.79986211948E+02 0.  0.
         25    2    1    2    0    0 -0.14000606901E+02 -0.16226935588E+03  0.62952171449E+02  0.21479385794E+03  0.12508423029E+03 0.  0.
        -24    2    1    2    0    0 -0.38415867275E+02  0.38147643847E+02  0.36191313256E+03  0.37155089202E+03  0.64326730433E+02 0.  0.
        -13    1    3    3    0    0  0.36981538397E+01 -0.99961230337E+01 -0.22049674122E+02  0.24490548103E+02  0.00000000000E+00 0.  1.
         14    1    3    3    0    0  0.48718320336E+02  0.13411783507E+03 -0.68826260129E+03  0.70289862481E+03  0.00000000000E+00 0. -1.
         11    1    5    5    0    0 -0.50016096723E+02  0.67974213151E+01  0.22925768826E+03  0.23474859424E+03  0.00000000000E+00 0. -1.
        -12    1    5    5    0    0  0.11600229448E+02  0.31350222532E+02  0.13265544430E+03  0.13680229778E+03  0.00000000000E+00 0.  1.
          5    1    4    4  501    0 -0.43925008186E+02 -0.74802835569E+02  0.82975988510E+02  0.12011393600E+03  0.41800000000E+01 0.  1.
         -5    1    4    4    0  501  0.29924401285E+02 -0.87466520313E+02 -0.20023817060E+02  0.94679921935E+02  0.41800000000E+01 0.  1.
</event>
<event>
11    1  0.1003949E-008  0.1320847E+03  0.7561462E-02  0.1116734E+00
         22   -1    0    0    0    0  0.00000000000E+00  0.00000000000E+00  0.14953961564E+03  0.14953961564E+03  0.00000000000E+00 0. -1.
         22   -1    0    0    0    0 -0.00000000000E+00 -0.00000000000E+00 -0.20547471324E+04  0.20547471324E+04  0.00000000000E+00 0. -1.
         24    2    1    2    0    0 -0.57627029086E+01 -0.42440667512E+02 -0.16776985609E+04  0.16801185568E+04  0.79318880205E+02 0.  0.
         25    2    1    2    0    0  0.67489198525E+01  0.37763102536E+02 -0.35248348443E+03  0.37598399846E+03  0.12509100874E+03 0.  0.
        -24    2    1    2    0    0 -0.98621694382E+00  0.46775649753E+01  0.12497452860E+03  0.14818419272E+03  0.79479997065E+02 0.  0.
        -13    1    3    3    0    0  0.17824238793E+02 -0.23092140069E+02 -0.20108511314E+03  0.20318999273E+03  0.00000000000E+00 0.  1.
         14    1    3    3    0    0 -0.23586941701E+02 -0.19348527443E+02 -0.14766134478E+04  0.14769285641E+04  0.00000000000E+00 0. -1.
         13    1    5    5    0    0 -0.27852864504E+02 -0.25592107665E+02  0.73899062172E+02  0.83016922526E+02  0.00000000000E+00 0. -1.
        -14    1    5    5    0    0  0.26866647560E+02  0.30269672641E+02  0.51075466433E+02  0.65167270191E+02  0.00000000000E+00 0.  1.
          5    1    4    4  501    0 -0.17733798150E+02 -0.12196705399E+02 -0.30641834491E+01  0.22138401921E+02  0.41800000000E+01 0.  1.
         -5    1    4    4    0  501  0.24482718002E+02  0.49959807936E+02 -0.34941930098E+03  0.35384559654E+03  0.41800000000E+01 0.  1.
</event>
<event>
11    1  0.1003949E-008  0.1288970E+03  0.7561462E-02  0.1120632E+00
         22   -1    0    0    0    0  0.00000000000E+00  0.00000000000E+00  0.17808129050E+03  0.17808129050E+03  0.00000000000E+00 0. -1.
         22   -1    0    0    0    0 -0.00000000000E+00 -0.00000000000E+00 -0.14461208571E+04  0.14461208571E+04  0.00000000000E+00 0. -1.
        -24    2    1    2    0    0 -0.30114459030E+02  0.23649106546E+01 -0.12432618388E+04  0.12465627920E+04  0.85477022233E+02 0.  0.
         25    2    1    2    0    0  0.44984873548E+02  0.31253701249E+02 -0.16371123929E+03  0.21319571400E+03  0.12510239769E+03 0.  0.
         24    2    1    2    0    0 -0.14870414518E+02 -0.33618611904E+02  0.13893351144E+03  0.16444364156E+03  0.79924028644E+02 0.  0.
        -13    1    5    5    0    0  0.28985761512E+02 -0.33043999906E+02  0.74456650924E+02  0.86463131836E+02  0.00000000000E+00 0.  1.
         14    1    5    5    0    0 -0.43856176030E+02 -0.57461199797E+00  0.64476860520E+02  0.77980509728E+02  0.00000000000E+00 0. -1.
         13    1    3    3    0    0 -0.20991961374E+02  0.58092552995E+01 -0.12295195055E+04  0.12297124153E+04  0.00000000000E+00 0. -1.
        -14    1    3    3    0    0 -0.91224976563E+01 -0.34443446448E+01 -0.13742333275E+02  0.16850376772E+02  0.00000000000E+00 0.  1.
          5    1    4    4  501    0 -0.37781691658E+02  0.12761441489E+02 -0.97817307732E+02  0.10571664346E+03  0.41800000000E+01 0.  1.
         -5    1    4    4    0  501  0.82766565206E+02  0.18492259760E+02 -0.65893931555E+02  0.10747907053E+03  0.41800000000E+01 0.  1.
</event>
<event>
11    1  0.1003949E-008  0.1990729E+03  0.7561462E-02  0.1055181E+00
         22   -1    0    0    0    0  0.00000000000E+00  0.00000000000E+00  0.55105892216E+03  0.55105892216E+03  0.00000000000E+00 0. -1.
         22   -1    0    0    0    0 -0.00000000000E+00 -0.00000000000E+00 -0.12854072850E+04  0.12854072850E+04  0.00000000000E+00 0. -1.
         24    2    1    2    0    0  0.66999027056E+02 -0.13593618772E+03 -0.11588569427E+04  0.11714642738E+04  0.80072556992E+02 0.  0.
         25    2    1    2    0    0 -0.14373127368E+03  0.21270814561E+03  0.81552710842E+02  0.29698549535E+03  0.12508439375E+03 0.  0.
        -24    2    1    2    0    0  0.76732246627E+02 -0.76771957888E+02  0.34295586905E+03  0.36801643798E+03  0.77689119702E+02 0.  0.
        -13    1    3    3    0    0 -0.11937738058E+02 -0.62453983076E+01 -0.21985958772E+03  0.22027199754E+03  0.00000000000E+00 0.  1.
         14    1    3    3    0    0  0.78936765113E+02 -0.12969078941E+03 -0.93899735501E+03  0.95119227629E+03  0.00000000000E+00 0. -1.
         11    1    5    5    0    0  0.87555763496E+02 -0.82998461933E+02  0.30222966805E+03  0.32541900475E+03  0.00000000000E+00 0. -1.
        -12    1    5    5    0    0 -0.10823516869E+02  0.62265040446E+01  0.40726200993E+02  0.42597433225E+02  0.00000000000E+00 0.  1.
          5    1    4    4  501    0 -0.61815425243E+02  0.17317134500E+03  0.91437354367E+02  0.20539650362E+03  0.41800000000E+01 0.  1.
         -5    1    4    4    0  501 -0.81915848440E+02  0.39536800613E+02 -0.98846435252E+01  0.91588991729E+02  0.41800000000E+01 0.  1.
</event>
<event>
11    1  0.1003949E-008  0.1607522E+03  0.7561462E-02  0.1086372E+00
         22   -1    0    0    0    0  0.00000000000E+00  0.00000000000E+00  0.27112001154E+03  0.27112001154E+03  0.00000000000E+00 0.  1.
         22   -1    0    0    0    0 -0.00000000000E+00 -0.00000000000E+00 -0.53207835688E+03  0.53207835688E+03  0.00000000000E+00 0. -1.
         24    2    1    2    0    0 -0.33121604377E+02 -0.33534366316E+01 -0.37050867555E+03  0.38066031888E+03  0.80729879833E+02 0.  0.
         25    2    1    2    0    0 -0.68352361117E+02 -0.23653958892E+02 -0.99199348623E+02  0.17527042925E+03  0.12509059742E+03 0.  0.
        -24    2    1    2    0    0  0.10147396549E+03  0.27007395523E+02  0.20874967883E+03  0.24726762028E+03  0.80860883882E+02 0.  0.
        -11    1    3    3    0    0 -0.31861916431E+02 -0.33971508749E+02 -0.12775446539E+03  0.13597958874E+03  0.00000000000E+00 0.  1.
         12    1    3    3    0    0 -0.12596879455E+01  0.30618072118E+02 -0.24275421015E+03  0.24468073014E+03  0.00000000000E+00 0. -1.
         13    1    5    5    0    0 -0.33842688106E+01  0.27460377268E+02  0.44467105908E+02  0.52372216899E+02  0.00000000000E+00 0. -1.
        -14    1    5    5    0    0  0.10485823430E+03 -0.45298174480E+00  0.16428257293E+03  0.19489540339E+03  0.00000000000E+00 0.  1.
          5    1    4    4  501    0 -0.11728620060E+02  0.17643322160E+02  0.24732688350E+02  0.32833300449E+02  0.41800000000E+01 0.  1.
         -5    1    4    4    0  501 -0.56623741057E+02 -0.41297281052E+02 -0.12393203697E+03  0.14243712880E+03  0.41800000000E+01 0.  1.
</event>
<event>
11    1  0.1003949E-008  0.1311533E+03  0.7561462E-02  0.1117860E+00
         22   -1    0    0    0    0  0.00000000000E+00  0.00000000000E+00  0.18926163151E+03  0.18926163151E+03  0.00000000000E+00 0.  1.
         22   -1    0    0    0    0 -0.00000000000E+00 -0.00000000000E+00 -0.16120736908E+04  0.16120736908E+04  0.00000000000E+00 0.  1.
        -24    2    1    2    0    0  0.45117063066E+01  0.15124737563E+02 -0.14413956188E+04  0.14437383887E+04  0.80685141346E+02 0.  0.
         25    2    1    2    0    0  0.35050088396E+02 -0.10269285461E+02 -0.13047968006E+03  0.18440711189E+03  0.12508824519E+03 0.  0.
         24    2    1    2    0    0 -0.39561794703E+02 -0.48554521027E+01  0.14906323957E+03  0.17318982170E+03  0.78652107001E+02 0.  0.
        -13    1    5    5    0    0 -0.32264252369E+02 -0.18661168252E+02  0.15267755675E+03  0.15716124687E+03  0.00000000000E+00 0.  1.
         14    1    5    5    0    0 -0.72975423340E+01  0.13805716149E+02 -0.36143171842E+01  0.16028574834E+02  0.00000000000E+00 0. -1.
         13    1    3    3    0    0 -0.26375319233E+02 -0.21616767370E+02 -0.63632974783E+03  0.63724288154E+03  0.00000000000E+00 0. -1.
        -14    1    3    3    0    0  0.30887025540E+02  0.36741504934E+02 -0.80506587094E+03  0.80649550717E+03  0.00000000000E+00 0.  1.
          5    1    4    4  501    0  0.72431348811E+02  0.21958917462E+02 -0.53169986541E+02  0.92590573038E+02  0.41800000000E+01 0. -1.
         -5    1    4    4    0  501 -0.37381260415E+02 -0.32228202922E+02 -0.77309693523E+02  0.91816538850E+02  0.41800000000E+01 0. -1.
</event>
<event>
11    1  0.1003949E-008  0.1570229E+03  0.7561462E-02  0.1089911E+00
         22   -1    0    0    0    0  0.00000000000E+00  0.00000000000E+00  0.25801175192E+02  0.25801175192E+02  0.00000000000E+00 0. -1.
         22   -1    0    0    0    0 -0.00000000000E+00 -0.00000000000E+00 -0.17611910655E+04  0.17611910655E+04  0.00000000000E+00 0.  1.
         24    2    1    2    0    0 -0.13564332977E+02 -0.99777695515E+02 -0.10569493647E+04  0.10646811260E+04  0.79147715069E+02 0.  0.
         25    2    1    2    0    0  0.95371226613E+01  0.79426406375E+02 -0.54600405750E+03  0.56583784389E+03  0.12511004768E+03 0.  0.
        -24    2    1    2    0    0  0.40272103156E+01  0.20351289141E+02 -0.13243646806E+03  0.15647327079E+03  0.80709807373E+02 0.  0.
        -11    1    3    3    0    0 -0.26691022266E+02 -0.10792791483E+03 -0.97202384435E+03  0.97836148711E+03  0.00000000000E+00 0.  1.
         12    1    3    3    0    0  0.13126689289E+02  0.81502193098E+01 -0.84925520389E+02  0.86319638901E+02  0.00000000000E+00 0. -1.
         11    1    5    5    0    0  0.41804589261E+02  0.76003939486E+01 -0.56363957440E+02  0.70585305622E+02  0.00000000000E+00 0. -1.
        -12    1    5    5    0    0 -0.37777378946E+02  0.12750895192E+02 -0.76072510619E+02  0.85887965165E+02  0.00000000000E+00 0.  1.
          5    1    4    4  501    0  0.39358483237E+02  0.98990591935E+02 -0.46763100424E+03  0.47962949869E+03  0.41800000000E+01 0.  1.
         -5    1    4    4    0  501 -0.29821360576E+02 -0.19564185561E+02 -0.78373053262E+02  0.86208345192E+02  0.41800000000E+01 0.  1.
</event>
<event>
11    1  0.1003949E-008  0.1996854E+03  0.7561462E-02  0.1054746E+00
         22   -1    0    0    0    0  0.00000000000E+00  0.00000000000E+00  0.11297074618E+04  0.11297074618E+04  0.00000000000E+00 0.  1.
         22   -1    0    0    0    0 -0.00000000000E+00 -0.00000000000E+00 -0.70276608508E+03  0.70276608508E+03  0.00000000000E+00 0. -1.
        -24    2    1    2    0    0 -0.99787910608E+01 -0.36370496167E+02 -0.62814950579E+03  0.63457242603E+03  0.81780028125E+02 0.  0.
         25    2    1    2    0    0  0.13857166048E+03  0.11839928152E+03  0.12909668821E+03  0.25598161159E+03  0.12506052779E+03 0.  0.
         24    2    1    2    0    0 -0.12859286942E+03 -0.82028785355E+02  0.92599419427E+03  0.94191950924E+03  0.80512522983E+02 0.  0.
        -11    1    5    5    0    0 -0.82200478311E+02 -0.42899214681E+02  0.75094880032E+03  0.75665141376E+03  0.00000000000E+00 0.  1.
         12    1    5    5    0    0 -0.46392391107E+02 -0.39129570674E+02  0.17504539396E+03  0.18526809547E+03  0.00000000000E+00 0. -1.
         13    1    3    3    0    0  0.21857745618E+02 -0.50323800047E+02 -0.35360659001E+03  0.35783776546E+03  0.00000000000E+00 0. -1.
        -14    1    3    3    0    0 -0.31836536679E+02  0.13953303880E+02 -0.27454291578E+03  0.27673466057E+03  0.00000000000E+00 0.  1.
          5    1    4    4  501    0  0.11150865953E+03  0.59309142687E+02  0.18615255932E+02  0.12773314257E+03  0.41800000000E+01 0. -1.
         -5    1    4    4    0  501  0.27063000947E+02  0.59090138834E+02  0.11048143228E+03  0.12824846902E+03  0.41800000000E+01 0. -1.
</event>
<event>
11    1  0.1003949E-008  0.1303619E+03  0.7561462E-02  0.1118825E+00
         22   -1    0    0    0    0  0.00000000000E+00  0.00000000000E+00  0.16699372545E+03  0.16699372545E+03  0.00000000000E+00 0.  1.
         22   -1    0    0    0    0 -0.00000000000E+00 -0.00000000000E+00 -0.47142187845E+03  0.47142187845E+03  0.00000000000E+00 0. -1.
         24    2    1    2    0    0  0.22048793868E+02  0.26467502449E+02 -0.25890229336E+03  0.27288520998E+03  0.79052275893E+02 0.  0.
         25    2    1    2    0    0 -0.48641595827E+02 -0.97317993893E+00 -0.16817879816E+03  0.21516199396E+03  0.12507447211E+03 0.  0.
        -24    2    1    2    0    0  0.26592801959E+02 -0.25494322510E+02  0.12265293852E+03  0.15036839995E+03  0.78802124212E+02 0.  0.
        -13    1    3    3    0    0 -0.25773371207E+02  0.26135988394E+02 -0.86340417984E+02  0.93819104293E+02  0.00000000000E+00 0.  1.
         14    1    3    3    0    0  0.47822165074E+02  0.33151405524E+00 -0.17256187538E+03  0.17906610569E+03  0.00000000000E+00 0. -1.
         11    1    5    5    0    0  0.25238387341E+02 -0.34468291054E+02  0.19747998160E+02  0.47064027825E+02  0.00000000000E+00 0. -1.
        -12    1    5    5    0    0  0.13544146180E+01  0.89739685436E+01  0.10290494036E+03  0.10330437212E+03  0.00000000000E+00 0.  1.
          5    1    4    4  501    0  0.36613534705E+02  0.19375084168E+02 -0.29399752173E+02  0.50968251274E+02  0.41800000000E+01 0.  1.
         -5    1    4    4    0  501 -0.85255130532E+02 -0.20348264107E+02 -0.13877904598E+03  0.16419374269E+03  0.41800000000E+01 0.  1.
</event>
<event>
11    1  0.1003949E-008  0.1398251E+03  0.7561462E-02  0.1107754E+00
         22   -1    0    0    0    0  0.00000000000E+00  0.00000000000E+00  0.40825920615E+03  0.40825920615E+03  0.00000000000E+00 0.  1.
         22   -1    0    0    0    0 -0.00000000000E+00 -0.00000000000E+00 -0.10803768072E+03  0.10803768072E+03  0.00000000000E+00 0.  1.
        -24    2    1    2    0    0  0.20782903634E+02 -0.46033562417E+01 -0.31965796603E+02  0.90600554322E+02  0.82058078937E+02 0.  0.
         25    2    1    2    0    0 -0.63483849172E+02  0.44318934745E+02  0.11300434981E+03  0.18550156703E+03  0.12508589534E+03 0.  0.
         24    2    1    2    0    0  0.42700945538E+02 -0.39715578503E+02  0.21918297223E+03  0.24019476551E+03  0.79067389857E+02 0.  0.
        -13    1    5    5    0    0  0.50022359936E+02 -0.29158622427E+02  0.21983386536E+03  0.22733101442E+03  0.00000000000E+00 0.  1.
         14    1    5    5    0    0 -0.73214143978E+01 -0.10556956076E+02 -0.65089313419E+00  0.12863751095E+02  0.00000000000E+00 0. -1.
         13    1    3    3    0    0 -0.12779172333E+02  0.13832248675E+02  0.19067008976E+02  0.26799051853E+02  0.00000000000E+00 0. -1.
        -14    1    3    3    0    0  0.33562075968E+02 -0.18435604917E+02 -0.51032805580E+02  0.63801502468E+02  0.00000000000E+00 0.  1.
          5    1    4    4  501    0 -0.95222196393E+02  0.54900993547E+01  0.61921710169E+02  0.11379445710E+03  0.41800000000E+01 0. -1.
         -5    1    4    4    0  501  0.31738347221E+02  0.38828835390E+02  0.51082639637E+02  0.71707109928E+02  0.41800000000E+01 0. -1.
</event>
<event>
11    1  0.1003949E-008  0.1409733E+03  0.7561462E-02  0.1106476E+00
         22   -1    0    0    0    0  0.00000000000E+00  0.00000000000E+00  0.22811623418E+04  0.22811623418E+04  0.00000000000E+00 0. -1.
         22   -1    0    0    0    0 -0.00000000000E+00 -0.00000000000E+00 -0.91223842151E+02  0.91223842151E+02  0.00000000000E+00 0. -1.
         24    2    1    2    0    0  0.31992523280E+02 -0.54755687848E+02 -0.45616787020E+02  0.11495199308E+03  0.84328895155E+02 0.  0.
         25    2    1    2    0    0 -0.41391565847E+02  0.83977248650E+02  0.60906941394E+03  0.62879127718E+03  0.12508988468E+03 0.  0.
        -24    2    1    2    0    0  0.93990425675E+01 -0.29221560802E+02  0.16264858727E+04  0.16286429137E+04  0.77969253563E+02 0.  0.
        -11    1    3    3    0    0 -0.40742770431E+01 -0.31060716399E+02  0.19451252117E+02  0.36874368409E+02  0.00000000000E+00 0.  1.
         12    1    3    3    0    0  0.36066800323E+02 -0.23694971449E+02 -0.65068039137E+02  0.78077624673E+02  0.00000000000E+00 0. -1.
         13    1    5    5    0    0  0.96322092518E+01 -0.49353793199E+02  0.64735731701E+03  0.64930737886E+03  0.00000000000E+00 0. -1.
        -14    1    5    5    0    0 -0.23316668433E+00  0.20132232397E+02  0.97912855570E+03  0.97933553481E+03  0.00000000000E+00 0.  1.
          5    1    4    4  501    0 -0.68454810464E+02  0.14555282623E+02  0.41475554848E+03  0.42063945930E+03  0.41800000000E+01 0. -1.
         -5    1    4    4    0  501  0.27063244617E+02  0.69421966027E+02  0.19431386546E+03  0.20815181788E+03  0.41800000000E+01 0. -1.
</event>
<event>
11    1  0.1003949E-008  0.1409061E+03  0.7561462E-02  0.1106551E+00
         22   -1    0    0    0    0  0.00000000000E+00  0.00000000000E+00  0.79159882140E+03  0.79159882140E+03  0.00000000000E+00 0.  1.
         22   -1    0    0    0    0 -0.00000000000E+00 -0.00000000000E+00 -0.66929638622E+03  0.66929638622E+03  0.00000000000E+00 0. -1.
         24    2    1    2    0    0 -0.31327198320E+02 -0.90980352366E+01 -0.57206821126E+03  0.57854795068E+03  0.79947015633E+02 0.  0.
         25    2    1    2    0    0  0.93878015770E+02  0.20523134824E+02 -0.21398125371E+02  0.15918401097E+03  0.12508952263E+03 0.  0.
        -24    2    1    2    0    0 -0.62550817450E+02 -0.11425099588E+02  0.71576877181E+03  0.72316324596E+03  0.81221967096E+02 0.  0.
        -11    1    3    3    0    0  0.10306204612E+02 -0.80628829563E+01 -0.14919432010E+02  0.19844832743E+02  0.00000000000E+00 0.  1.
         12    1    3    3    0    0 -0.41633402932E+02 -0.10351522803E+01 -0.55714877925E+03  0.55870311794E+03  0.00000000000E+00 0. -1.
         11    1    5    5    0    0  0.19673105198E+02 -0.67288624878E+01  0.14563546011E+03  0.14711218814E+03  0.00000000000E+00 0. -1.
        -12    1    5    5    0    0 -0.82223922648E+02 -0.46962370999E+01  0.57013331170E+03  0.57605105782E+03  0.00000000000E+00 0.  1.
          5    1    4    4  501    0  0.79134844190E+02  0.41644015744E+02  0.35722456630E+02  0.96385237044E+02  0.41800000000E+01 0.  1.
         -5    1    4    4    0  501  0.14743171580E+02 -0.21120880920E+02 -0.57120582001E+02  0.62798773931E+02  0.41800000000E+01 0.  1.
</event>
<event>
11    1  0.1003949E-008  0.1298327E+03  0.7561462E-02  0.1119475E+00
         22   -1    0    0    0    0  0.00000000000E+00  0.00000000000E+00  0.45892265459E+03  0.45892265459E+03  0.00000000000E+00 0. -1.
         22   -1    0    0    0    0 -0.00000000000E+00 -0.00000000000E+00 -0.20440354553E+03  0.20440354553E+03  0.00000000000E+00 0. -1.
        -24    2    1    2    0    0  0.18594457402E+02  0.29155705686E+02 -0.15228837296E+03  0.17495857864E+03  0.78885655722E+02 0.  0.
         25    2    1    2    0    0 -0.35699472493E+01 -0.41131624641E+02  0.88348506552E+02  0.15860762755E+03  0.12508543415E+03 0.  0.
         24    2    1    2    0    0 -0.15024510153E+02  0.11975918954E+02  0.31845897547E+03  0.32975999393E+03  0.83404891959E+02 0.  0.
        -13    1    5    5    0    0  0.13147133282E+02 -0.28513121551E+02  0.74189005940E+02  0.80559628949E+02  0.00000000000E+00 0.  1.
         14    1    5    5    0    0 -0.28171643435E+02  0.40489040505E+02  0.24426996953E+03  0.24920036499E+03  0.00000000000E+00 0. -1.
         11    1    3    3    0    0 -0.13242375221E+02  0.24735021020E+02 -0.13611509701E+03  0.13897662178E+03  0.00000000000E+00 0. -1.
        -12    1    3    3    0    0  0.31836832623E+02  0.44206846658E+01 -0.16173275953E+02  0.35981956860E+02  0.00000000000E+00 0.  1.
          5    1    4    4  501    0  0.50080876599E+02 -0.31782764586E+02  0.85199625662E+02  0.10389748283E+03  0.41800000000E+01 0. -1.
         -5    1    4    4    0  501 -0.53650823849E+02 -0.93488600541E+01  0.31488808899E+01  0.54710144716E+02  0.41800000000E+01 0. -1.
</event>
<event>
11    1  0.1003949E-008  0.1651443E+03  0.7561462E-02  0.1082336E+00
         22   -1    0    0    0    0  0.00000000000E+00  0.00000000000E+00  0.44910606423E+03  0.44910606423E+03  0.00000000000E+00 0. -1.
         22   -1    0    0    0    0 -0.00000000000E+00 -0.00000000000E+00 -0.71564850029E+03  0.71564850029E+03  0.00000000000E+00 0. -1.
         24    2    1    2    0    0  0.38048846851E+02  0.53532041748E+02 -0.60369236632E+03  0.61240513757E+03  0.79260236694E+02 0.  0.
         25    2    1    2    0    0 -0.13901573987E+03 -0.69715877521E+02  0.99849420665E+01  0.19983140359E+03  0.12508881358E+03 0.  0.
        -24    2    1    2    0    0  0.10096689302E+03  0.16183835774E+02  0.32716498820E+03  0.35251802335E+03  0.82315231032E+02 0.  0.
        -11    1    3    3    0    0 -0.13665362011E+02 -0.12069088311E+02 -0.76956290287E+02  0.79086507233E+02  0.00000000000E+00 0.  1.
         12    1    3    3    0    0  0.51714208862E+02  0.65601130058E+02 -0.52673607604E+03  0.53331863033E+03  0.00000000000E+00 0. -1.
         11    1    5    5    0    0  0.94534025282E+02  0.24479930100E+01  0.32332698947E+03  0.33687240422E+03  0.00000000000E+00 0. -1.
        -12    1    5    5    0    0  0.64328677387E+01  0.13735842764E+02  0.38379987264E+01  0.15645619131E+02  0.00000000000E+00 0.  1.
          5    1    4    4  501    0 -0.79577378106E+02  0.28510305798E+02  0.67001798988E+01  0.84898536227E+02  0.41800000000E+01 0.  1.
         -5    1    4    4    0  501 -0.59438361766E+02 -0.98226183319E+02  0.32847621678E+01  0.11493286737E+03  0.41800000000E+01 0.  1.
</event>
<event>
11    1  0.1003949E-008  0.1358545E+03  0.7561462E-02  0.1112278E+00
         22   -1    0    0    0    0  0.00000000000E+00  0.00000000000E+00  0.16809434689E+04  0.16809434689E+04  0.00000000000E+00 0. -1.
         22   -1    0    0    0    0 -0.00000000000E+00 -0.00000000000E+00 -0.41398115910E+03  0.41398115910E+03  0.00000000000E+00 0. -1.
        -24    2    1    2    0    0 -0.10186249883E+02  0.51014231634E+02 -0.34383791664E+03  0.35720438851E+03  0.81634862245E+02 0.  0.
         25    2    1    2    0    0  0.60055886669E+02 -0.53783954303E+02  0.27251053989E+02  0.15129354609E+03  0.12509074259E+03 0.  0.
         24    2    1    2    0    0 -0.49869636786E+02  0.27697226690E+01  0.15835491724E+04  0.15864266933E+04  0.81406510072E+02 0.  0.
        -13    1    5    5    0    0 -0.35902701559E+01  0.12492791753E+01  0.21847736370E+01  0.43845152635E+01  0.00000000000E+00 0.  1.
         14    1    5    5    0    0 -0.46279366630E+02  0.15204434936E+01  0.15813643988E+04  0.15820421781E+04  0.00000000000E+00 0. -1.
         13    1    3    3    0    0  0.55297329452E+01  0.21440846130E+02 -0.30548965446E+03  0.30629106551E+03  0.00000000000E+00 0. -1.
        -14    1    3    3    0    0 -0.15715982828E+02  0.29573385504E+02 -0.38348262181E+02  0.50913322998E+02  0.00000000000E+00 0.  1.
          5    1    4    4  501    0  0.28162529237E+02  0.38405074881E+02  0.24254336504E+02  0.53608050411E+02  0.41800000000E+01 0. -1.
         -5    1    4    4    0  501  0.31893357432E+02 -0.92189029184E+02  0.29967174848E+01  0.97685495678E+02  0.41800000000E+01 0. -1.
</event>
<event>
11    1  0.1003949E-008  0.1399200E+03  0.7561462E-02  0.1107648E+00
         22   -1    0    0    0    0  0.00000000000E+00  0.00000000000E+00  0.28540668032E+03  0.28540668032E+03  0.00000000000E+00 0. -1.
         22   -1    0    0    0    0 -0.00000000000E+00 -0.00000000000E+00 -0.65334373534E+03  0.65334373534E+03  0.00000000000E+00 0.  1.
         24    2    1    2    0    0  0.42129363610E+02 -0.22421312534E+02 -0.56771022694E+03  0.57517342273E+03  0.79069373990E+02 0.  0.
         25    2    1    2    0    0  0.73312591827E+01  0.64566349619E+02  0.19477629896E+01  0.14097448804E+03  0.12508977430E+03 0.  0.
        -24    2    1    2    0    0 -0.49460622793E+02 -0.42145037085E+02  0.19782540893E+03  0.22260250489E+03  0.78704672092E+02 0.  0.
        -13    1    3    3    0    0 -0.65930309143E+00  0.53077520583E+01 -0.39640487014E+03  0.39644095145E+03  0.00000000000E+00 0.  1.
         14    1    3    3    0    0  0.42788666702E+02 -0.27729064592E+02 -0.17130535680E+03  0.17873247128E+03  0.00000000000E+00 0. -1.
         11    1    5    5    0    0 -0.27032851574E+02 -0.14936841660E+02  0.18085076067E+03  0.18346902174E+03  0.00000000000E+00 0. -1.
        -12    1    5    5    0    0 -0.22427771219E+02 -0.27208195425E+02  0.16974648255E+02  0.39133483151E+02  0.00000000000E+00 0.  1.
          5    1    4    4  501    0 -0.16691703207E+02  0.48979655119E+02  0.58031853893E+02  0.77863907157E+02  0.41800000000E+01 0.  1.
         -5    1    4    4    0  501  0.24022962389E+02  0.15586694500E+02 -0.56084090903E+02  0.63110580887E+02  0.41800000000E+01 0.  1.
</event>
<event>
11    1  0.1003949E-008  0.1310384E+03  0.7561462E-02  0.1118000E+00
         22   -1    0    0    0    0  0.00000000000E+00  0.00000000000E+00  0.31518784769E+03  0.31518784769E+03  0.00000000000E+00 0. -1.
         22   -1    0    0    0    0 -0.00000000000E+00 -0.00000000000E+00 -0.35657064961E+03  0.35657064961E+03  0.00000000000E+00 0. -1.
        -24    2    1    2    0    0  0.40431213598E+01 -0.33506712385E+01 -0.28821663724E+03  0.29941535744E+03  0.80951543894E+02 0.  0.
         25    2    1    2    0    0  0.17768486725E+02 -0.29851302142E+02  0.23823775608E+02  0.13199214996E+03  0.12509011155E+03 0.  0.
         24    2    1    2    0    0 -0.21811608084E+02  0.33201973381E+02  0.22301005972E+03  0.24035098989E+03  0.80355424963E+02 0.  0.
        -13    1    5    5    0    0 -0.19561195731E+02  0.41312275270E+02  0.52405999463E+02  0.69539436625E+02  0.00000000000E+00 0.  1.
         14    1    5    5    0    0 -0.22504123534E+01 -0.81103018895E+01  0.17060406025E+03  0.17081155326E+03  0.00000000000E+00 0. -1.
         13    1    3    3    0    0 -0.76507341164E+01 -0.38461585646E+02 -0.19901468770E+03  0.20284149778E+03  0.00000000000E+00 0. -1.
        -14    1    3    3    0    0  0.11693855476E+02  0.35110914408E+02 -0.89201949545E+02  0.96573859657E+02  0.00000000000E+00 0.  1.
          5    1    4    4  501    0 -0.11970837843E+02 -0.70222669973E+02 -0.89887124998E+01  0.71922136295E+02  0.41800000000E+01 0.  1.
         -5    1    4    4    0  501  0.29739324568E+02  0.40371367831E+02  0.32812488108E+02  0.60070013668E+02  0.41800000000E+01 0.  1.
</event>
<event>
11    1  0.1003949E-008  0.2296850E+03  0.7561462E-02  0.1035315E+00
         22   -1    0    0    0    0  0.00000000000E+00  0.00000000000E+00  0.24361284957E+03  0.24361284957E+03  0.00000000000E+00 0.  1.
         22   -1    0    0    0    0 -0.00000000000E+00 -0.00000000000E+00 -0.10776020173E+04  0.10776020173E+04  0.00000000000E+00 0.  1.
         24    2    1    2    0    0 -0.15917391618E+03 -0.59624217012E+02 -0.60537088285E+03  0.63389928639E+03  0.80392889257E+02 0.  0.
         25    2    1    2    0    0  0.30530933101E+03  0.24453612695E+02 -0.34732293051E+03  0.47967988209E+03  0.12509118452E+03 0.  0.
        -24    2    1    2    0    0 -0.14613541483E+03  0.35170604318E+02  0.11870464558E+03  0.20763569844E+03  0.80182663397E+02 0.  0.
        -13    1    3    3    0    0 -0.13939389839E+03 -0.56872471735E+02 -0.58941304581E+03  0.60833615339E+03  0.00000000000E+00 0.  1.
         14    1    3    3    0    0 -0.19780017794E+02 -0.27517452775E+01 -0.15957837033E+02  0.25563133000E+02  0.00000000000E+00 0. -1.
         11    1    5    5    0    0 -0.69989282888E+02  0.43831464381E+02  0.24385730764E+02  0.86106682981E+02  0.00000000000E+00 0. -1.
        -12    1    5    5    0    0 -0.76146131940E+02 -0.86608600636E+01  0.94318914816E+02  0.12152901546E+03  0.00000000000E+00 0.  1.
          5    1    4    4  501    0 -0.33995460963E+01  0.18855267679E+02 -0.37146330793E+02  0.42004765496E+02  0.41800000000E+01 0.  1.
         -5    1    4    4    0  501  0.30870887710E+03  0.55983450151E+01 -0.31017659972E+03  0.43767511659E+03  0.41800000000E+01 0.  1.
</event>
<event>
11    1  0.1003949E-008  0.1526865E+03  0.7561462E-02  0.1094165E+00
         22   -1    0    0    0    0  0.00000000000E+00  0.00000000000E+00  0.14423489164E+03  0.14423489164E+03  0.00000000000E+00 0.  1.
         22   -1    0    0    0    0 -0.00000000000E+00 -0.00000000000E+00 -0.17487344884E+04  0.17487344884E+04  0.00000000000E+00 0.  1.
         24    2    1    2    0    0  0.46752585985E+02  0.75181402349E+02 -0.16194187266E+04  0.16233775494E+04  0.70707909121E+02 0.  0.
         25    2    1    2    0    0 -0.19450231603E+00 -0.73074307084E+02 -0.52755334473E+02  0.15417688868E+03  0.12508994964E+03 0.  0.
        -24    2    1    2    0    0 -0.46558083669E+02 -0.21070952651E+01  0.67674464271E+02  0.11541494197E+03  0.81047397919E+02 0.  0.
        -13    1    3    3    0    0  0.52974089532E+02  0.85015944918E+02 -0.15160947445E+04  0.15194002894E+04  0.00000000000E+00 0.  1.
         14    1    3    3    0    0 -0.62215035471E+01 -0.98345425684E+01 -0.10332398207E+03  0.10397726004E+03  0.00000000000E+00 0. -1.
         13    1    5    5    0    0 -0.27207772273E+02 -0.38703862165E+02  0.17680102114E+02  0.50505819757E+02  0.00000000000E+00 0. -1.
        -14    1    5    5    0    0 -0.19350311396E+02  0.36596766900E+02  0.49994362156E+02  0.64909122210E+02  0.00000000000E+00 0.  1.
          5    1    4    4  501    0 -0.17605969358E+02 -0.99497573773E+02 -0.11156376559E+02  0.10174317904E+03  0.41800000000E+01 0. -1.
         -5    1    4    4    0  501  0.17411467042E+02  0.26423266689E+02 -0.41598957914E+02  0.52433709640E+02  0.41800000000E+01 0. -1.
</event>
<event>
11    1  0.1003949E-008  0.1308000E+03  0.7561462E-02  0.1118290E+00
         22   -1    0    0    0    0  0.00000000000E+00  0.00000000000E+00  0.30126621132E+03  0.30126621132E+03  0.00000000000E+00 0.  1.
         22   -1    0    0    0    0 -0.00000000000E+00 -0.00000000000E+00 -0.61962783334E+03  0.61962783334E+03  0.00000000000E+00 0.  1.
        -24    2    1    2    0    0 -0.18028885095E+02 -0.25932521248E+02 -0.29225765004E+03  0.30488175785E+03  0.80875310834E+02 0.  0.
         25    2    1    2    0    0  0.35131854478E+02 -0.86131210962E+01 -0.30039294579E+03  0.32740309996E+03  0.12509370460E+03 0.  0.
         24    2    1    2    0    0 -0.17102969382E+02  0.34545642344E+02  0.27428897381E+03  0.28860918685E+03  0.81085810200E+02 0.  0.
        -11    1    5    5    0    0 -0.22421337442E+02  0.27651930852E+02  0.27716329060E+03  0.27944021777E+03  0.00000000000E+00 0.  1.
         12    1    5    5    0    0  0.53183680595E+01  0.68937114920E+01 -0.28743167920E+01  0.91689690791E+01  0.00000000000E+00 0. -1.
         13    1    3    3    0    0 -0.68609673775E+01  0.88229873460E+00  0.34644209622E+01  0.77365067709E+01  0.00000000000E+00 0. -1.
        -14    1    3    3    0    0 -0.11167917718E+02 -0.26814819982E+02 -0.29572207100E+03  0.29714525107E+03  0.00000000000E+00 0.  1.
          5    1    4    4  501    0  0.30450072760E+02 -0.29796676337E+02 -0.30221739606E+03  0.30523413265E+03  0.41800000000E+01 0. -1.
         -5    1    4    4    0  501  0.46817817181E+01  0.21183555240E+02  0.18244502766E+01  0.22168967308E+02  0.41800000000E+01 0. -1.
</event>
<event>
11    1  0.1003949E-008  0.1422358E+03  0.7561462E-02  0.1105087E+00
         22   -1    0    0    0    0  0.00000000000E+00  0.00000000000E+00  0.50051239257E+03  0.50051239257E+03  0.00000000000E+00 0.  1.
         22   -1    0    0    0    0 -0.00000000000E+00 -0.00000000000E+00 -0.46998286132E+03  0.46998286132E+03  0.00000000000E+00 0.  1.
        -24    2    1    2    0    0  0.63337345162E+02  0.28162218940E+02 -0.41557833372E+03  0.42892428258E+03  0.80411186191E+02 0.  0.
         25    2    1    2    0    0 -0.30368135284E+02 -0.35651362647E+02  0.61549815484E+02  0.14706981356E+03  0.12509159435E+03 0.  0.
         24    2    1    2    0    0 -0.32969209878E+02  0.74891437070E+01  0.38455804947E+03  0.39450115775E+03  0.81260162288E+02 0.  0.
        -11    1    5    5    0    0 -0.27110982863E+01  0.41205616280E+02  0.21885792458E+03  0.22271965341E+03  0.00000000000E+00 0.  1.
         12    1    5    5    0    0 -0.30258111592E+02 -0.33716472573E+02  0.16570012490E+03  0.17178150433E+03  0.00000000000E+00 0. -1.
         11    1    3    3    0    0 -0.17913682126E+02  0.39518935962E+01 -0.41746414160E+02  0.45599129000E+02  0.00000000000E+00 0. -1.
        -12    1    3    3    0    0  0.81251027287E+02  0.24210325343E+02 -0.37383191956E+03  0.38332515358E+03  0.00000000000E+00 0.  1.
          5    1    4    4  501    0 -0.81496620649E+01 -0.78795929930E+02  0.17145356772E+02  0.81158186428E+02  0.41800000000E+01 0. -1.
         -5    1    4    4    0  501 -0.22218473219E+02  0.43144567284E+02  0.44404458712E+02  0.65911627137E+02  0.41800000000E+01 0. -1.
</event>
<event>
11    1  0.1003949E-008  0.1474477E+03  0.7561462E-02  0.1099516E+00
         22   -1    0    0    0    0  0.00000000000E+00  0.00000000000E+00  0.64522104948E+03  0.64522104948E+03  0.00000000000E+00 0.  1.
         22   -1    0    0    0    0 -0.00000000000E+00 -0.00000000000E+00 -0.10297373246E+04  0.10297373246E+04  0.00000000000E+00 0.  1.
         24    2    1    2    0    0  0.32235603095E+02  0.22628515913E+02 -0.94868759345E+03  0.95299533690E+03  0.81490970946E+02 0.  0.
         25    2    1    2    0    0  0.55129250313E+01 -0.90597796204E+02  0.81959536312E+01  0.15475133149E+03  0.12506977222E+03 0.  0.
        -24    2    1    2    0    0 -0.37748528126E+02  0.67969280291E+02  0.55597536469E+03  0.56721170570E+03  0.81090927389E+02 0.  0.
        -13    1    3    3    0    0  0.86486251163E+01 -0.77858789011E+01 -0.77529598537E+03  0.77538331396E+03  0.00000000000E+00 0.  1.
         14    1    3    3    0    0  0.23586977979E+02  0.30414394815E+02 -0.17339160807E+03  0.17761202294E+03  0.00000000000E+00 0. -1.
         13    1    5    5    0    0  0.23607643206E+02  0.30938408472E+02  0.24604663782E+03  0.24910530689E+03  0.00000000000E+00 0. -1.
        -14    1    5    5    0    0 -0.61356171333E+02  0.37030871819E+02  0.30992872687E+03  0.31810639881E+03  0.00000000000E+00 0.  1.
          5    1    4    4  501    0 -0.46026669311E+02  0.41705803703E+01  0.58213423083E+01  0.46767600481E+02  0.41800000000E+01 0.  1.
         -5    1    4    4    0  501  0.51539594343E+02 -0.94768376575E+02  0.23746113229E+01  0.10798373101E+03  0.41800000000E+01 0.  1.
</event>
<event>
11    1  0.1003949E-008  0.1406097E+03  0.7561462E-02  0.1106880E+00
         22   -1    0    0    0    0  0.00000000000E+00  0.00000000000E+00  0.32762791474E+03  0.32762791474E+03  0.00000000000E+00 0.  1.
         22   -1    0    0    0    0 -0.00000000000E+00 -0.00000000000E+00 -0.43596961401E+03  0.43596961401E+03  0.00000000000E+00 0.  1.
        -24    2    1    2    0    0  0.12130101902E+02 -0.25697572382E+01 -0.36196009118E+03  0.37102303498E+03  0.80555830659E+02 0.  0.
         25    2    1    2    0    0  0.77431140890E+01 -0.59517974273E+02  0.24484895898E+02  0.14088682840E+03  0.12508894121E+03 0.  0.
         24    2    1    2    0    0 -0.19873215991E+02  0.62087731511E+02  0.22913349602E+03  0.25168766537E+03  0.81207701503E+02 0.  0.
        -13    1    5    5    0    0 -0.24375802427E+02  0.57910513606E+02  0.23496353334E+03  0.24321938519E+03  0.00000000000E+00 0.  1.
         14    1    5    5    0    0  0.45025864367E+01  0.41772179057E+01 -0.58300373239E+01  0.84682801825E+01  0.00000000000E+00 0. -1.
         11    1    3    3    0    0  0.25442625336E+02 -0.25256464117E+02 -0.77964602097E+02  0.85811976692E+02  0.00000000000E+00 0. -1.
        -12    1    3    3    0    0 -0.13312523434E+02  0.22686706879E+02 -0.28399548909E+03  0.28521105829E+03  0.00000000000E+00 0.  1.
          5    1    4    4  501    0 -0.48841413648E+02 -0.25653413156E+02  0.45410332775E+02  0.71576197276E+02  0.41800000000E+01 0. -1.
         -5    1    4    4    0  501  0.56584527737E+02 -0.33864561117E+02 -0.20925436877E+02  0.69310631128E+02  0.41800000000E+01 0. -1.
</event>
<event>
11    1  0.1003949E-008  0.1651338E+03  0.7561462E-02  0.1082346E+00
         22   -1    0    0    0    0  0.00000000000E+00  0.00000000000E+00  0.15746796556E+04  0.15746796556E+04  0.00000000000E+00 0.  1.
         22   -1    0    0    0    0 -0.00000000000E+00 -0.00000000000E+00 -0.13329998331E+04  0.13329998331E+04  0.00000000000E+00 0.  1.
        -24    2    1    2    0    0 -0.29726685868E+02 -0.83663023043E+02 -0.12806539806E+04  0.12863249318E+04  0.81694766897E+02 0.  0.
         25    2    1    2    0    0  0.45180036176E+02  0.18425575732E+03  0.23396165800E+03  0.32616038757E+03  0.12510444130E+03 0.  0.
         24    2    1    2    0    0 -0.15453350308E+02 -0.10059273428E+03  0.12883721451E+04  0.12951941693E+04  0.85249326810E+02 0.  0.
        -11    1    5    5    0    0 -0.70607565617E+01 -0.10252535987E+03  0.77903477252E+03  0.78578399099E+03  0.00000000000E+00 0.  1.
         12    1    5    5    0    0 -0.83925937459E+01  0.19326255863E+01  0.50933737257E+03  0.50941017832E+03  0.00000000000E+00 0. -1.
         11    1    3    3    0    0  0.19569335600E+02  0.35178246374E+01 -0.26501544978E+03  0.26576027282E+03  0.00000000000E+00 0. -1.
        -12    1    3    3    0    0 -0.49296021468E+02 -0.87180847680E+02 -0.10156385308E+04  0.10205646590E+04  0.00000000000E+00 0.  1.
          5    1    4    4  501    0  0.33827646170E+01 -0.10285031329E+02  0.62181764186E+02  0.63255586024E+02  0.41800000000E+01 0. -1.
         -5    1    4    4    0  501  0.41797271559E+02  0.19454078865E+03  0.17177989382E+03  0.26290480155E+03  0.41800000000E+01 0. -1.
</event>
<event>
11    1  0.1003949E-008  0.2011792E+03  0.7561462E-02  0.1053693E+00
         22   -1    0    0    0    0  0.00000000000E+00  0.00000000000E+00  0.14914397974E+04  0.14914397974E+04  0.00000000000E+00 0.  1.
         22   -1    0    0    0    0 -0.00000000000E+00 -0.00000000000E+00 -0.66475028218E+03  0.66475028218E+03  0.00000000000E+00 0. -1.
         24    2    1    2    0    0  0.14522242380E+03  0.83678920133E+02 -0.47478504997E+03  0.51021235501E+03  0.82486904891E+02 0.  0.
         25    2    1    2    0    0 -0.11970197224E+03 -0.53005639710E+02 -0.12284927835E+03  0.21881153736E+03  0.12509349980E+03 0.  0.
        -24    2    1    2    0    0 -0.25520451567E+02 -0.30673280424E+02  0.14243238435E+04  0.14271661872E+04  0.80701741302E+02 0.  0.
        -11    1    3    3    0    0 -0.92899416277E+01  0.10829649962E+02 -0.21467274350E+02  0.25776504840E+02  0.00000000000E+00 0.  1.
         12    1    3    3    0    0  0.15451236543E+03  0.72849270171E+02 -0.45331777562E+03  0.48443585017E+03  0.00000000000E+00 0. -1.
         13    1    5    5    0    0 -0.14866719864E+02 -0.31505800821E+02  0.21570267248E+03  0.21849777518E+03  0.00000000000E+00 0. -1.
        -14    1    5    5    0    0 -0.10653731703E+02  0.83252039700E+00  0.12086211710E+04  0.12086684120E+04  0.00000000000E+00 0.  1.
          5    1    4    4  501    0 -0.75107013632E+02 -0.34397774980E+02 -0.14386808417E+03  0.16595110263E+03  0.41800000000E+01 0. -1.
         -5    1    4    4    0  501 -0.44594958603E+02 -0.18607864730E+02  0.21018805817E+02  0.52860434737E+02  0.41800000000E+01 0. -1.
</event>
<event>
11    1  0.1003949E-008  0.1452879E+03  0.7561462E-02  0.1101793E+00
         22   -1    0    0    0    0  0.00000000000E+00  0.00000000000E+00  0.66128812238E+03  0.66128812238E+03  0.00000000000E+00 0. -1.
         22   -1    0    0    0    0 -0.00000000000E+00 -0.00000000000E+00 -0.26402467440E+03  0.26402467440E+03  0.00000000000E+00 0. -1.
         24    2    1    2    0    0  0.76024813557E+01  0.39931817525E+02 -0.16106957278E+03  0.18380888428E+03  0.78676240951E+02 0.  0.
         25    2    1    2    0    0 -0.37796674741E+02 -0.10492821355E+03 -0.51367847815E+01  0.16766690263E+03  0.12508910847E+03 0.  0.
        -24    2    1    2    0    0  0.30194193385E+02  0.64996396023E+02  0.56346980554E+03  0.57383700987E+03  0.81574942976E+02 0.  0.
        -11    1    3    3    0    0  0.42593663071E+02  0.13793320815E+02 -0.76966092572E+02  0.89040750439E+02  0.00000000000E+00 0.  1.
         12    1    3    3    0    0 -0.34991181715E+02  0.26138496710E+02 -0.84103480212E+02  0.94768133842E+02  0.00000000000E+00 0. -1.
         11    1    5    5    0    0 -0.13675536457E+02 -0.12020135149E+02  0.14090949912E+03  0.14208093077E+03  0.00000000000E+00 0. -1.
        -12    1    5    5    0    0  0.43869729842E+02  0.77016531173E+02  0.42256030643E+03  0.43175607910E+03  0.00000000000E+00 0.  1.
          5    1    4    4  501    0 -0.83454943750E+02 -0.59085392753E+02 -0.88750124463E+01  0.10272316934E+03  0.41800000000E+01 0.  1.
         -5    1    4    4    0  501  0.45658269009E+02 -0.45842820795E+02  0.37382276648E+01  0.64943733288E+02  0.41800000000E+01 0.  1.
</event>
<event>
11    1  0.1003949E-008  0.1773932E+03  0.7561462E-02  0.1071771E+00
         22   -1    0    0    0    0  0.00000000000E+00  0.00000000000E+00  0.86916980104E+03  0.86916980104E+03  0.00000000000E+00 0. -1.
         22   -1    0    0    0    0 -0.00000000000E+00 -0.00000000000E+00 -0.38157661494E+03  0.38157661494E+03  0.00000000000E+00 0.  1.
         24    2    1    2    0    0  0.40857146330E+02  0.37463887273E+02 -0.30084666862E+03  0.31576091374E+03  0.78252075819E+02 0.  0.
         25    2    1    2    0    0 -0.11508185822E+03 -0.13095995710E+03  0.11317908950E+03  0.24259299247E+03  0.12509000456E+03 0.  0.
        -24    2    1    2    0    0  0.74224711892E+02  0.93496069825E+02  0.67526076522E+03  0.69239250976E+03  0.95809517291E+02 0.  0.
        -11    1    3    3    0    0  0.39026757826E+02  0.15335597166E+02 -0.28598420666E+03  0.28904192573E+03  0.00000000000E+00 0.  1.
         12    1    3    3    0    0  0.18303885047E+01  0.22128290106E+02 -0.14862461961E+02  0.26718988017E+02  0.00000000000E+00 0. -1.
         11    1    5    5    0    0  0.74474805481E+02  0.57169875662E+02  0.61426382778E+03  0.62139757117E+03  0.00000000000E+00 0. -1.
        -12    1    5    5    0    0 -0.25009358856E+00  0.36326194163E+02  0.60996937438E+02  0.70994938594E+02  0.00000000000E+00 0.  1.
          5    1    4    4  501    0 -0.69267605864E+01 -0.36704041700E+02  0.89575158553E+02  0.97140867400E+02  0.41800000000E+01 0. -1.
         -5    1    4    4    0  501 -0.10815509764E+03 -0.94255915398E+02  0.23603930951E+02  0.14545212507E+03  0.41800000000E+01 0. -1.
</event>
<event>
11    1  0.1003949E-008  0.1418341E+03  0.7561462E-02  0.1105527E+00
         22   -1    0    0    0    0  0.00000000000E+00  0.00000000000E+00  0.93651943683E+02  0.93651943683E+02  0.00000000000E+00 0.  1.
         22   -1    0    0    0    0 -0.00000000000E+00 -0.00000000000E+00 -0.56667015374E+03  0.56667015374E+03  0.00000000000E+00 0.  1.
         24    2    1    2    0    0 -0.33859635315E+02 -0.36739897563E+02 -0.34681435315E+03  0.35981262856E+03  0.81784088559E+02 0.  0.
         25    2    1    2    0    0 -0.40934318196E+02  0.33845692270E+02 -0.13302658434E+03  0.19017104700E+03  0.12509118948E+03 0.  0.
        -24    2    1    2    0    0  0.74793953510E+02  0.28942052929E+01  0.68227274293E+01  0.11033842187E+03  0.80780603019E+02 0.  0.
        -13    1    3    3    0    0 -0.21897357320E+02 -0.35277196868E+02 -0.34515982336E+03  0.34764821090E+03  0.00000000000E+00 0.  1.
         14    1    3    3    0    0 -0.11962277994E+02 -0.14627006954E+01 -0.16545297857E+01  0.12164417658E+02  0.00000000000E+00 0. -1.
         11    1    5    5    0    0  0.75547360761E+02  0.15547693916E+02 -0.20851369736E+02  0.79899400023E+02  0.00000000000E+00 0. -1.
        -12    1    5    5    0    0 -0.75340725105E+00 -0.12653488624E+02  0.27674097165E+02  0.30439021843E+02  0.00000000000E+00 0.  1.
          5    1    4    4  501    0 -0.33764434317E+00 -0.38911432949E+02 -0.85811199442E+02  0.94314622236E+02  0.41800000000E+01 0. -1.
         -5    1    4    4    0  501 -0.40596673852E+02  0.72757125219E+02 -0.47215384895E+02  0.95856424766E+02  0.41800000000E+01 0. -1.
</event>
<event>
11    1  0.1003949E-008  0.2814399E+03  0.7561462E-02  0.1008367E+00
         22   -1    0    0    0    0  0.00000000000E+00  0.00000000000E+00  0.60012705524E+03  0.60012705524E+03  0.00000000000E+00 0. -1.
         22   -1    0    0    0    0 -0.00000000000E+00 -0.00000000000E+00 -0.67844708464E+03  0.67844708464E+03  0.00000000000E+00 0. -1.
        -24    2    1    2    0    0  0.13502894559E+02 -0.30530373605E+02 -0.47220950148E+03  0.48002884325E+03  0.79570378815E+02 0.  0.
         25    2    1    2    0    0  0.97358885504E+02 -0.20277855017E+03 -0.64296334525E+02  0.26528656913E+03  0.12508018281E+03 0.  0.
         24    2    1    2    0    0 -0.11086178006E+03  0.23330892377E+03  0.45818580660E+03  0.53325872751E+03  0.87790938623E+02 0.  0.
        -11    1    5    5    0    0 -0.58547112556E+02  0.82442177624E+02  0.25854176049E+03  0.27761181343E+03  0.00000000000E+00 0.  1.
         12    1    5    5    0    0 -0.52314667507E+02  0.15086674615E+03  0.19964404611E+03  0.25564691408E+03  0.00000000000E+00 0. -1.
         13    1    3    3    0    0 -0.79252686961E+01  0.91623488355E+01 -0.34223958616E+03  0.34245392807E+03  0.00000000000E+00 0. -1.
        -14    1    3    3    0    0  0.21428163255E+02 -0.39692722441E+02 -0.12996991532E+03  0.13757491517E+03  0.00000000000E+00 0.  1.
          5    1    4    4  501    0 -0.19930687508E+02 -0.12775188200E+02 -0.31403870971E+02  0.39548871665E+02  0.41800000000E+01 0.  1.
         -5    1    4    4    0  501  0.11728957301E+03 -0.19000336197E+03 -0.32892463554E+02  0.22573769746E+03  0.41800000000E+01 0.  1.
</event>
<event>
11    1  0.1003949E-008  0.1325702E+03  0.7561462E-02  0.1116151E+00
         22   -1    0    0    0    0  0.00000000000E+00  0.00000000000E+00  0.53263165835E+02  0.53263165835E+02  0.00000000000E+00 0. -1.
         22   -1    0    0    0    0 -0.00000000000E+00 -0.00000000000E+00 -0.73462747005E+03  0.73462747005E+03  0.00000000000E+00 0.  1.
        -24    2    1    2    0    0  0.27460489183E+02  0.29620760541E+02 -0.33329603039E+03  0.34531925272E+03  0.80794025184E+02 0.  0.
         25    2    1    2    0    0 -0.93582286102E+01 -0.65973010827E+02 -0.30473357765E+03  0.33608031044E+03  0.12508959635E+03 0.  0.
         24    2    1    2    0    0 -0.18102260573E+02  0.36352250286E+02 -0.43334696169E+02  0.10649107272E+03  0.88392730122E+02 0.  0.
        -11    1    5    5    0    0 -0.46079233047E+02  0.35737852057E+02 -0.51007823400E+02  0.77474433434E+02  0.00000000000E+00 0.  1.
         12    1    5    5    0    0  0.27976972474E+02  0.61439822909E+00  0.76731272303E+01  0.29016639287E+02  0.00000000000E+00 0. -1.
         13    1    3    3    0    0  0.26678825740E+02  0.54514942384E+01 -0.27965580754E+02  0.39032707301E+02  0.00000000000E+00 0. -1.
        -14    1    3    3    0    0  0.78166344344E+00  0.24169266303E+02 -0.30533044964E+03  0.30628654542E+03  0.00000000000E+00 0.  1.
          5    1    4    4  501    0 -0.14478629188E+02 -0.56771442911E+02 -0.31521801988E+03  0.32064388329E+03  0.41800000000E+01 0.  1.
         -5    1    4    4    0  501  0.51204005783E+01 -0.92015679163E+01  0.10484442231E+02  0.15436427148E+02  0.41800000000E+01 0.  1.
</event>
<event>
11    1  0.1003949E-008  0.1710309E+03  0.7561462E-02  0.1077138E+00
         22   -1    0    0    0    0  0.00000000000E+00  0.00000000000E+00  0.36161381530E+04  0.36161381530E+04  0.00000000000E+00 0.  1.
         22   -1    0    0    0    0 -0.00000000000E+00 -0.00000000000E+00 -0.13205691380E+03  0.13205691380E+03  0.00000000000E+00 0.  1.
        -24    2    1    2    0    0 -0.27401638467E+02 -0.81111122161E+02 -0.64998157393E+02  0.13417300897E+03  0.80298019539E+02 0.  0.
         25    2    1    2    0    0  0.16615341009E+02  0.19354749904E+03  0.40033062550E+03  0.46222205294E+03  0.12509161668E+03 0.  0.
         24    2    1    2    0    0  0.10786297457E+02 -0.11243637687E+03  0.31487487711E+04  0.31518000049E+04  0.80412463861E+02 0.  0.
        -13    1    5    5    0    0  0.41479932482E+02 -0.83226442704E+02  0.18177736039E+04  0.18201505708E+04  0.00000000000E+00 0.  1.
         14    1    5    5    0    0 -0.30693635024E+02 -0.29209934170E+02  0.13309751672E+04  0.13316494341E+04  0.00000000000E+00 0. -1.
         13    1    3    3    0    0 -0.26417355381E+02  0.19712580825E+01  0.31961884790E+01  0.26682918591E+02  0.00000000000E+00 0. -1.
        -14    1    3    3    0    0 -0.98428308615E+00 -0.83082380243E+02 -0.68194345872E+02  0.10749009038E+03  0.00000000000E+00 0.  1.
          5    1    4    4  501    0 -0.53081778595E+02  0.59700213729E+02  0.14488961616E+03  0.16550608451E+03  0.41800000000E+01 0. -1.
         -5    1    4    4    0  501  0.69697119604E+02  0.13384728531E+03  0.25544100934E+03  0.29671596843E+03  0.41800000000E+01 0. -1.
</event>
<event>
11    1  0.1003949E-008  0.3398400E+03  0.7561462E-02  0.9846109E-01
         22   -1    0    0    0    0  0.00000000000E+00  0.00000000000E+00  0.26670140960E+04  0.26670140960E+04  0.00000000000E+00 0.  1.
         22   -1    0    0    0    0 -0.00000000000E+00 -0.00000000000E+00 -0.66986215655E+02  0.66986215655E+02  0.00000000000E+00 0.  1.
        -24    2    1    2    0    0  0.18028140714E+01  0.29193162056E+02  0.15148948185E+03  0.17406193332E+03  0.80579170210E+02 0.  0.
         25    2    1    2    0    0  0.19876842480E+03 -0.26594650924E+03  0.73032194973E+03  0.81194464914E+03  0.12509008968E+03 0.  0.
         24    2    1    2    0    0 -0.20057123887E+03  0.23675334719E+03  0.17182164488E+04  0.17479937292E+04  0.83266699297E+02 0.  0.
        -13    1    5    5    0    0 -0.12682549596E+03  0.13311870785E+03  0.79063744037E+03  0.81173447563E+03  0.00000000000E+00 0.  1.
         14    1    5    5    0    0 -0.73745742913E+02  0.10363463934E+03  0.92757900839E+03  0.93625925355E+03  0.00000000000E+00 0. -1.
         11    1    3    3    0    0 -0.35735625432E+02  0.81128201743E+00  0.43768716377E+02  0.56510119774E+02  0.00000000000E+00 0. -1.
        -12    1    3    3    0    0  0.37538439503E+02  0.28381880038E+02  0.10772076547E+03  0.11755181355E+03  0.00000000000E+00 0.  1.
          5    1    4    4  501    0 -0.14432117539E+02 -0.37028435037E+02  0.58437566979E+02  0.70794156908E+02  0.41800000000E+01 0.  1.
         -5    1    4    4    0  501  0.21320054234E+03 -0.22891807421E+03  0.67188438275E+03  0.74115049224E+03  0.41800000000E+01 0.  1.
</event>
<event>
11    1  0.1003949E-008  0.1305537E+03  0.7561462E-02  0.1118591E+00
         22   -1    0    0    0    0  0.00000000000E+00  0.00000000000E+00  0.33049776458E+04  0.33049776458E+04  0.00000000000E+00 0.  1.
         22   -1    0    0    0    0 -0.00000000000E+00 -0.00000000000E+00 -0.76333018003E+02  0.76333018003E+02  0.00000000000E+00 0. -1.
        -24    2    1    2    0    0 -0.42308613998E+02 -0.17180977790E+02 -0.40521559566E+02  0.10045762386E+03  0.79778020692E+02 0.  0.
         25    2    1    2    0    0  0.30417456043E+02 -0.22356714130E+02  0.85394327460E+03  0.86388133592E+03  0.12508717767E+03 0.  0.
         24    2    1    2    0    0  0.11891157955E+02  0.39537691920E+02  0.24152229128E+04  0.24169717040E+04  0.82133251465E+02 0.  0.
        -13    1    5    5    0    0 -0.35407508563E+02  0.20285165676E+02  0.11137293291E+04  0.11144766477E+04  0.00000000000E+00 0.  1.
         14    1    5    5    0    0  0.47298666518E+02  0.19252526244E+02  0.13014935836E+04  0.13024950563E+04  0.00000000000E+00 0. -1.
         11    1    3    3    0    0 -0.61747019848E+02  0.58453323439E+00 -0.40996128717E+02  0.74119624318E+02  0.00000000000E+00 0. -1.
        -12    1    3    3    0    0  0.19438405850E+02 -0.17765511025E+02  0.47456915076E+00  0.26337999542E+02  0.00000000000E+00 0.  1.
          5    1    4    4  501    0 -0.25602759997E+02 -0.11358280298E+02  0.46732687030E+02  0.54643648193E+02  0.41800000000E+01 0.  1.
         -5    1    4    4    0  501  0.56020216039E+02 -0.10998433831E+02  0.80721058757E+03  0.80923768772E+03  0.41800000000E+01 0.  1.
</event>
<event>
11    1  0.1003949E-008  0.1345373E+03  0.7561462E-02  0.1113816E+00
         22   -1    0    0    0    0  0.00000000000E+00  0.00000000000E+00  0.21967437880E+03  0.21967437880E+03  0.00000000000E+00 0. -1.
         22   -1    0    0    0    0 -0.00000000000E+00 -0.00000000000E+00 -0.10199429800E+04  0.10199429800E+04  0.00000000000E+00 0.  1.
        -24    2    1    2    0    0 -0.23601241571E+02 -0.23542169538E+02 -0.81361200771E+03  0.81814917931E+03  0.79324196557E+02 0.  0.
         25    2    1    2    0    0 -0.19245607628E+02  0.49216648945E+02 -0.16861027516E+03  0.21649413180E+03  0.12509041639E+03 0.  0.
         24    2    1    2    0    0  0.42846849199E+02 -0.25674479407E+02  0.18195368168E+03  0.20497404768E+03  0.80076129804E+02 0.  0.
        -13    1    5    5    0    0  0.47701813749E+00 -0.25367363972E+02  0.90234763571E+01  0.26928680375E+02  0.00000000000E+00 0.  1.
         14    1    5    5    0    0  0.42369831061E+02 -0.30711543553E+00  0.17293020532E+03  0.17804536730E+03  0.00000000000E+00 0. -1.
         11    1    3    3    0    0 -0.77573331188E+01 -0.12577931783E+01 -0.55408927246E+01  0.96155994603E+01  0.00000000000E+00 0. -1.
        -12    1    3    3    0    0 -0.15843908452E+02 -0.22284376359E+02 -0.80807111499E+03  0.80853357985E+03  0.00000000000E+00 0.  1.
          5    1    4    4  501    0  0.40981574934E+02 -0.17708187046E+02 -0.45130242540E+02  0.63618240814E+02  0.41800000000E+01 0.  1.
         -5    1    4    4    0  501 -0.60227182562E+02  0.66924835990E+02 -0.12348003261E+03  0.15287589099E+03  0.41800000000E+01 0.  1.
</event>
<event>
11    1  0.1003949E-008  0.1406241E+03  0.7561462E-02  0.1106864E+00
         22   -1    0    0    0    0  0.00000000000E+00  0.00000000000E+00  0.45521602047E+03  0.45521602047E+03  0.00000000000E+00 0.  1.
         22   -1    0    0    0    0 -0.00000000000E+00 -0.00000000000E+00 -0.48671650120E+03  0.48671650120E+03  0.00000000000E+00 0. -1.
        -24    2    1    2    0    0  0.67629080678E+02  0.13038660547E+02 -0.34542116347E+03  0.36134387235E+03  0.80684042342E+02 0.  0.
         25    2    1    2    0    0 -0.21487305657E+02 -0.71028828789E+02 -0.84869440793E+02  0.16839653098E+03  0.12509105020E+03 0.  0.
         24    2    1    2    0    0 -0.46141775021E+02  0.57990168242E+02  0.39879012353E+03  0.41219211834E+03  0.73327053576E+02 0.  0.
        -13    1    5    5    0    0 -0.63101969810E+02  0.38838801479E+02  0.34156007965E+03  0.34950479125E+03  0.00000000000E+00 0.  1.
         14    1    5    5    0    0  0.16960194789E+02  0.19151366763E+02  0.57230043873E+02  0.62687327091E+02  0.00000000000E+00 0. -1.
         13    1    3    3    0    0  0.22637168637E+02 -0.20450073720E+02 -0.24000099970E+03  0.24193207058E+03  0.00000000000E+00 0. -1.
        -14    1    3    3    0    0  0.44991912041E+02  0.33488734267E+02 -0.10542016377E+03  0.11941180177E+03  0.00000000000E+00 0.  1.
          5    1    4    4  501    0 -0.92975445693E+01  0.29908413227E+02  0.57755353204E+01  0.32121437156E+02  0.41800000000E+01 0.  1.
         -5    1    4    4    0  501 -0.12189761088E+02 -0.10093724202E+03 -0.90644976113E+02  0.13627509382E+03  0.41800000000E+01 0.  1.
</event>
<event>
11    1  0.1143356E-008  0.2232101E+03  0.7561462E-02  0.1039225E+00
         22   -1    0    0    0    0  0.00000000000E+00  0.00000000000E+00  0.85862376371E+03  0.85862376371E+03  0.00000000000E+00 0.  1.
         22   -1    0    0    0    0 -0.00000000000E+00 -0.00000000000E+00 -0.11691399022E+04  0.11691399022E+04  0.00000000000E+00 0.  1.
         24    2    1    2    0    0 -0.11660834097E+02  0.88000948553E+02 -0.61360214133E+03  0.62511346908E+03  0.79869389511E+02 0.  0.
         25    2    1    2    0    0 -0.11246039723E+03  0.51229722594E+02 -0.52299256137E+03  0.55175972984E+03  0.12508299166E+03 0.  0.
        -24    2    1    2    0    0  0.12412123133E+03 -0.13923067115E+03  0.82607856426E+03  0.85089046694E+03  0.82568350751E+02 0.  0.
        -11    1    3    3    0    0  0.11847680952E+02  0.89225911118E+01 -0.31429571161E+03  0.31464547432E+03  0.00000000000E+00 0.  1.
         12    1    3    3    0    0 -0.23508515049E+02  0.79078357441E+02 -0.29930642972E+03  0.31046799476E+03  0.00000000000E+00 0. -1.
         13    1    5    5    0    0  0.11699395800E+02 -0.71895749208E+02  0.28270636511E+03  0.29193965728E+03  0.00000000000E+00 0. -1.
        -14    1    5    5    0    0  0.11242183553E+03 -0.67334921939E+02  0.54337219915E+03  0.55895080966E+03  0.00000000000E+00 0.  1.
          5    1    4    4  501    0 -0.19841519189E+02  0.53251019438E+02 -0.74568719983E+02  0.93847340691E+02  0.41800000000E+01 0. -1.
         -5    1    4    4    0  501 -0.92618878044E+02 -0.20212968441E+01 -0.44842384139E+03  0.45791238915E+03  0.41800000000E+01 0. -1.
</event>
<event>
11    1  0.1003949E-008  0.1476921E+03  0.7561462E-02  0.1099261E+00
         22   -1    0    0    0    0  0.00000000000E+00  0.00000000000E+00  0.52431056624E+03  0.52431056624E+03  0.00000000000E+00 0. -1.
         22   -1    0    0    0    0 -0.00000000000E+00 -0.00000000000E+00 -0.11644884585E+04  0.11644884585E+04  0.00000000000E+00 0.  1.
        -24    2    1    2    0    0 -0.67511786383E+02  0.38318800471E+02 -0.10978325188E+04  0.11036463059E+04  0.82296765046E+02 0.  0.
         25    2    1    2    0    0  0.83342839091E+02 -0.10050437458E+03  0.86420513304E+02  0.20040880293E+03  0.12509206624E+03 0.  0.
         24    2    1    2    0    0 -0.15831052708E+02  0.62185574111E+02  0.37123411324E+03  0.38474391585E+03  0.78073337913E+02 0.  0.
        -13    1    5    5    0    0 -0.16272539476E+02 -0.16021552477E+02  0.81110152908E+02  0.84263530602E+02  0.00000000000E+00 0.  1.
         14    1    5    5    0    0  0.44148676768E+00  0.78207126588E+02  0.29012396034E+03  0.30048038525E+03  0.00000000000E+00 0. -1.
         11    1    3    3    0    0  0.70806613621E+01  0.31676493436E+02 -0.19207345135E+03  0.19479668045E+03  0.00000000000E+00 0. -1.
        -12    1    3    3    0    0 -0.74592447745E+02  0.66423070351E+01 -0.90575906742E+03  0.90884962547E+03  0.00000000000E+00 0.  1.
          5    1    4    4  501    0  0.91668326233E+01  0.29328015721E+02  0.11163484497E+02  0.32958445239E+02  0.41800000000E+01 0. -1.
         -5    1    4    4    0  501  0.74176006468E+02 -0.12983239030E+03  0.75257028807E+02  0.16745035770E+03  0.41800000000E+01 0. -1.
</event>
<event>
11    1  0.1003949E-008  0.1487053E+03  0.7561462E-02  0.1098209E+00
         22   -1    0    0    0    0  0.00000000000E+00  0.00000000000E+00  0.10547032664E+04  0.10547032664E+04  0.00000000000E+00 0.  1.
         22   -1    0    0    0    0 -0.00000000000E+00 -0.00000000000E+00 -0.29835124554E+03  0.29835124554E+03  0.00000000000E+00 0. -1.
         24    2    1    2    0    0  0.12347847805E+02  0.29947920663E+02 -0.26347975840E+03  0.27711439298E+03  0.79507587142E+02 0.  0.
         25    2    1    2    0    0 -0.32885715210E+02 -0.10296189216E+03  0.25972885171E+03  0.30787769221E+03  0.12508787091E+03 0.  0.
        -24    2    1    2    0    0  0.20537867404E+02  0.73013971497E+02  0.76010292754E+03  0.76806242674E+03  0.80066140705E+02 0.  0.
        -11    1    3    3    0    0 -0.10572140383E+02  0.41428064594E+01  0.29020057006E-01  0.11354903778E+02  0.00000000000E+00 0.  1.
         12    1    3    3    0    0  0.22919988188E+02  0.25805114203E+02 -0.26350877845E+03  0.26575948920E+03  0.00000000000E+00 0. -1.
         13    1    5    5    0    0  0.36962269614E+02  0.17762062134E+02  0.49852513355E+03  0.50020896534E+03  0.00000000000E+00 0. -1.
        -14    1    5    5    0    0 -0.16424402210E+02  0.55251909363E+02  0.26157779399E+03  0.26785346140E+03  0.00000000000E+00 0.  1.
          5    1    4    4  501    0 -0.59359886767E+02 -0.77922195207E+01  0.59203334578E+02  0.84301969534E+02  0.41800000000E+01 0.  1.
         -5    1    4    4    0  501  0.26474171558E+02 -0.95169672639E+02  0.20052551713E+03  0.22357572268E+03  0.41800000000E+01 0.  1.
</event>
<event>
11    1  0.1003949E-008  0.1582657E+03  0.7561462E-02  0.1088720E+00
         22   -1    0    0    0    0  0.00000000000E+00  0.00000000000E+00  0.62061044443E+03  0.62061044443E+03  0.00000000000E+00 0.  1.
         22   -1    0    0    0    0 -0.00000000000E+00 -0.00000000000E+00 -0.99234072720E+02  0.99234072720E+02  0.00000000000E+00 0.  1.
        -24    2    1    2    0    0  0.41225215001E+02  0.14133912597E+02  0.51102526156E+01  0.88109819575E+02  0.76406411946E+02 0.  0.
         25    2    1    2    0    0 -0.11278563896E+03 -0.69596484188E+02  0.12138490992E+03  0.21896878444E+03  0.12509500884E+03 0.  0.
         24    2    1    2    0    0  0.71560423958E+02  0.55462571591E+02  0.39488120918E+03  0.41276591314E+03  0.79041372463E+02 0.  0.
        -11    1    5    5    0    0  0.80549116410E+02  0.38813294666E+02  0.37420601361E+03  0.38473987657E+03  0.00000000000E+00 0.  1.
         12    1    5    5    0    0 -0.89886924519E+01  0.16649276925E+02  0.20675195568E+02  0.28026036571E+02  0.00000000000E+00 0. -1.
         11    1    3    3    0    0 -0.12949071880E+01  0.38546321910E+02  0.62255078018E+01  0.39067283817E+02  0.00000000000E+00 0. -1.
        -12    1    3    3    0    0  0.42520122189E+02 -0.24412409313E+02 -0.11152551862E+01  0.49042535758E+02  0.00000000000E+00 0.  1.
          5    1    4    4  501    0 -0.12588848998E+03 -0.85425199391E+02  0.12590033948E+03  0.19751897246E+03  0.41800000000E+01 0.  1.
         -5    1    4    4    0  501  0.13102851026E+02  0.15828715203E+02 -0.45154295561E+01  0.21449811982E+02  0.41800000000E+01 0.  1.
</event>
<event>
11    1  0.1003949E-008  0.1428754E+03  0.7561462E-02  0.1104389E+00
         22   -1    0    0    0    0  0.00000000000E+00  0.00000000000E+00  0.68630412365E+03  0.68630412365E+03  0.00000000000E+00 0.  1.
         22   -1    0    0    0    0 -0.00000000000E+00 -0.00000000000E+00 -0.67568522189E+03  0.67568522189E+03  0.00000000000E+00 0. -1.
         24    2    1    2    0    0 -0.15497052514E+02  0.27489205281E+02 -0.56584832043E+03  0.57252994119E+03  0.81304346643E+02 0.  0.
         25    2    1    2    0    0 -0.40148109209E+01 -0.92739111940E+02 -0.42373932368E+02  0.16142080650E+03  0.12507783591E+03 0.  0.
        -24    2    1    2    0    0  0.19511863435E+02  0.65249906659E+02  0.61884115456E+03  0.62803859785E+03  0.82642862236E+02 0.  0.
        -13    1    3    3    0    0  0.13548724347E+02 -0.18599853981E+02 -0.69715179050E+02  0.73414771603E+02  0.00000000000E+00 0.  1.
         14    1    3    3    0    0 -0.29045776862E+02  0.46089059262E+02 -0.49613314138E+03  0.49911516959E+03  0.00000000000E+00 0. -1.
         11    1    5    5    0    0 -0.23099015507E+02  0.26355384770E+02  0.99275088430E+02  0.10527921925E+03  0.00000000000E+00 0. -1.
        -12    1    5    5    0    0  0.42610878942E+02  0.38894521890E+02  0.51956606613E+03  0.52275937860E+03  0.00000000000E+00 0.  1.
          5    1    4    4  501    0  0.41891279192E+02 -0.43047886152E+02  0.25600430184E+02  0.65428237025E+02  0.41800000000E+01 0. -1.
         -5    1    4    4    0  501 -0.45906090113E+02 -0.49691225788E+02 -0.67974362552E+02  0.95992569474E+02  0.41800000000E+01 0. -1.
</event>
<event>
11    1  0.1003949E-008  0.1971999E+03  0.7561462E-02  0.1056522E+00
         22   -1    0    0    0    0  0.00000000000E+00  0.00000000000E+00  0.32034140309E+03  0.32034140309E+03  0.00000000000E+00 0. -1.
         22   -1    0    0    0    0 -0.00000000000E+00 -0.00000000000E+00 -0.15537481432E+04  0.15537481432E+04  0.00000000000E+00 0.  1.
        -24    2    1    2    0    0  0.43503852354E+02  0.34387472127E+01 -0.12760977808E+04  0.12787197793E+04  0.69241009912E+02 0.  0.
         25    2    1    2    0    0 -0.24669795425E+02  0.14864132313E+03 -0.21145823917E+03  0.28820503690E+03  0.12507883368E+03 0.  0.
         24    2    1    2    0    0 -0.18834056929E+02 -0.15208007034E+03  0.25414927994E+03  0.30716473009E+03  0.79216446656E+02 0.  0.
        -13    1    5    5    0    0 -0.25250377062E+02 -0.83717788064E+02  0.74622934334E+02  0.11495578241E+03  0.00000000000E+00 0.  1.
         14    1    5    5    0    0  0.64163201333E+01 -0.68362282278E+02  0.17952634561E+03  0.19220894769E+03  0.00000000000E+00 0. -1.
         13    1    3    3    0    0 -0.13857161098E+02  0.17929821150E+02 -0.34026595605E+03  0.34101967722E+03  0.00000000000E+00 0. -1.
        -14    1    3    3    0    0  0.57361013451E+02 -0.14491073938E+02 -0.93583182479E+03  0.93770010205E+03  0.00000000000E+00 0.  1.
          5    1    4    4  501    0 -0.13645494900E+02  0.10989005663E+03 -0.49691688476E+02  0.12144447448E+03  0.41800000000E+01 0. -1.
         -5    1    4    4    0  501 -0.11024300525E+02  0.38751266499E+02 -0.16176655069E+03  0.16676056243E+03  0.41800000000E+01 0. -1.
</event>
<event>
11    1  0.1003949E-008  0.1911689E+03  0.7561462E-02  0.1060950E+00
         22   -1    0    0    0    0  0.00000000000E+00  0.00000000000E+00  0.51817650086E+03  0.51817650086E+03  0.00000000000E+00 0.  1.
         22   -1    0    0    0    0 -0.00000000000E+00 -0.00000000000E+00 -0.54187506909E+03  0.54187506909E+03  0.00000000000E+00 0. -1.
         24    2    1    2    0    0  0.26591425234E+02  0.14052197882E+03 -0.36988873814E+03  0.40460043879E+03  0.80189189023E+02 0.  0.
         25    2    1    2    0    0  0.31414826527E+02 -0.15679307025E+03 -0.79480960838E+02  0.21802851115E+03  0.12509296676E+03 0.  0.
        -24    2    1    2    0    0 -0.58006251762E+02  0.16271091437E+02  0.42567113074E+03  0.43742262001E+03  0.80704171457E+02 0.  0.
        -11    1    3    3    0    0 -0.24594487755E+02  0.33612321200E+02 -0.62067800618E+02  0.74746831624E+02  0.00000000000E+00 0.  1.
         12    1    3    3    0    0  0.51185912989E+02  0.10690965762E+03 -0.30782093752E+03  0.32985360716E+03  0.00000000000E+00 0. -1.
         11    1    5    5    0    0 -0.18334927508E+02  0.22949237539E+02  0.39830802147E+02  0.49490704885E+02  0.00000000000E+00 0. -1.
        -12    1    5    5    0    0 -0.39671324253E+02 -0.66781461018E+01  0.38584032859E+03  0.38793191513E+03  0.00000000000E+00 0.  1.
          5    1    4    4  501    0  0.21644954508E+02 -0.16389963885E+03 -0.31468026395E+02  0.16834281914E+03  0.41800000000E+01 0. -1.
         -5    1    4    4    0  501  0.97698720195E+01  0.71065685973E+01 -0.48012934443E+02  0.49685692008E+02  0.41800000000E+01 0. -1.
</event>
<event>
11    1  0.1003949E-008  0.1522842E+03  0.7561462E-02  0.1094567E+00
         22   -1    0    0    0    0  0.00000000000E+00  0.00000000000E+00  0.12631374345E+03  0.12631374345E+03  0.00000000000E+00 0.  1.
         22   -1    0    0    0    0 -0.00000000000E+00 -0.00000000000E+00 -0.37999907962E+04  0.37999907962E+04  0.00000000000E+00 0. -1.
         24    2    1    2    0    0  0.18914807120E+02  0.84418192110E+02 -0.35768174066E+04  0.35787717346E+04  0.80623614198E+02 0.  0.
         25    2    1    2    0    0  0.72334975983E+01 -0.10173392837E+03 -0.17163963008E+03  0.23560635270E+03  0.12509226655E+03 0.  0.
        -24    2    1    2    0    0 -0.26148304718E+02  0.17315736257E+02  0.74779983833E+02  0.11192645244E+03  0.77148663061E+02 0.  0.
        -13    1    3    3    0    0 -0.70533914963E+01  0.43148867010E+02 -0.61465227374E+03  0.61620531698E+03  0.00000000000E+00 0.  1.
         14    1    3    3    0    0  0.25968198616E+02  0.41269325100E+02 -0.29621651328E+04  0.29625664176E+04  0.00000000000E+00 0. -1.
         13    1    5    5    0    0 -0.61789315365E+01 -0.25095742362E+02  0.55530686186E+02  0.61250572144E+02  0.00000000000E+00 0. -1.
        -14    1    5    5    0    0 -0.19969373181E+02  0.42411478619E+02  0.19249297646E+02  0.50675880296E+02  0.00000000000E+00 0.  1.
          5    1    4    4  501    0 -0.24928524171E+02 -0.12080508893E+03 -0.12472087675E+03  0.17546529664E+03  0.41800000000E+01 0.  1.
         -5    1    4    4    0  501  0.32162021769E+02  0.19071160564E+02 -0.46918753328E+02  0.60141056055E+02  0.41800000000E+01 0.  1.
</event>
<event>
11    1  0.1249416E-008  0.1910751E+03  0.7561462E-02  0.1061021E+00
         22   -1    0    0    0    0  0.00000000000E+00  0.00000000000E+00  0.30750011572E+03  0.30750011572E+03  0.00000000000E+00 0.  1.
         22   -1    0    0    0    0 -0.00000000000E+00 -0.00000000000E+00 -0.15898012156E+04  0.15898012156E+04  0.00000000000E+00 0. -1.
        -24    2    1    2    0    0 -0.11273180709E+03 -0.28524025954E+01 -0.10456322881E+04  0.10549503389E+04  0.82805428982E+02 0.  0.
         25    2    1    2    0    0  0.20787518205E+02  0.11814469192E+03 -0.50039814844E+03  0.52956447134E+03  0.12509969306E+03 0.  0.
         24    2    1    2    0    0  0.91944288886E+02 -0.11529228932E+03  0.26372933673E+03  0.31278652103E+03  0.80846647731E+02 0.  0.
        -13    1    5    5    0    0  0.96746661638E+02 -0.10975135619E+03  0.19559853021E+03  0.24426228064E+03  0.00000000000E+00 0.  1.
         14    1    5    5    0    0 -0.48023727516E+01 -0.55409331358E+01  0.68130806514E+02  0.68524240384E+02  0.00000000000E+00 0. -1.
         11    1    3    3    0    0 -0.35613545940E+02  0.18827134752E+02 -0.65233870115E+03  0.65358133899E+03  0.00000000000E+00 0. -1.
        -12    1    3    3    0    0 -0.77118261151E+02 -0.21679537347E+02 -0.39329358698E+03  0.40136899993E+03  0.00000000000E+00 0.  1.
          5    1    4    4  501    0 -0.13320923704E+02  0.87118830364E+02 -0.45917235980E+03  0.46757231100E+03  0.41800000000E+01 0. -1.
         -5    1    4    4    0  501  0.34108441909E+02  0.31025861554E+02 -0.41225788646E+02  0.61992160344E+02  0.41800000000E+01 0. -1.
</event>
<event>
11    1  0.1003949E-008  0.1572416E+03  0.7561462E-02  0.1089701E+00
         22   -1    0    0    0    0  0.00000000000E+00  0.00000000000E+00  0.13870805497E+03  0.13870805497E+03  0.00000000000E+00 0. -1.
         22   -1    0    0    0    0 -0.00000000000E+00 -0.00000000000E+00 -0.28556240959E+04  0.28556240959E+04  0.00000000000E+00 0.  1.
        -24    2    1    2    0    0  0.25227770265E+02 -0.39826485896E+02 -0.25896128624E+04  0.25913452143E+04  0.82174529829E+02 0.  0.
         25    2    1    2    0    0  0.33823590097E+02 -0.44509583529E+02 -0.20075281222E+03  0.24305244424E+03  0.12509061022E+03 0.  0.
         24    2    1    2    0    0 -0.59051360362E+02  0.84336069425E+02  0.73449633652E+02  0.15993449233E+03  0.97900752731E+02 0.  0.
        -11    1    5    5    0    0  0.26927364962E+02  0.26558577532E+02  0.12971628940E+02  0.39983798990E+02  0.00000000000E+00 0.  1.
         12    1    5    5    0    0 -0.85978725324E+02  0.57777491893E+02  0.60478004713E+02  0.11995069334E+03  0.00000000000E+00 0. -1.
         13    1    3    3    0    0  0.27306714062E+02  0.69108281288E+01 -0.31649436828E+03  0.31774534038E+03  0.00000000000E+00 0. -1.
        -14    1    3    3    0    0 -0.20789437972E+01 -0.46737314025E+02 -0.22731184941E+04  0.22735998740E+04  0.00000000000E+00 0.  1.
          5    1    4    4  501    0  0.65632432635E+02 -0.54996426831E+02 -0.78552340779E+02  0.11627624787E+03  0.41800000000E+01 0. -1.
         -5    1    4    4    0  501 -0.31808842538E+02  0.10486843302E+02 -0.12220047144E+03  0.12677619637E+03  0.41800000000E+01 0. -1.
</event>
<event>
11    1  0.1003949E-008  0.1299808E+03  0.7561462E-02  0.1119293E+00
         22   -1    0    0    0    0  0.00000000000E+00  0.00000000000E+00  0.72744683076E+02  0.72744683076E+02  0.00000000000E+00 0.  1.
         22   -1    0    0    0    0 -0.00000000000E+00 -0.00000000000E+00 -0.13128949882E+04  0.13128949882E+04  0.00000000000E+00 0. -1.
        -24    2    1    2    0    0  0.84202289931E+01  0.18643227986E+01 -0.90744677780E+03  0.91109116140E+03  0.80951058570E+02 0.  0.
         25    2    1    2    0    0 -0.18107033802E+02  0.32054314013E+02 -0.35912160974E+03  0.38206134814E+03  0.12508876625E+03 0.  0.
         24    2    1    2    0    0  0.96868048092E+01 -0.33918636811E+02  0.26418082446E+02  0.92487161704E+02  0.81312064846E+02 0.  0.
        -11    1    5    5    0    0  0.35394163910E+02 -0.53679205101E+00  0.34675578272E+02  0.49552302803E+02  0.00000000000E+00 0.  1.
         12    1    5    5    0    0 -0.25707359101E+02 -0.33381844760E+02 -0.82574958261E+01  0.42934858901E+02  0.00000000000E+00 0. -1.
         13    1    3    3    0    0  0.43740598629E+02 -0.70302998182E+01 -0.43861172263E+03  0.44084340566E+03  0.00000000000E+00 0. -1.
        -14    1    3    3    0    0 -0.35320369636E+02  0.88946226168E+01 -0.46883505517E+03  0.47024775574E+03  0.00000000000E+00 0.  1.
          5    1    4    4  501    0 -0.23724542570E+02  0.73383421158E+02 -0.14931646593E+03  0.16810966605E+03  0.41800000000E+01 0.  1.
         -5    1    4    4    0  501  0.56175087679E+01 -0.41329107145E+02 -0.20980514381E+03  0.21395168210E+03  0.41800000000E+01 0.  1.
</event>
<event>
11    1  0.1003949E-008  0.2474462E+03  0.7561462E-02  0.1025269E+00
         22   -1    0    0    0    0  0.00000000000E+00  0.00000000000E+00  0.35996179983E+03  0.35996179983E+03  0.00000000000E+00 0.  1.
         22   -1    0    0    0    0 -0.00000000000E+00 -0.00000000000E+00 -0.11562283569E+04  0.11562283569E+04  0.00000000000E+00 0. -1.
         24    2    1    2    0    0  0.17700322510E+03 -0.11822549226E+03 -0.10141765985E+04  0.10394434235E+04  0.81123665119E+02 0.  0.
         25    2    1    2    0    0 -0.16554632753E+03  0.14857412957E+03  0.14366238074E+02  0.25560461799E+03  0.12508986131E+03 0.  0.
        -24    2    1    2    0    0 -0.11456897565E+02 -0.30348637318E+02  0.20354380335E+03  0.22114211523E+03  0.80133981268E+02 0.  0.
        -13    1    3    3    0    0  0.24617599382E+02 -0.11078942712E+02 -0.44600701179E+02  0.52134362148E+02  0.00000000000E+00 0.  1.
         14    1    3    3    0    0  0.15238562571E+03 -0.10714654955E+03 -0.96957589729E+03  0.98730906134E+03  0.00000000000E+00 0. -1.
         11    1    5    5    0    0 -0.41169677558E+02  0.28126835615E+01  0.11158773669E+03  0.11897342778E+03  0.00000000000E+00 0. -1.
        -12    1    5    5    0    0  0.29712779992E+02 -0.33161320879E+02  0.91956066667E+02  0.10216868745E+03  0.00000000000E+00 0.  1.
          5    1    4    4  501    0  0.14368946670E+02  0.55028486636E+01 -0.17302453279E+02  0.23528605171E+02  0.41800000000E+01 0. -1.
         -5    1    4    4    0  501 -0.17991527420E+03  0.14307128091E+03  0.31668691353E+02  0.23207601282E+03  0.41800000000E+01 0. -1.
</event>
<event>
11    1  0.1003949E-008  0.1570140E+03  0.7561462E-02  0.1089920E+00
         22   -1    0    0    0    0  0.00000000000E+00  0.00000000000E+00  0.88676570143E+03  0.88676570143E+03  0.00000000000E+00 0.  1.
         22   -1    0    0    0    0 -0.00000000000E+00 -0.00000000000E+00 -0.29312376078E+03  0.29312376078E+03  0.00000000000E+00 0.  1.
         24    2    1    2    0    0 -0.81432860342E+01 -0.36723127300E+02 -0.23672849621E+03  0.25257739173E+03  0.79624473071E+02 0.  0.
         25    2    1    2    0    0  0.89105273022E+02 -0.15323016393E+02  0.94869985261E+02  0.18116968433E+03  0.12509035096E+03 0.  0.
        -24    2    1    2    0    0 -0.80961986987E+02  0.52046143693E+02  0.73550045160E+03  0.74614238615E+03  0.80646771173E+02 0.  0.
        -13    1    3    3    0    0  0.88337669587E+00 -0.28444438832E+02 -0.23850876077E+03  0.24020053168E+03  0.00000000000E+00 0.  1.
         14    1    3    3    0    0 -0.90266627301E+01 -0.82786884678E+01  0.17802645658E+01  0.12376860051E+02  0.00000000000E+00 0. -1.
         11    1    5    5    0    0 -0.55106140584E+02 -0.11939504351E+02  0.35023582728E+03  0.35474550484E+03  0.00000000000E+00 0. -1.
        -12    1    5    5    0    0 -0.25855846403E+02  0.63985648044E+02  0.38526462432E+03  0.39139688131E+03  0.00000000000E+00 0.  1.
          5    1    4    4  501    0  0.72684497867E+02  0.28691570231E+02  0.34848211476E+01  0.78331722890E+02  0.41800000000E+01 0.  1.
         -5    1    4    4    0  501  0.16420775154E+02 -0.44014586624E+02  0.91385164113E+02  0.10283796144E+03  0.41800000000E+01 0.  1.
</event>
<event>
11    1  0.1003949E-008  0.2240470E+03  0.7561462E-02  0.1038712E+00
         22   -1    0    0    0    0  0.00000000000E+00  0.00000000000E+00  0.14211508782E+04  0.14211508782E+04  0.00000000000E+00 0.  1.
         22   -1    0    0    0    0 -0.00000000000E+00 -0.00000000000E+00 -0.32196854651E+03  0.32196854651E+03  0.00000000000E+00 0. -1.
         24    2    1    2    0    0  0.18025272894E+03  0.42730190791E+02 -0.25203463428E+03  0.32291620641E+03  0.80227825527E+02 0.  0.
         25    2    1    2    0    0 -0.17173186903E+03 -0.11295254343E+03  0.42981350512E+03  0.49258032630E+03  0.12508243987E+03 0.  0.
        -24    2    1    2    0    0 -0.85208599091E+01  0.70222352637E+02  0.92140346083E+03  0.92762289200E+03  0.80598438352E+02 0.  0.
        -13    1    3    3    0    0  0.12415818919E+03  0.94823292025E+01 -0.10808633159E+03  0.16488731178E+03  0.00000000000E+00 0.  1.
         14    1    3    3    0    0  0.56094539753E+02  0.33247861589E+02 -0.14394830269E+03  0.15802889463E+03  0.00000000000E+00 0. -1.
         13    1    5    5    0    0 -0.10518150924E+02 -0.16477734921E+02  0.12629896405E+03  0.12780287777E+03  0.00000000000E+00 0. -1.
        -14    1    5    5    0    0  0.19972910150E+01  0.86700087558E+02  0.79510449678E+03  0.79982001422E+03  0.00000000000E+00 0.  1.
          5    1    4    4  501    0 -0.13165741459E+03 -0.13916322672E+03  0.32526228072E+03  0.37750907558E+03  0.41800000000E+01 0. -1.
         -5    1    4    4    0  501 -0.40074454438E+02  0.26210683296E+02  0.10455122440E+03  0.11507125071E+03  0.41800000000E+01 0. -1.
</event>
<event>
11    1  0.1003949E-008  0.1448337E+03  0.7561462E-02  0.1102278E+00
         22   -1    0    0    0    0  0.00000000000E+00  0.00000000000E+00  0.82147891372E+03  0.82147891372E+03  0.00000000000E+00 0.  1.
         22   -1    0    0    0    0 -0.00000000000E+00 -0.00000000000E+00 -0.25302076483E+04  0.25302076483E+04  0.00000000000E+00 0. -1.
        -24    2    1    2    0    0 -0.55731100781E+02  0.26418097235E+02 -0.24995496283E+04  0.25015999553E+04  0.80312644599E+02 0.  0.
         25    2    1    2    0    0  0.10316160214E+03 -0.66936219267E+02  0.29125043600E+03  0.33999493276E+03  0.12508782605E+03 0.  0.
         24    2    1    2    0    0 -0.47430501362E+02  0.40518122032E+02  0.49957045770E+03  0.51009167391E+03  0.82045736733E+02 0.  0.
        -13    1    5    5    0    0 -0.25732555242E+02 -0.36101523780E+01  0.37885034824E+03  0.37974041655E+03  0.00000000000E+00 0.  1.
         14    1    5    5    0    0 -0.21697946120E+02  0.44128274410E+02  0.12072010946E+03  0.13035125737E+03  0.00000000000E+00 0. -1.
         11    1    3    3    0    0 -0.71328722797E+02  0.37390599222E+02 -0.18168754426E+04  0.18186594562E+04  0.00000000000E+00 0. -1.
        -12    1    3    3    0    0  0.15597622016E+02 -0.10972501987E+02 -0.68267418569E+03  0.68294049918E+03  0.00000000000E+00 0.  1.
          5    1    4    4  501    0 -0.23265323158E+01 -0.46703898540E+02  0.25719505692E+02  0.53531600616E+02  0.41800000000E+01 0.  1.
         -5    1    4    4    0  501  0.10548813446E+03 -0.20232320727E+02  0.26553093031E+03  0.28646333215E+03  0.41800000000E+01 0.  1.
</event>
<event>
11    1  0.1003949E-008  0.1529644E+03  0.7561462E-02  0.1093888E+00
         22   -1    0    0    0    0  0.00000000000E+00  0.00000000000E+00  0.76059046849E+03  0.76059046849E+03  0.00000000000E+00 0.  1.
         22   -1    0    0    0    0 -0.00000000000E+00 -0.00000000000E+00 -0.14309758829E+04  0.14309758829E+04  0.00000000000E+00 0. -1.
        -24    2    1    2    0    0  0.64227093506E+02 -0.59332652399E+02 -0.13011805847E+04  0.13066368489E+04  0.81138508870E+02 0.  0.
         25    2    1    2    0    0 -0.44656441819E+02  0.98317996492E+02 -0.69126775770E+02  0.17913039506E+03  0.12509420880E+03 0.  0.
         24    2    1    2    0    0 -0.19570651687E+02 -0.38985344093E+02  0.69992194610E+03  0.70579910743E+03  0.79741971102E+02 0.  0.
        -11    1    5    5    0    0 -0.39333181292E+02 -0.36533966391E+02  0.64750956723E+03  0.64973107476E+03  0.00000000000E+00 0.  1.
         12    1    5    5    0    0  0.19762529605E+02 -0.24513777020E+01  0.52412378874E+02  0.56068032676E+02  0.00000000000E+00 0. -1.
         13    1    3    3    0    0  0.64182832306E+02 -0.64836038863E+02 -0.12955679184E+04  0.12987761082E+04  0.00000000000E+00 0. -1.
        -14    1    3    3    0    0  0.44261200252E-01  0.55033864633E+01 -0.56126662967E+01  0.78607407142E+01  0.00000000000E+00 0.  1.
          5    1    4    4  501    0  0.29407491160E+02  0.47384984236E+01  0.14453670734E+02  0.33371168714E+02  0.41800000000E+01 0. -1.
         -5    1    4    4    0  501 -0.74063932979E+02  0.93579498069E+02 -0.83580446504E+02  0.14575922635E+03  0.41800000000E+01 0. -1.
</event>
<event>
11    1  0.1003949E-008  0.1842392E+03  0.7561462E-02  0.1066264E+00
         22   -1    0    0    0    0  0.00000000000E+00  0.00000000000E+00  0.10582593047E+04  0.10582593047E+04  0.00000000000E+00 0.  1.
         22   -1    0    0    0    0 -0.00000000000E+00 -0.00000000000E+00 -0.18209938797E+03  0.18209938797E+03  0.00000000000E+00 0.  1.
         24    2    1    2    0    0 -0.26205482927E+02 -0.27089006262E+02 -0.10118148867E+03  0.13476533351E+03  0.80644031836E+02 0.  0.
         25    2    1    2    0    0 -0.96885824910E+02  0.86106252889E+02  0.84779078376E+02  0.19908601549E+03  0.12508636847E+03 0.  0.
        -24    2    1    2    0    0  0.12309130784E+03 -0.59017246627E+02  0.89256232700E+03  0.90650734365E+03  0.80333996845E+02 0.  0.
        -11    1    3    3    0    0 -0.46982983657E+02 -0.42268350973E+02 -0.74565125204E+02  0.97744422572E+02  0.00000000000E+00 0.  1.
         12    1    3    3    0    0  0.20777500730E+02  0.15179344711E+02 -0.26616363470E+02  0.37020910940E+02  0.00000000000E+00 0. -1.
         13    1    5    5    0    0  0.72777393564E+01 -0.99467147357E+01  0.12689737988E+02  0.17689886217E+02  0.00000000000E+00 0. -1.
        -14    1    5    5    0    0  0.11581356848E+03 -0.49070531891E+02  0.87987258901E+03  0.88881745743E+03  0.00000000000E+00 0.  1.
          5    1    4    4  501    0 -0.54455297070E+02  0.29486219712E+02 -0.26227980876E+02  0.67380975896E+02  0.41800000000E+01 0.  1.
         -5    1    4    4    0  501 -0.42430527840E+02  0.56620033177E+02  0.11100705925E+03  0.13170503959E+03  0.41800000000E+01 0.  1.
</event>
<event>
11    1  0.1003949E-008  0.1506756E+03  0.7561462E-02  0.1096190E+00
         22   -1    0    0    0    0  0.00000000000E+00  0.00000000000E+00  0.16107945493E+04  0.16107945493E+04  0.00000000000E+00 0. -1.
         22   -1    0    0    0    0 -0.00000000000E+00 -0.00000000000E+00 -0.16546413182E+04  0.16546413182E+04  0.00000000000E+00 0. -1.
         24    2    1    2    0    0  0.27338542471E+02 -0.18944147291E+02 -0.15791185555E+04  0.15815942001E+04  0.81966607295E+02 0.  0.
         25    2    1    2    0    0 -0.10128482886E+03  0.56637805663E+02  0.28956772719E+02  0.17307287901E+03  0.12509703904E+03 0.  0.
        -24    2    1    2    0    0  0.73946286389E+02 -0.37693658371E+02  0.15063150139E+04  0.15107687884E+04  0.80923085857E+02 0.  0.
        -13    1    3    3    0    0  0.41726001537E+01 -0.39700086612E+02 -0.38367168384E+03  0.38574274906E+03  0.00000000000E+00 0.  1.
         14    1    3    3    0    0  0.23165942317E+02  0.20755939320E+02 -0.11954468717E+04  0.11958514510E+04  0.00000000000E+00 0. -1.
         13    1    5    5    0    0  0.91616430203E+02 -0.29528904194E+02  0.12842190318E+04  0.12878214349E+04  0.00000000000E+00 0. -1.
        -14    1    5    5    0    0 -0.17670143814E+02 -0.81647541773E+01  0.22209598203E+03  0.22294735348E+03  0.00000000000E+00 0.  1.
          5    1    4    4  501    0 -0.98577238985E+02 -0.69641668748E+01 -0.81894435134E+01  0.99249740812E+02  0.41800000000E+01 0. -1.
         -5    1    4    4    0  501 -0.27075898751E+01  0.63601972537E+02  0.37146216232E+02  0.73823138202E+02  0.41800000000E+01 0. -1.
</event>
<event>
11    1  0.1025549E-008  0.1837427E+03  0.7561462E-02  0.1066655E+00
         22   -1    0    0    0    0  0.00000000000E+00  0.00000000000E+00  0.10291110124E+04  0.10291110124E+04  0.00000000000E+00 0.  1.
         22   -1    0    0    0    0 -0.00000000000E+00 -0.00000000000E+00 -0.21822839063E+04  0.21822839063E+04  0.00000000000E+00 0. -1.
         24    2    1    2    0    0  0.61406048965E+02 -0.13448860412E+03 -0.14483351207E+04  0.14580703163E+04  0.80228037208E+02 0.  0.
         25    2    1    2    0    0  0.38216920236E+02  0.12289480984E+03 -0.71394935473E+03  0.73616251379E+03  0.12509155968E+03 0.  0.
        -24    2    1    2    0    0 -0.99622969201E+02  0.11593794283E+02  0.10091115815E+04  0.10171620886E+04  0.79078306869E+02 0.  0.
        -11    1    3    3    0    0  0.56478410772E+02 -0.67934440770E+02 -0.52992475389E+03  0.53723844232E+03  0.00000000000E+00 0.  1.
         12    1    3    3    0    0  0.49276381931E+01 -0.66554163351E+02 -0.91841036680E+03  0.92083187397E+03  0.00000000000E+00 0. -1.
         11    1    5    5    0    0 -0.29702629077E+02  0.87934385032E+01  0.67943596587E+03  0.68014175173E+03  0.00000000000E+00 0. -1.
        -12    1    5    5    0    0 -0.69920340125E+02  0.28003557796E+01  0.32967561562E+03  0.33702033691E+03  0.00000000000E+00 0.  1.
          5    1    4    4  501    0 -0.14343717466E+02  0.19318790842E+01 -0.63226656869E+01  0.16337774907E+02  0.41800000000E+01 0. -1.
         -5    1    4    4    0  501  0.52560637701E+02  0.12096293075E+03 -0.70762668905E+03  0.71982473888E+03  0.41800000000E+01 0. -1.
</event>
<event>
11    1  0.1003949E-008  0.1629358E+03  0.7561462E-02  0.1084348E+00
         22   -1    0    0    0    0  0.00000000000E+00  0.00000000000E+00  0.29516309294E+03  0.29516309294E+03  0.00000000000E+00 0.  1.
         22   -1    0    0    0    0 -0.00000000000E+00 -0.00000000000E+00 -0.20718179906E+03  0.20718179906E+03  0.00000000000E+00 0. -1.
        -24    2    1    2    0    0 -0.94961838057E+02  0.36316348882E+02 -0.81740053619E+02  0.15245002397E+03  0.78885648619E+02 0.  0.
         25    2    1    2    0    0  0.99185651568E+02 -0.51516915212E+02  0.91450468249E+01  0.16799630766E+03  0.12508933399E+03 0.  0.
         24    2    1    2    0    0 -0.42238135113E+01  0.15200566330E+02  0.16057630068E+03  0.18189856037E+03  0.83984761161E+02 0.  0.
        -13    1    5    5    0    0 -0.28864699537E+02  0.28898482403E+02  0.14290090644E+03  0.14862355879E+03  0.00000000000E+00 0.  1.
         14    1    5    5    0    0  0.24640886025E+02 -0.13697916073E+02  0.17675394236E+02  0.33275001581E+02  0.00000000000E+00 0. -1.
         11    1    3    3    0    0 -0.19699745099E+02  0.30122219007E+02 -0.66199227077E+02  0.75350950229E+02  0.00000000000E+00 0. -1.
        -12    1    3    3    0    0 -0.75262092958E+02  0.61941298741E+01 -0.15540826543E+02  0.77099073736E+02  0.00000000000E+00 0.  1.
          5    1    4    4  501    0  0.10849253557E+03 -0.27552736789E+02  0.47470611522E+02  0.12165818894E+03  0.41800000000E+01 0.  1.
         -5    1    4    4    0  501 -0.93068840008E+01 -0.23964178423E+02 -0.38325564697E+02  0.46338118721E+02  0.41800000000E+01 0.  1.
</event>
<event>
11    1  0.1003949E-008  0.2146607E+03  0.7561462E-02  0.1044615E+00
         22   -1    0    0    0    0  0.00000000000E+00  0.00000000000E+00  0.48075275329E+03  0.48075275329E+03  0.00000000000E+00 0. -1.
         22   -1    0    0    0    0 -0.00000000000E+00 -0.00000000000E+00 -0.27074237462E+03  0.27074237462E+03  0.00000000000E+00 0. -1.
         24    2    1    2    0    0  0.45792895583E+02 -0.85509756253E+02 -0.13360426806E+03  0.18361018219E+03  0.80334867020E+02 0.  0.
         25    2    1    2    0    0  0.60942548961E+02  0.20809930034E+03  0.11659746717E+03  0.27615313412E+03  0.12508505529E+03 0.  0.
        -24    2    1    2    0    0 -0.10673544454E+03 -0.12258954409E+03  0.22701717957E+03  0.29173181160E+03  0.84557664565E+02 0.  0.
        -13    1    3    3    0    0  0.58871566173E+02 -0.56678273014E+02 -0.54023999266E+02  0.97963668940E+02  0.00000000000E+00 0.  1.
         14    1    3    3    0    0 -0.13078670590E+02 -0.28831483239E+02 -0.79580268797E+02  0.85646513250E+02  0.00000000000E+00 0. -1.
         11    1    5    5    0    0 -0.64773630154E+02 -0.12536194903E+03  0.17164892834E+03  0.22220395143E+03  0.00000000000E+00 0. -1.
        -12    1    5    5    0    0 -0.41961814389E+02  0.27724049437E+01  0.55368251226E+02  0.69527860170E+02  0.00000000000E+00 0.  1.
          5    1    4    4  501    0  0.66924698966E+02  0.36812503122E+02  0.18773961584E+02  0.78765536571E+02  0.41800000000E+01 0. -1.
         -5    1    4    4    0  501 -0.59821500053E+01  0.17128679722E+03  0.97823505590E+02  0.19738759755E+03  0.41800000000E+01 0. -1.
</event>
<event>
11    1  0.1003949E-008  0.1647913E+03  0.7561462E-02  0.1082656E+00
         22   -1    0    0    0    0  0.00000000000E+00  0.00000000000E+00  0.38079964245E+03  0.38079964245E+03  0.00000000000E+00 0.  1.
         22   -1    0    0    0    0 -0.00000000000E+00 -0.00000000000E+00 -0.26102510141E+03  0.26102510141E+03  0.00000000000E+00 0. -1.
         24    2    1    2    0    0 -0.72805915416E+02  0.47335506362E+02 -0.90746703434E+02  0.14858397961E+03  0.79378103598E+02 0.  0.
         25    2    1    2    0    0  0.16788136881E+03 -0.71848155583E+02 -0.28468072771E+02  0.22316894743E+03  0.12509051314E+03 0.  0.
        -24    2    1    2    0    0 -0.95075453395E+02  0.24512649221E+02  0.23898931725E+03  0.27007181681E+03  0.78630023970E+02 0.  0.
        -11    1    3    3    0    0  0.15530254115E+02 -0.30884445602E+01 -0.14418122537E+02  0.21415170795E+02  0.00000000000E+00 0.  1.
         12    1    3    3    0    0 -0.88336169531E+02  0.50423950922E+02 -0.76328580896E+02  0.12716880882E+03  0.00000000000E+00 0. -1.
         13    1    5    5    0    0  0.13736285532E+02  0.27494587590E+01  0.18215725209E+02  0.22979506274E+02  0.00000000000E+00 0. -1.
        -14    1    5    5    0    0 -0.10881173893E+03  0.21763190462E+02  0.22077359204E+03  0.24709231054E+03  0.00000000000E+00 0.  1.
          5    1    4    4  501    0  0.65301415967E+01 -0.52324223527E+02 -0.29536839843E+02  0.60583532621E+02  0.41800000000E+01 0. -1.
         -5    1    4    4    0  501  0.16135122721E+03 -0.19523932056E+02  0.10687670718E+01  0.16258541481E+03  0.41800000000E+01 0. -1.
</event>
<event>
11    1  0.1003949E-008  0.1568531E+03  0.7561462E-02  0.1090075E+00
         22   -1    0    0    0    0  0.00000000000E+00  0.00000000000E+00  0.19059374630E+04  0.19059374630E+04  0.00000000000E+00 0. -1.
         22   -1    0    0    0    0 -0.00000000000E+00 -0.00000000000E+00 -0.10016919208E+04  0.10016919208E+04  0.00000000000E+00 0. -1.
         24    2    1    2    0    0 -0.36339392566E+01  0.92397852814E+02 -0.90474890940E+03  0.91296483693E+03  0.79897657675E+02 0.  0.
         25    2    1    2    0    0 -0.24098293754E+02 -0.15234178310E+03  0.16654533713E+02  0.19928358392E+03  0.12509127343E+03 0.  0.
        -24    2    1    2    0    0  0.27732233011E+02  0.59943930289E+02  0.17923399180E+04  0.17953809629E+04  0.80920139915E+02 0.  0.
        -11    1    3    3    0    0 -0.30908774183E+02  0.44076539082E+02 -0.24290281510E+03  0.24879684725E+03  0.00000000000E+00 0.  1.
         12    1    3    3    0    0  0.27274834926E+02  0.48321313732E+02 -0.66184609430E+03  0.66416798968E+03  0.00000000000E+00 0. -1.
         13    1    5    5    0    0  0.51628901856E+02  0.26390495359E+02  0.13109971189E+04  0.13122787232E+04  0.00000000000E+00 0. -1.
        -14    1    5    5    0    0 -0.23896668845E+02  0.33553434930E+02  0.48134279907E+03  0.48310223969E+03  0.00000000000E+00 0.  1.
          5    1    4    4  501    0  0.61208776229E+01 -0.11810826131E+03 -0.41338117360E+02  0.12535285749E+03  0.41800000000E+01 0.  1.
         -5    1    4    4    0  501 -0.30219171377E+02 -0.34233521790E+02  0.57992651073E+02  0.73930726436E+02  0.41800000000E+01 0.  1.
</event>
<event>
11    1  0.1003949E-008  0.1420106E+03  0.7561462E-02  0.1105334E+00
         22   -1    0    0    0    0  0.00000000000E+00  0.00000000000E+00  0.71597069019E+03  0.71597069019E+03  0.00000000000E+00 0.  1.
         22   -1    0    0    0    0 -0.00000000000E+00 -0.00000000000E+00 -0.29346778857E+03  0.29346778857E+03  0.00000000000E+00 0.  1.
         24    2    1    2    0    0 -0.19762106796E+01  0.67708979639E+02 -0.25590228587E+03  0.27713969717E+03  0.82048890905E+02 0.  0.
         25    2    1    2    0    0  0.11840576758E+01 -0.57722062416E+02  0.17395407493E+03  0.22190230250E+03  0.12508946073E+03 0.  0.
        -24    2    1    2    0    0  0.79215300377E+00 -0.99869172230E+01  0.50445111256E+03  0.51039647911E+03  0.77027754112E+02 0.  0.
        -13    1    3    3    0    0 -0.33184783945E+02  0.26740952924E+02 -0.18289826203E+03  0.18779798376E+03  0.00000000000E+00 0.  1.
         14    1    3    3    0    0  0.31208573265E+02  0.40968026715E+02 -0.73004023838E+02  0.89341713408E+02  0.00000000000E+00 0. -1.
         11    1    5    5    0    0  0.35076076269E+02 -0.55751186460E+01  0.14496702304E+03  0.14925431600E+03  0.00000000000E+00 0. -1.
        -12    1    5    5    0    0 -0.34283923265E+02 -0.44117985770E+01  0.35948408951E+03  0.36114216311E+03  0.00000000000E+00 0.  1.
          5    1    4    4  501    0 -0.58353344174E+02 -0.14094855759E+02  0.53234077040E+02  0.80343743337E+02  0.41800000000E+01 0.  1.
         -5    1    4    4    0  501  0.59537401850E+02 -0.43627206657E+02  0.12071999789E+03  0.14155855916E+03  0.41800000000E+01 0.  1.
</event>
<event>
11    1  0.1003949E-008  0.1747418E+03  0.7561462E-02  0.1073977E+00
         22   -1    0    0    0    0  0.00000000000E+00  0.00000000000E+00  0.23162850071E+03  0.23162850071E+03  0.00000000000E+00 0.  1.
         22   -1    0    0    0    0 -0.00000000000E+00 -0.00000000000E+00 -0.59260957564E+03  0.59260957564E+03  0.00000000000E+00 0. -1.
        -24    2    1    2    0    0 -0.72035134522E+02  0.87839125607E+02 -0.41688910324E+03  0.44011020074E+03  0.83640252245E+02 0.  0.
         25    2    1    2    0    0  0.14154165887E+03 -0.13181324693E+03 -0.40866684175E+02  0.23393659245E+03  0.12508984830E+03 0.  0.
         24    2    1    2    0    0 -0.69506524349E+02  0.43974121321E+02  0.96774712493E+02  0.15019128317E+03  0.80169796619E+02 0.  0.
        -11    1    5    5    0    0 -0.83224550611E+02  0.17716271762E+02  0.74995078218E+02  0.11342157584E+03  0.00000000000E+00 0.  1.
         12    1    5    5    0    0  0.13718026262E+02  0.26257849559E+02  0.21779634275E+02  0.36769707330E+02  0.00000000000E+00 0. -1.
         11    1    3    3    0    0 -0.46761196069E+02  0.30335646506E+02 -0.31877989220E+03  0.32361625512E+03  0.00000000000E+00 0. -1.
        -12    1    3    3    0    0 -0.25273938453E+02  0.57503479102E+02 -0.98109211045E+02  0.11649394562E+03  0.00000000000E+00 0.  1.
          5    1    4    4  501    0  0.82318998057E+02 -0.14729228888E+03 -0.25664587330E+02  0.17072662138E+03  0.41800000000E+01 0. -1.
         -5    1    4    4    0  501  0.59222660814E+02  0.15479041954E+02 -0.15202096845E+02  0.63209971066E+02  0.41800000000E+01 0. -1.
</event>
<event>
11    1  0.1003949E-008  0.1353678E+03  0.7561462E-02  0.1112844E+00
         22   -1    0    0    0    0  0.00000000000E+00  0.00000000000E+00  0.90379044783E+03  0.90379044783E+03  0.00000000000E+00 0.  1.
         22   -1    0    0    0    0 -0.00000000000E+00 -0.00000000000E+00 -0.29369223460E+03  0.29369223460E+03  0.00000000000E+00 0. -1.
         24    2    1    2    0    0 -0.22007402859E+02  0.54712737026E+02 -0.22454463701E+03  0.24556269739E+03  0.80018341449E+02 0.  0.
         25    2    1    2    0    0  0.70132880061E+02 -0.64186811936E+02  0.60259193683E+02  0.16827846375E+03  0.12509157944E+03 0.  0.
        -24    2    1    2    0    0 -0.48125477202E+02  0.94740749101E+01  0.77438365656E+03  0.78364152128E+03  0.10962739933E+03 0.  0.
        -11    1    3    3    0    0 -0.23334411710E+02  0.48674483526E+01 -0.10961433384E+02  0.26236231535E+02  0.00000000000E+00 0.  1.
         12    1    3    3    0    0  0.13270088510E+01  0.49845288673E+02 -0.21358320363E+03  0.21932646586E+03  0.00000000000E+00 0. -1.
         11    1    5    5    0    0 -0.79410280101E+02 -0.12333749185E+02  0.46180129709E+03  0.46874145533E+03  0.00000000000E+00 0. -1.
        -12    1    5    5    0    0  0.31284802899E+02  0.21807824096E+02  0.31258235947E+03  0.31490006595E+03  0.00000000000E+00 0.  1.
          5    1    4    4  501    0  0.66331621063E+02 -0.98110914177E+02  0.62193942566E+02  0.13383271022E+03  0.41800000000E+01 0. -1.
         -5    1    4    4    0  501  0.38012589984E+01  0.33924102241E+02 -0.19347488829E+01  0.34445753527E+02  0.41800000000E+01 0. -1.
</event>
<event>
11    1  0.1003949E-008  0.1680893E+03  0.7561462E-02  0.1079707E+00
         22   -1    0    0    0    0  0.00000000000E+00  0.00000000000E+00  0.25134990124E+03  0.25134990124E+03  0.00000000000E+00 0.  1.
         22   -1    0    0    0    0 -0.00000000000E+00 -0.00000000000E+00 -0.80909299603E+03  0.80909299603E+03  0.00000000000E+00 0. -1.
         24    2    1    2    0    0 -0.10571454415E+03  0.18204497993E+02 -0.61018264601E+03  0.62414242743E+03  0.75656722314E+02 0.  0.
         25    2    1    2    0    0  0.16697907058E+03  0.42464137633E+02 -0.10632336590E+03  0.23798872768E+03  0.12509501737E+03 0.  0.
        -24    2    1    2    0    0 -0.61264526431E+02 -0.60668635626E+02  0.15876291712E+03  0.19831174216E+03  0.81779323046E+02 0.  0.
        -13    1    3    3    0    0 -0.60138672257E+01 -0.22278569016E+02 -0.13200206327E+03  0.13400390272E+03  0.00000000000E+00 0.  1.
         14    1    3    3    0    0 -0.99700676927E+02  0.40483067009E+02 -0.47818058274E+03  0.49013852471E+03  0.00000000000E+00 0. -1.
         11    1    5    5    0    0 -0.59803068970E+02 -0.78475175211E+02  0.11805892165E+03  0.15385925115E+03  0.00000000000E+00 0. -1.
        -12    1    5    5    0    0 -0.14614574614E+01  0.17806539585E+02  0.40703995463E+02  0.44452491005E+02  0.00000000000E+00 0.  1.
          5    1    4    4  501    0  0.13473777862E+03  0.58978394486E+01 -0.16808930562E+02  0.13597450513E+03  0.41800000000E+01 0.  1.
         -5    1    4    4    0  501  0.32241291962E+02  0.36566298185E+02 -0.89514435333E+02  0.10201422255E+03  0.41800000000E+01 0.  1.
</event>
<event>
11    1  0.1003949E-008  0.1655312E+03  0.7561462E-02  0.1081987E+00
         22   -1    0    0    0    0  0.00000000000E+00  0.00000000000E+00  0.18307627315E+04  0.18307627315E+04  0.00000000000E+00 0. -1.
         22   -1    0    0    0    0 -0.00000000000E+00 -0.00000000000E+00 -0.65836309270E+02  0.65836309270E+02  0.00000000000E+00 0.  1.
         24    2    1    2    0    0 -0.10163837400E+03  0.29017740055E+02  0.34362896148E+02  0.13704209354E+03  0.80170683317E+02 0.  0.
         25    2    1    2    0    0  0.14393855001E+03  0.24150894449E+02  0.78178121400E+03  0.80506540911E+03  0.12508746744E+03 0.  0.
        -24    2    1    2    0    0 -0.42300176011E+02 -0.53168634504E+02  0.94878231205E+03  0.95449153809E+03  0.79057017568E+02 0.  0.
        -11    1    3    3    0    0 -0.11531413602E+03  0.29012361425E+02  0.29349571753E+02  0.12247638321E+03  0.00000000000E+00 0.  1.
         12    1    3    3    0    0  0.13675762026E+02  0.53786307188E-02  0.50133243946E+01  0.14565710330E+02  0.00000000000E+00 0. -1.
         13    1    5    5    0    0 -0.34475786916E+02 -0.32684592584E+02  0.89700964281E+03  0.89826675424E+03  0.00000000000E+00 0. -1.
        -14    1    5    5    0    0 -0.78243890951E+01 -0.20484041920E+02  0.51772669241E+02  0.56224783845E+02  0.00000000000E+00 0.  1.
          5    1    4    4  501    0  0.72088233481E+02 -0.30200268479E+02  0.56313963453E+03  0.56855297906E+03  0.41800000000E+01 0.  1.
         -5    1    4    4    0  501  0.71850316526E+02  0.54351162928E+02  0.21864157947E+03  0.23651243005E+03  0.41800000000E+01 0.  1.
</event>
<event>
11    1  0.1003949E-008  0.1333132E+03  0.7561462E-02  0.1115264E+00
         22   -1    0    0    0    0  0.00000000000E+00  0.00000000000E+00  0.20857170004E+04  0.20857170004E+04  0.00000000000E+00 0.  1.
         22   -1    0    0    0    0 -0.00000000000E+00 -0.00000000000E+00 -0.45244220444E+02  0.45244220444E+02  0.00000000000E+00 0.  1.
         24    2    1    2    0    0 -0.27736645575E+02  0.39460327645E+02  0.23170965208E+02  0.95009146492E+02  0.78507358399E+02 0.  0.
         25    2    1    2    0    0  0.28978577166E+02 -0.12938288970E+02  0.50319046873E+03  0.51947655848E+03  0.12509232482E+03 0.  0.
        -24    2    1    2    0    0 -0.12419315903E+01 -0.26522038675E+02  0.15141113460E+04  0.15164755158E+04  0.80373261627E+02 0.  0.
        -13    1    3    3    0    0 -0.35843651711E+02  0.30981867127E+02 -0.19143255033E+02  0.51098998737E+02  0.00000000000E+00 0.  1.
         14    1    3    3    0    0  0.81070061354E+01  0.84784605188E+01  0.42314220242E+02  0.43910147756E+02  0.00000000000E+00 0. -1.
         13    1    5    5    0    0 -0.68739616446E+00  0.25452700220E+02  0.83081490348E+03  0.83120497851E+03  0.00000000000E+00 0. -1.
        -14    1    5    5    0    0 -0.55453542585E+00 -0.51974738895E+02  0.68329644250E+03  0.68527053733E+03  0.00000000000E+00 0.  1.
          5    1    4    4  501    0  0.40155729012E+02  0.22616011879E+02  0.45980774452E+03  0.46213050201E+03  0.41800000000E+01 0.  1.
         -5    1    4    4    0  501 -0.11177151846E+02 -0.35554300850E+02  0.43382724208E+02  0.57346056464E+02  0.41800000000E+01 0.  1.
</event>
<event>
11    1  0.1003949E-008  0.1388809E+03  0.7561462E-02  0.1108814E+00
         22   -1    0    0    0    0  0.00000000000E+00  0.00000000000E+00  0.17830732560E+04  0.17830732560E+04  0.00000000000E+00 0. -1.
         22   -1    0    0    0    0 -0.00000000000E+00 -0.00000000000E+00 -0.63884134763E+03  0.63884134763E+03  0.00000000000E+00 0. -1.
        -24    2    1    2    0    0 -0.58388751537E+02 -0.17574222229E+02 -0.61079112837E+03  0.61928305315E+03  0.82021935078E+02 0.  0.
         25    2    1    2    0    0  0.37802301987E+02 -0.19031915874E+02  0.17226416552E+03  0.21705751233E+03  0.12509113909E+03 0.  0.
         24    2    1    2    0    0  0.20586449550E+02  0.36606138104E+02  0.15827588712E+04  0.15855740381E+04  0.84590630590E+02 0.  0.
        -11    1    5    5    0    0  0.41061706042E+02  0.25460874337E+02  0.45199820802E+03  0.45457309630E+03  0.00000000000E+00 0.  1.
         12    1    5    5    0    0 -0.20475256492E+02  0.11145263767E+02  0.11307606632E+04  0.11310009418E+04  0.00000000000E+00 0. -1.
         13    1    3    3    0    0 -0.27489066833E+01 -0.12938302819E+02 -0.42685269081E+03  0.42705757905E+03  0.00000000000E+00 0. -1.
        -14    1    3    3    0    0 -0.55639844854E+02 -0.46359194103E+01 -0.18393843756E+03  0.19222547411E+03  0.00000000000E+00 0.  1.
          5    1    4    4  501    0  0.52038054442E+02  0.33914866311E+02  0.14021193814E+03  0.15341133356E+03  0.41800000000E+01 0.  1.
         -5    1    4    4    0  501 -0.14235752455E+02 -0.52946782185E+02  0.32052227376E+02  0.63646178766E+02  0.41800000000E+01 0.  1.
</event>
<event>
11    1  0.1003949E-008  0.1496038E+03  0.7561462E-02  0.1097284E+00
         22   -1    0    0    0    0  0.00000000000E+00  0.00000000000E+00  0.40978914043E+03  0.40978914043E+03  0.00000000000E+00 0.  1.
         22   -1    0    0    0    0 -0.00000000000E+00 -0.00000000000E+00 -0.45890539364E+03  0.45890539364E+03  0.00000000000E+00 0.  1.
        -24    2    1    2    0    0 -0.23812828215E+02 -0.12686576041E+02 -0.28729777349E+03  0.29957711332E+03  0.80488733225E+02 0.  0.
         25    2    1    2    0    0  0.36138736024E+02 -0.68899020301E+02 -0.12213584193E+03  0.19136228542E+03  0.12509707095E+03 0.  0.
         24    2    1    2    0    0 -0.12325907809E+02  0.81585596342E+02  0.36031736220E+03  0.37775513533E+03  0.77860151742E+02 0.  0.
        -11    1    5    5    0    0  0.30917166110E+02  0.21714716318E+02  0.15566627745E+03  0.16018548624E+03  0.00000000000E+00 0.  1.
         12    1    5    5    0    0 -0.43243073919E+02  0.59870880024E+02  0.20465108475E+03  0.21756964909E+03  0.00000000000E+00 0. -1.
         13    1    3    3    0    0 -0.26166041680E+02 -0.20311083901E+02 -0.39072614264E+02  0.51223735239E+02  0.00000000000E+00 0. -1.
        -14    1    3    3    0    0  0.23532134648E+01  0.76245078599E+01 -0.24822515923E+03  0.24835337808E+03  0.00000000000E+00 0.  1.
          5    1    4    4  501    0  0.73728505283E+02 -0.64109505709E+01 -0.57200223166E+02  0.93628685288E+02  0.41800000000E+01 0. -1.
         -5    1    4    4    0  501 -0.37589769259E+02 -0.62488069731E+02 -0.64935618759E+02  0.97733600134E+02  0.41800000000E+01 0. -1.
</event>
<event>
11    1  0.1003949E-008  0.1252296E+03  0.7561462E-02  0.1125273E+00
         22   -1    0    0    0    0  0.00000000000E+00  0.00000000000E+00  0.10829516548E+04  0.10829516548E+04  0.00000000000E+00 0. -1.
         22   -1    0    0    0    0 -0.00000000000E+00 -0.00000000000E+00 -0.15855020091E+03  0.15855020091E+03  0.00000000000E+00 0.  1.
         24    2    1    2    0    0  0.10654467197E+02 -0.10256835761E+02 -0.13493774226E+03  0.15490835061E+03  0.74630305190E+02 0.  0.
         25    2    1    2    0    0 -0.74570945363E+01  0.14279689715E+02  0.33936512313E+03  0.36204373940E+03  0.12508982629E+03 0.  0.
        -24    2    1    2    0    0 -0.31973726612E+01 -0.40228539539E+01  0.71997407301E+03  0.72454976570E+03  0.81137479752E+02 0.  0.
        -13    1    3    3    0    0 -0.18599289241E+02  0.10513966726E+01 -0.11761085986E+03  0.11907708996E+03  0.00000000000E+00 0.  1.
         14    1    3    3    0    0  0.29253756439E+02 -0.11308232434E+02 -0.17326882395E+02  0.35831260654E+02  0.00000000000E+00 0. -1.
         13    1    5    5    0    0 -0.38087559967E+02 -0.16451781271E+02  0.47269781255E+03  0.47451506333E+03  0.00000000000E+00 0. -1.
        -14    1    5    5    0    0  0.34890187306E+02  0.12428927317E+02  0.24727626046E+03  0.25003470238E+03  0.00000000000E+00 0.  1.
          5    1    4    4  501    0 -0.38941347742E+02  0.30082481051E+02  0.31537619016E+03  0.31921935710E+03  0.41800000000E+01 0.  1.
         -5    1    4    4    0  501  0.31484253206E+02 -0.15802791336E+02  0.23988932977E+02  0.42824382299E+02  0.41800000000E+01 0.  1.
</event>
<event>
11    1  0.1003949E-008  0.1364846E+03  0.7561462E-02  0.1111549E+00
         22   -1    0    0    0    0  0.00000000000E+00  0.00000000000E+00  0.21054727039E+04  0.21054727039E+04  0.00000000000E+00 0. -1.
         22   -1    0    0    0    0 -0.00000000000E+00 -0.00000000000E+00 -0.25983920600E+03  0.25983920600E+03  0.00000000000E+00 0. -1.
         24    2    1    2    0    0 -0.28800679928E+02 -0.11300179783E+02 -0.21913850268E+03  0.22840312296E+03  0.56472382589E+02 0.  0.
         25    2    1    2    0    0  0.17741364581E+02 -0.42598860120E+02  0.92797486772E+02  0.16249053360E+03  0.12514943491E+03 0.  0.
        -24    2    1    2    0    0  0.11059315347E+02  0.53899039903E+02  0.19719745138E+04  0.19744182533E+04  0.81342123458E+02 0.  0.
        -13    1    3    3    0    0  0.12494830701E+02  0.11386728432E+02 -0.47662949573E+02  0.50572078667E+02  0.00000000000E+00 0.  1.
         14    1    3    3    0    0 -0.41295510629E+02 -0.22686908215E+02 -0.17147555311E+03  0.17783104430E+03  0.00000000000E+00 0. -1.
         13    1    5    5    0    0 -0.23842979882E+02  0.57691167546E+02  0.13691092008E+04  0.13705315620E+04  0.00000000000E+00 0. -1.
        -14    1    5    5    0    0  0.34902295230E+02 -0.37921276425E+01  0.60286531294E+03  0.60388669136E+03  0.00000000000E+00 0.  1.
          5    1    4    4  501    0  0.77124757436E+01  0.13696798445E+01 -0.30169022541E+02  0.31448380341E+02  0.41800000000E+01 0.  1.
         -5    1    4    4    0  501  0.10028888837E+02 -0.43968539965E+02  0.12296650931E+03  0.13104215326E+03  0.41800000000E+01 0.  1.
</event>
<event>
11    1  0.1003949E-008  0.2391285E+03  0.7561462E-02  0.1029855E+00
         22   -1    0    0    0    0  0.00000000000E+00  0.00000000000E+00  0.84000929836E+03  0.84000929836E+03  0.00000000000E+00 0. -1.
         22   -1    0    0    0    0 -0.00000000000E+00 -0.00000000000E+00 -0.10045755059E+04  0.10045755059E+04  0.00000000000E+00 0.  1.
        -24    2    1    2    0    0  0.94086084357E+01 -0.29786357171E+02 -0.83141150387E+03  0.83591798477E+03  0.80858144295E+02 0.  0.
         25    2    1    2    0    0 -0.19428944004E+03 -0.56860348136E+02 -0.62470802426E+02  0.24603397443E+03  0.12509448317E+03 0.  0.
         24    2    1    2    0    0  0.18488083160E+03  0.86646705307E+02  0.72931609879E+03  0.76263284502E+03  0.89545021729E+02 0.  0.
        -13    1    5    5    0    0  0.14368541404E+02 -0.43866143238E+01  0.17382721723E+03  0.17447520975E+03  0.00000000000E+00 0.  1.
         14    1    5    5    0    0  0.17051229020E+03  0.91033319631E+02  0.55548888157E+03  0.58815763528E+03  0.00000000000E+00 0. -1.
         11    1    3    3    0    0  0.76490897045E+01 -0.15377785328E+02 -0.31526831727E+02  0.35901615196E+02  0.00000000000E+00 0. -1.
        -12    1    3    3    0    0  0.17595187312E+01 -0.14408571843E+02 -0.79988467214E+03  0.80001636957E+03  0.00000000000E+00 0.  1.
          5    1    4    4  501    0  0.16138086640E+02 -0.29019056571E+01  0.64200292867E+01  0.18098289225E+02  0.41800000000E+01 0. -1.
         -5    1    4    4    0  501 -0.21042752668E+03 -0.53958442479E+02 -0.68890831712E+02  0.22793568521E+03  0.41800000000E+01 0. -1.
</event>
<event>
11    1  0.1003949E-008  0.1403202E+03  0.7561462E-02  0.1107201E+00
         22   -1    0    0    0    0  0.00000000000E+00  0.00000000000E+00  0.97720206101E+03  0.97720206101E+03  0.00000000000E+00 0.  1.
         22   -1    0    0    0    0 -0.00000000000E+00 -0.00000000000E+00 -0.12965700824E+04  0.12965700824E+04  0.00000000000E+00 0.  1.
        -24    2    1    2    0    0  0.46639442115E+02 -0.42787350239E+02 -0.12721530873E+04  0.12763371966E+04  0.81591464564E+02 0.  0.
         25    2    1    2    0    0 -0.94614926836E+02  0.81943262595E+02  0.43050707298E+03  0.46545712160E+03  0.12508920615E+03 0.  0.
         24    2    1    2    0    0  0.47975484721E+02 -0.39155912356E+02  0.52227799291E+03  0.53197782520E+03  0.79945431537E+02 0.  0.
        -11    1    5    5    0    0  0.48639818640E+02 -0.39249139530E+02  0.52523759213E+03  0.52894314921E+03  0.00000000000E+00 0.  1.
         12    1    5    5    0    0 -0.66433391828E+00  0.93227173536E-01 -0.29595992179E+01  0.30346759945E+01  0.00000000000E+00 0. -1.
         13    1    3    3    0    0  0.29696479137E+02  0.34100436759E+01 -0.14193424290E+03  0.14504771139E+03  0.00000000000E+00 0. -1.
        -14    1    3    3    0    0  0.16942962977E+02 -0.46197393915E+02 -0.11302188444E+04  0.11312894853E+04  0.00000000000E+00 0.  1.
          5    1    4    4  501    0  0.30723946244E+02  0.11344209834E+02  0.83457158214E+02  0.89750886495E+02  0.41800000000E+01 0.  1.
         -5    1    4    4    0  501 -0.12533887308E+03  0.70599052762E+02  0.34704991476E+03  0.37570623510E+03  0.41800000000E+01 0.  1.
</event>
<event>
11    1  0.1003949E-008  0.1652426E+03  0.7561462E-02  0.1082248E+00
         22   -1    0    0    0    0  0.00000000000E+00  0.00000000000E+00  0.13563302401E+04  0.13563302401E+04  0.00000000000E+00 0. -1.
         22   -1    0    0    0    0 -0.00000000000E+00 -0.00000000000E+00 -0.18279688381E+03  0.18279688381E+03  0.00000000000E+00 0. -1.
        -24    2    1    2    0    0 -0.10161499444E+03  0.34310721270E+02 -0.14274158618E+03  0.19552832725E+03  0.79707801633E+02 0.  0.
         25    2    1    2    0    0  0.11900650259E+03 -0.50890768514E+02  0.75932937749E+03  0.78037189036E+03  0.12508703280E+03 0.  0.
         24    2    1    2    0    0 -0.17391508149E+02  0.16580047244E+02  0.55694556496E+03  0.56322690626E+03  0.80366803408E+02 0.  0.
        -11    1    5    5    0    0  0.16002301661E+02  0.37556983882E+02  0.20103209897E+03  0.20513533463E+03  0.00000000000E+00 0.  1.
         12    1    5    5    0    0 -0.33393809810E+02 -0.20976936638E+02  0.35591346599E+03  0.35809157164E+03  0.00000000000E+00 0. -1.
         13    1    3    3    0    0 -0.53489694140E+02  0.13146197585E+02 -0.13035591410E+03  0.14151549114E+03  0.00000000000E+00 0. -1.
        -14    1    3    3    0    0 -0.48125300304E+02  0.21164523685E+02 -0.12385672080E+02  0.54012836114E+02  0.00000000000E+00 0.  1.
          5    1    4    4  501    0  0.13930955379E+03 -0.21126520189E+02  0.65249364327E+03  0.66754693358E+03  0.41800000000E+01 0. -1.
         -5    1    4    4    0  501 -0.20303051194E+02 -0.29764248325E+02  0.10683573422E+03  0.11282495678E+03  0.41800000000E+01 0. -1.
</event>
<event>
11    1  0.1003949E-008  0.2470043E+03  0.7561462E-02  0.1025507E+00
         22   -1    0    0    0    0  0.00000000000E+00  0.00000000000E+00  0.99582648388E+03  0.99582648388E+03  0.00000000000E+00 0.  1.
         22   -1    0    0    0    0 -0.00000000000E+00 -0.00000000000E+00 -0.66292532536E+03  0.66292532536E+03  0.00000000000E+00 0.  1.
        -24    2    1    2    0    0  0.17596034940E+03  0.11987455620E+03 -0.60112684613E+03  0.64256123142E+03  0.78736885912E+02 0.  0.
         25    2    1    2    0    0 -0.16626254820E+03 -0.13679402307E+03  0.37127632987E+03  0.44704500673E+03  0.12508910918E+03 0.  0.
         24    2    1    2    0    0 -0.96978011947E+01  0.16919466878E+02  0.56275167478E+03  0.56914557109E+03  0.82806508863E+02 0.  0.
        -11    1    5    5    0    0  0.31810436523E+02 -0.55148682510E+00  0.36244345698E+03  0.36383714422E+03  0.00000000000E+00 0.  1.
         12    1    5    5    0    0 -0.41508237718E+02  0.17470953703E+02  0.20030821780E+03  0.20530842686E+03  0.00000000000E+00 0. -1.
         13    1    3    3    0    0  0.30565729375E+01 -0.38297682703E+01  0.49568359616E-01  0.49002265406E+01  0.00000000000E+00 0. -1.
        -14    1    3    3    0    0  0.17290377646E+03  0.12370432447E+03 -0.60117641449E+03  0.63766100488E+03  0.00000000000E+00 0.  1.
          5    1    4    4  501    0 -0.17756102473E+03 -0.11467806855E+03  0.27131316107E+03  0.34395825427E+03  0.41800000000E+01 0.  1.
         -5    1    4    4    0  501  0.11298476528E+02 -0.22115954520E+02  0.99963168799E+02  0.10308675246E+03  0.41800000000E+01 0.  1.
</event>
<event>
11    1  0.1003949E-008  0.2058048E+03  0.7561462E-02  0.1050493E+00
         22   -1    0    0    0    0  0.00000000000E+00  0.00000000000E+00  0.10334287985E+04  0.10334287985E+04  0.00000000000E+00 0. -1.
         22   -1    0    0    0    0 -0.00000000000E+00 -0.00000000000E+00 -0.76335773322E+03  0.76335773322E+03  0.00000000000E+00 0.  1.
         24    2    1    2    0    0  0.17633552986E+02  0.72805294455E+02 -0.67626437787E+03  0.68508892158E+03  0.80011053006E+02 0.  0.
         25    2    1    2    0    0 -0.55537301757E+02 -0.22177153516E+03  0.16399331383E+03  0.30790879085E+03  0.12508801225E+03 0.  0.
        -24    2    1    2    0    0  0.37903748771E+02  0.14896624071E+03  0.78234212937E+03  0.80378881934E+03  0.10192950342E+03 0.  0.
        -13    1    3    3    0    0  0.30098452212E+02  0.83659173090E+02 -0.48267059968E+03  0.49079087386E+03  0.00000000000E+00 0.  1.
         14    1    3    3    0    0 -0.12464899226E+02 -0.10853878634E+02 -0.19359377819E+03  0.19429804772E+03  0.00000000000E+00 0. -1.
         11    1    5    5    0    0  0.10258714312E+02  0.31258498420E+02  0.43041474438E+03  0.43167022960E+03  0.00000000000E+00 0. -1.
        -12    1    5    5    0    0  0.27645034459E+02  0.11770774229E+03  0.35192738499E+03  0.37211858974E+03  0.00000000000E+00 0.  1.
          5    1    4    4  501    0 -0.66863763673E+02 -0.60464369704E+02  0.97955970298E+02  0.13318989231E+03  0.41800000000E+01 0.  1.
         -5    1    4    4    0  501  0.11326461916E+02 -0.16130716546E+03  0.66037343528E+02  0.17471889854E+03  0.41800000000E+01 0.  1.
</event>
<event>
11    1  0.1003949E-008  0.1592736E+03  0.7561462E-02  0.1087762E+00
         22   -1    0    0    0    0  0.00000000000E+00  0.00000000000E+00  0.76976173416E+03  0.76976173416E+03  0.00000000000E+00 0.  1.
         22   -1    0    0    0    0 -0.00000000000E+00 -0.00000000000E+00 -0.65241069278E+03  0.65241069278E+03  0.00000000000E+00 0. -1.
        -24    2    1    2    0    0 -0.98128184287E+02  0.13891771248E+02 -0.58399266997E+03  0.59784761954E+03  0.80945758013E+02 0.  0.
         25    2    1    2    0    0  0.73661810625E+02 -0.97626204210E+02  0.81573339487E+02  0.19302448291E+03  0.12508918096E+03 0.  0.
         24    2    1    2    0    0  0.24466373662E+02  0.83734432962E+02  0.61977037187E+03  0.63130032450E+03  0.82551360780E+02 0.  0.
        -13    1    5    5    0    0  0.42659624388E+02  0.28793758224E+02  0.42524119112E+03  0.42834448133E+03  0.00000000000E+00 0.  1.
         14    1    5    5    0    0 -0.18193250726E+02  0.54940674738E+02  0.19452918075E+03  0.20295584317E+03  0.00000000000E+00 0. -1.
         11    1    3    3    0    0 -0.76741757882E+02  0.44594977516E+02 -0.36191940677E+03  0.37264415522E+03  0.00000000000E+00 0. -1.
        -12    1    3    3    0    0 -0.21386426405E+02 -0.30703206268E+02 -0.22207326321E+03  0.22520346432E+03  0.00000000000E+00 0.  1.
          5    1    4    4  501    0 -0.37724043160E+01 -0.53101858651E+02 -0.20611201419E+02  0.57239256201E+02  0.41800000000E+01 0.  1.
         -5    1    4    4    0  501  0.77434214941E+02 -0.44524345559E+02  0.10218454091E+03  0.13578522670E+03  0.41800000000E+01 0.  1.
</event>
<event>
11    1  0.1003949E-008  0.1724435E+03  0.7561462E-02  0.1075925E+00
         22   -1    0    0    0    0  0.00000000000E+00  0.00000000000E+00  0.45149371006E+02  0.45149371006E+02  0.00000000000E+00 0. -1.
         22   -1    0    0    0    0 -0.00000000000E+00 -0.00000000000E+00 -0.33287372297E+04  0.33287372297E+04  0.00000000000E+00 0.  1.
        -24    2    1    2    0    0 -0.11393143682E+03 -0.29431196439E+02 -0.24153754583E+04  0.24201750007E+04  0.96756714938E+02 0.  0.
         25    2    1    2    0    0  0.11030174076E+03  0.60124198948E+02 -0.83725466335E+03  0.85581855846E+03  0.12509452581E+03 0.  0.
         24    2    1    2    0    0  0.36296960509E+01 -0.30693002509E+02 -0.30957736994E+02  0.97893041486E+02  0.87575287583E+02 0.  0.
        -13    1    5    5    0    0  0.25196490677E+02  0.77234592276E+01 -0.44572981023E+02  0.51780938598E+02  0.00000000000E+00 0.  1.
         14    1    5    5    0    0 -0.21566794626E+02 -0.38416461736E+02  0.13615244028E+02  0.46112102888E+02  0.00000000000E+00 0. -1.
         11    1    3    3    0    0 -0.28845551965E+02 -0.87074233070E+01 -0.14432543803E+03  0.14743716340E+03  0.00000000000E+00 0. -1.
        -12    1    3    3    0    0 -0.85085884850E+02 -0.20723773132E+02 -0.22710500203E+04  0.22727378373E+04  0.00000000000E+00 0.  1.
          5    1    4    4  501    0  0.59537143347E+02  0.83763952527E+02 -0.33497146336E+03  0.35040608563E+03  0.41800000000E+01 0. -1.
         -5    1    4    4    0  501  0.50764597418E+02 -0.23639753579E+02 -0.50228319999E+03  0.50541247283E+03  0.41800000000E+01 0. -1.
</event>
<event>
11    1  0.1003949E-008  0.1411648E+03  0.7561462E-02  0.1106265E+00
         22   -1    0    0    0    0  0.00000000000E+00  0.00000000000E+00  0.13468514312E+04  0.13468514312E+04  0.00000000000E+00 0.  1.
         22   -1    0    0    0    0 -0.00000000000E+00 -0.00000000000E+00 -0.19440761439E+04  0.19440761439E+04  0.00000000000E+00 0. -1.
         24    2    1    2    0    0 -0.50832844378E+02  0.51002532499E+02 -0.19139732042E+04  0.19170184326E+04  0.80504709686E+02 0.  0.
         25    2    1    2    0    0  0.95902374867E+02 -0.38907501808E+01  0.21597378343E+03  0.26740248949E+03  0.12508802026E+03 0.  0.
        -24    2    1    2    0    0 -0.45069530489E+02 -0.47111782319E+02  0.11007747079E+04  0.11065066530E+04  0.91658239955E+02 0.  0.
        -13    1    3    3    0    0  0.13210331421E+02  0.25282242918E+02 -0.10146816442E+04  0.10150825305E+04  0.00000000000E+00 0.  1.
         14    1    3    3    0    0 -0.64043175799E+02  0.25720289582E+02 -0.89929155994E+03  0.90193590207E+03  0.00000000000E+00 0. -1.
         13    1    5    5    0    0 -0.60933733474E+02 -0.10915107650E+02  0.41472183118E+03  0.41931641597E+03  0.00000000000E+00 0. -1.
        -14    1    5    5    0    0  0.15864202985E+02 -0.36196674669E+02  0.68605287677E+03  0.68719023707E+03  0.00000000000E+00 0.  1.
          5    1    4    4  501    0  0.39453911056E+02  0.29826177466E+02  0.19034304049E+03  0.19670830543E+03  0.41800000000E+01 0.  1.
         -5    1    4    4    0  501  0.56448463811E+02 -0.33716927647E+02  0.25630742937E+02  0.70694184061E+02  0.41800000000E+01 0.  1.
</event>
<event>
11    1  0.1003949E-008  0.1637151E+03  0.7561462E-02  0.1083634E+00
         22   -1    0    0    0    0  0.00000000000E+00  0.00000000000E+00  0.19850920993E+04  0.19850920993E+04  0.00000000000E+00 0. -1.
         22   -1    0    0    0    0 -0.00000000000E+00 -0.00000000000E+00 -0.52983036609E+03  0.52983036609E+03  0.00000000000E+00 0.  1.
         24    2    1    2    0    0 -0.36962890352E+01 -0.74118014425E+01 -0.47354689393E+03  0.48090434084E+03  0.83389009677E+02 0.  0.
         25    2    1    2    0    0 -0.10208157090E+03  0.80237424184E+01  0.79777697978E+02  0.18027010801E+03  0.12509117950E+03 0.  0.
        -24    2    1    2    0    0  0.10577785993E+03 -0.61194097584E+00  0.18490309291E+04  0.18537480165E+04  0.79227531431E+02 0.  0.
        -13    1    3    3    0    0  0.63919873502E+01  0.18646298753E+02 -0.42037874916E+03  0.42084062863E+03  0.00000000000E+00 0.  1.
         14    1    3    3    0    0 -0.10088276385E+02 -0.26058100196E+02 -0.53168144763E+02  0.60063712205E+02  0.00000000000E+00 0. -1.
         11    1    5    5    0    0  0.93807527579E+02  0.29211427673E+02  0.12497596688E+04  0.12536157264E+04  0.00000000000E+00 0. -1.
        -12    1    5    5    0    0  0.11970332354E+02 -0.29823368649E+02  0.59927126034E+03  0.60013229012E+03  0.00000000000E+00 0.  1.
          5    1    4    4  501    0 -0.75065284908E+02  0.61588831353E+02  0.68958241132E+02  0.11916665878E+03  0.41800000000E+01 0. -1.
         -5    1    4    4    0  501 -0.27016285990E+02 -0.53565088935E+02  0.10819456846E+02  0.61103449229E+02  0.41800000000E+01 0. -1.
</event>
<event>
11    1  0.1003949E-008  0.1629375E+03  0.7561462E-02  0.1084347E+00
         22   -1    0    0    0    0  0.00000000000E+00  0.00000000000E+00  0.28629866683E+04  0.28629866683E+04  0.00000000000E+00 0. -1.
         22   -1    0    0    0    0 -0.00000000000E+00 -0.00000000000E+00 -0.22677674307E+04  0.22677674307E+04  0.00000000000E+00 0.  1.
         24    2    1    2    0    0  0.66250705776E+02  0.53281781850E+02 -0.22537711494E+04  0.22568468498E+04  0.81518128474E+02 0.  0.
         25    2    1    2    0    0 -0.13091614847E+03 -0.11633116919E+03  0.11046597344E+04  0.11254300006E+04  0.12509028173E+03 0.  0.
        -24    2    1    2    0    0  0.64665442692E+02  0.63049387337E+02  0.17443306526E+04  0.17484772486E+04  0.79538785561E+02 0.  0.
        -13    1    3    3    0    0  0.84373851893E+02  0.47040228627E+02 -0.20116890867E+04  0.20140071280E+04  0.00000000000E+00 0.  1.
         14    1    3    3    0    0 -0.18123146117E+02  0.62415532237E+01 -0.24208206265E+03  0.24283972176E+03  0.00000000000E+00 0. -1.
         13    1    5    5    0    0  0.76546187003E+02  0.45667868882E+02  0.16137892936E+04  0.16162489775E+04  0.00000000000E+00 0. -1.
        -14    1    5    5    0    0 -0.11880744311E+02  0.17381518455E+02  0.13054135900E+03  0.13222827110E+03  0.00000000000E+00 0.  1.
          5    1    4    4  501    0 -0.11669475609E+03 -0.13222955104E+03  0.10705216978E+04  0.10849592149E+04  0.41800000000E+01 0.  1.
         -5    1    4    4    0  501 -0.14221392376E+02  0.15898381855E+02  0.34138036575E+02  0.40470785611E+02  0.41800000000E+01 0.  1.
</event>
<event>
11    1  0.1003949E-008  0.1387188E+03  0.7561462E-02  0.1108998E+00
         22   -1    0    0    0    0  0.00000000000E+00  0.00000000000E+00  0.96834902021E+03  0.96834902021E+03  0.00000000000E+00 0. -1.
         22   -1    0    0    0    0 -0.00000000000E+00 -0.00000000000E+00 -0.16454097121E+03  0.16454097121E+03  0.00000000000E+00 0. -1.
         24    2    1    2    0    0 -0.51798287393E+02 -0.46483471584E+02  0.13009825723E+02  0.13075719864E+03  0.10992913046E+03 0.  0.
         25    2    1    2    0    0  0.27276188742E+02  0.47987068861E+02 -0.58863662201E+02  0.14885871364E+03  0.12508891497E+03 0.  0.
        -24    2    1    2    0    0  0.24522098650E+02 -0.15035972771E+01  0.84966188548E+03  0.85327407913E+03  0.74483154820E+02 0.  0.
        -13    1    3    3    0    0  0.21842038195E+01 -0.44070390160E+01  0.51835364740E+02  0.52068203127E+02  0.00000000000E+00 0.  1.
         14    1    3    3    0    0 -0.53982491212E+02 -0.42076432568E+02 -0.38825539017E+02  0.78688995514E+02  0.00000000000E+00 0. -1.
         13    1    5    5    0    0  0.26186473439E+02 -0.52163288822E+01  0.97186230668E+02  0.10078742436E+03  0.00000000000E+00 0. -1.
        -14    1    5    5    0    0 -0.16643747887E+01  0.37127316051E+01  0.75247565481E+03  0.75248665477E+03  0.00000000000E+00 0.  1.
          5    1    4    4  501    0 -0.21348764597E+02  0.17759316688E+02  0.31249085505E+02  0.42013579042E+02  0.41800000000E+01 0.  1.
         -5    1    4    4    0  501  0.48624953339E+02  0.30227752173E+02 -0.90112747706E+02  0.10684513460E+03  0.41800000000E+01 0.  1.
</event>
<event>
11    1  0.1003949E-008  0.1965374E+03  0.7561462E-02  0.1057000E+00
         22   -1    0    0    0    0  0.00000000000E+00  0.00000000000E+00  0.38064816636E+03  0.38064816636E+03  0.00000000000E+00 0.  1.
         22   -1    0    0    0    0 -0.00000000000E+00 -0.00000000000E+00 -0.60341650533E+03  0.60341650533E+03  0.00000000000E+00 0. -1.
        -24    2    1    2    0    0 -0.28698168198E+02 -0.15086313391E+03 -0.50777436648E+03  0.53652428599E+03  0.80251057146E+02 0.  0.
         25    2    1    2    0    0  0.54101801145E+02  0.12714667418E+03  0.44458497946E+02  0.19161897695E+03  0.12509193678E+03 0.  0.
         24    2    1    2    0    0 -0.25403632947E+02  0.23716459729E+02  0.24054752956E+03  0.25592140875E+03  0.80155089985E+02 0.  0.
        -11    1    5    5    0    0 -0.26361165555E+02  0.43952594405E+02  0.22392670443E+03  0.22971702279E+03  0.00000000000E+00 0.  1.
         12    1    5    5    0    0  0.95753260769E+00 -0.20236134676E+02  0.16620825127E+02  0.26204385954E+02  0.00000000000E+00 0. -1.
         11    1    3    3    0    0 -0.45317949573E+02 -0.14817311729E+03 -0.47570523509E+03  0.50030436729E+03  0.00000000000E+00 0. -1.
        -12    1    3    3    0    0  0.16619781375E+02 -0.26900166214E+01 -0.32069131390E+02  0.36219918698E+02  0.00000000000E+00 0.  1.
          5    1    4    4  501    0 -0.74977484359E+01  0.21953734054E+01  0.51318075188E+02  0.52077376441E+02  0.41800000000E+01 0. -1.
         -5    1    4    4    0  501  0.61599549581E+02  0.12495130078E+03 -0.68595772419E+01  0.13954160051E+03  0.41800000000E+01 0. -1.
</event>
<event>
11    1  0.1003949E-008  0.1491349E+03  0.7561462E-02  0.1097766E+00
         22   -1    0    0    0    0  0.00000000000E+00  0.00000000000E+00  0.13593649254E+03  0.13593649254E+03  0.00000000000E+00 0. -1.
         22   -1    0    0    0    0 -0.00000000000E+00 -0.00000000000E+00 -0.78425284930E+03  0.78425284930E+03  0.00000000000E+00 0. -1.
        -24    2    1    2    0    0  0.42891876190E+02  0.82129529541E+01 -0.56891230722E+03  0.57606107998E+03  0.79233761229E+02 0.  0.
         25    2    1    2    0    0 -0.90423565722E+02  0.53976241245E+02 -0.14544861913E+03  0.21884910070E+03  0.12509904961E+03 0.  0.
         24    2    1    2    0    0  0.47531689532E+02 -0.62189194199E+02  0.66044569593E+02  0.12527916117E+03  0.72154179820E+02 0.  0.
        -13    1    5    5    0    0  0.19102532626E+02  0.14114894774E+02  0.23475833531E+02  0.33395385418E+02  0.00000000000E+00 0.  1.
         14    1    5    5    0    0  0.28429156906E+02 -0.76304088973E+02  0.42568736061E+02  0.91883775751E+02  0.00000000000E+00 0. -1.
         13    1    3    3    0    0  0.50408055201E+02  0.18532166561E+02 -0.55326946532E+03  0.55587005179E+03  0.00000000000E+00 0. -1.
        -14    1    3    3    0    0 -0.75161790106E+01 -0.10319213607E+02 -0.15642841903E+02  0.20191028185E+02  0.00000000000E+00 0.  1.
          5    1    4    4  501    0 -0.41002686863E+02  0.11962204168E+02  0.15216112058E+02  0.45533692193E+02  0.41800000000E+01 0.  1.
         -5    1    4    4    0  501 -0.49420878860E+02  0.42014037077E+02 -0.16066473119E+03  0.17331540851E+03  0.41800000000E+01 0.  1.
</event>
<event>
11    1  0.1003949E-008  0.1865958E+03  0.7561462E-02  0.1064429E+00
         22   -1    0    0    0    0  0.00000000000E+00  0.00000000000E+00  0.66350452199E+02  0.66350452199E+02  0.00000000000E+00 0. -1.
         22   -1    0    0    0    0 -0.00000000000E+00 -0.00000000000E+00 -0.23003009069E+04  0.23003009069E+04  0.00000000000E+00 0.  1.
         24    2    1    2    0    0 -0.93112322243E+02 -0.75523087401E+02 -0.89686430109E+03  0.90804581810E+03  0.76210182509E+02 0.  0.
         25    2    1    2    0    0  0.92116247306E+02  0.14353997539E+03 -0.13337403525E+04  0.13504074675E+04  0.12509145772E+03 0.  0.
        -24    2    1    2    0    0  0.99607493772E+00 -0.68016887992E+02 -0.33458010858E+01  0.10819807349E+03  0.84073417348E+02 0.  0.
        -11    1    3    3    0    0 -0.29600321399E+02 -0.72645449608E+02 -0.50611822152E+03  0.51216129737E+03  0.00000000000E+00 0.  1.
         12    1    3    3    0    0 -0.63512000845E+02 -0.28776377927E+01 -0.39074607957E+03  0.39588452072E+03  0.00000000000E+00 0. -1.
         13    1    5    5    0    0  0.21678791268E+01 -0.86647361078E+02  0.68197202855E+01  0.86942357148E+02  0.00000000000E+00 0. -1.
        -14    1    5    5    0    0 -0.11718041891E+01  0.18630473085E+02 -0.10165521371E+02  0.21255716342E+02  0.00000000000E+00 0.  1.
          5    1    4    4  501    0 -0.83996167362E+01  0.49616009441E+02 -0.70370355484E+03  0.70551291090E+03  0.41800000000E+01 0.  1.
         -5    1    4    4    0  501  0.10051586404E+03  0.93923965952E+02 -0.63003679770E+03  0.64489455662E+03  0.41800000000E+01 0.  1.
</event>
<event>
11    1  0.1003949E-008  0.1306362E+03  0.7561462E-02  0.1118490E+00
         22   -1    0    0    0    0  0.00000000000E+00  0.00000000000E+00  0.10173311291E+03  0.10173311291E+03  0.00000000000E+00 0. -1.
         22   -1    0    0    0    0 -0.00000000000E+00 -0.00000000000E+00 -0.12448286712E+04  0.12448286712E+04  0.00000000000E+00 0.  1.
        -24    2    1    2    0    0 -0.30223224817E+00 -0.37943957576E+02 -0.10142394443E+04  0.10181736431E+04  0.80969635922E+02 0.  0.
         25    2    1    2    0    0 -0.41922102460E+01  0.34695401615E+02 -0.18735047576E+03  0.22796777723E+03  0.12509101155E+03 0.  0.
         24    2    1    2    0    0  0.44944424941E+01  0.32485559605E+01  0.58494361766E+02  0.10042036375E+03  0.81436514952E+02 0.  0.
        -11    1    5    5    0    0 -0.20034029678E+02 -0.32538376085E+02  0.26088618489E+02  0.46267961680E+02  0.00000000000E+00 0.  1.
         12    1    5    5    0    0  0.24528472172E+02  0.35786932045E+02  0.32405743277E+02  0.54152402067E+02  0.00000000000E+00 0. -1.
         13    1    3    3    0    0 -0.28143006381E+02  0.11369370933E+02 -0.47500234329E+03  0.47597113099E+03  0.00000000000E+00 0. -1.
        -14    1    3    3    0    0  0.27840774132E+02 -0.49313328509E+02 -0.53923710100E+03  0.54220251214E+03  0.00000000000E+00 0.  1.
          5    1    4    4  501    0 -0.31296931119E+02 -0.35639380334E+02 -0.11010125378E+03  0.11995591612E+03  0.41800000000E+01 0.  1.
         -5    1    4    4    0  501  0.27104720873E+02  0.70334781950E+02 -0.77249221975E+02  0.10801186111E+03  0.41800000000E+01 0.  1.
</event>
<event>
11    1  0.1003949E-008  0.1513453E+03  0.7561462E-02  0.1095512E+00
         22   -1    0    0    0    0  0.00000000000E+00  0.00000000000E+00  0.46156913039E+04  0.46156913039E+04  0.00000000000E+00 0. -1.
         22   -1    0    0    0    0 -0.00000000000E+00 -0.00000000000E+00 -0.10475683823E+04  0.10475683823E+04  0.00000000000E+00 0. -1.
         24    2    1    2    0    0  0.56941788323E+02  0.62255855878E+02 -0.10360747433E+04  0.10427251274E+04  0.81894191805E+02 0.  0.
         25    2    1    2    0    0  0.34629221577E+02 -0.47335560879E+02  0.65487040997E+03  0.66928365232E+03  0.12508203348E+03 0.  0.
        -24    2    1    2    0    0 -0.91571009899E+02 -0.14920294999E+02  0.39493272550E+04  0.39512509066E+04  0.81179399055E+02 0.  0.
        -13    1    3    3    0    0 -0.65049217665E+01  0.37064166538E+01 -0.77247457447E+01  0.10757473143E+02  0.00000000000E+00 0.  1.
         14    1    3    3    0    0  0.63446710089E+02  0.58549439224E+02 -0.10283499976E+04  0.10319676542E+04  0.00000000000E+00 0. -1.
         11    1    5    5    0    0 -0.77303031635E+02  0.20556505665E+02  0.31427061584E+04  0.31437239584E+04  0.00000000000E+00 0. -1.
        -12    1    5    5    0    0 -0.14267978264E+02 -0.35476800664E+02  0.80662109656E+03  0.80752694816E+03  0.00000000000E+00 0.  1.
          5    1    4    4  501    0 -0.45399591383E+02 -0.29834711911E+02  0.21259576833E+03  0.21946677663E+03  0.41800000000E+01 0.  1.
         -5    1    4    4    0  501  0.80028812960E+02 -0.17500848968E+02  0.44227464164E+03  0.44981687569E+03  0.41800000000E+01 0.  1.
</event>
<event>
11    1  0.1003949E-008  0.1577441E+03  0.7561462E-02  0.1089218E+00
         22   -1    0    0    0    0  0.00000000000E+00  0.00000000000E+00  0.64895941309E+03  0.64895941309E+03  0.00000000000E+00 0. -1.
         22   -1    0    0    0    0 -0.00000000000E+00 -0.00000000000E+00 -0.12018302018E+03  0.12018302018E+03  0.00000000000E+00 0. -1.
        -24    2    1    2    0    0  0.19243169699E+02  0.30398517959E+02 -0.20321412282E+02  0.89815966811E+02  0.79746966230E+02 0.  0.
         25    2    1    2    0    0  0.24938491869E+02  0.59687355193E+02  0.28990396010E+02  0.14378201520E+03  0.12509322958E+03 0.  0.
         24    2    1    2    0    0 -0.44181661567E+02 -0.90085873152E+02  0.52010740918E+03  0.53554445126E+03  0.78921850188E+02 0.  0.
        -13    1    5    5    0    0 -0.22921799399E+02 -0.89312011387E+02  0.28654285875E+03  0.30101304651E+03  0.00000000000E+00 0.  1.
         14    1    5    5    0    0 -0.21259862168E+02 -0.77386176532E+00  0.23356455043E+03  0.23453140476E+03  0.00000000000E+00 0. -1.
         13    1    3    3    0    0 -0.22293003315E+02 -0.10276203247E+02  0.70781902250E+01  0.25547585538E+02  0.00000000000E+00 0. -1.
        -14    1    3    3    0    0  0.41536173014E+02  0.40674721206E+02 -0.27399602506E+02  0.64268381272E+02  0.00000000000E+00 0.  1.
          5    1    4    4  501    0  0.35832597919E+02 -0.17305287459E+02  0.49116893196E+02  0.63351319204E+02  0.41800000000E+01 0. -1.
         -5    1    4    4    0  501 -0.10894106050E+02  0.76992642652E+02 -0.20126497186E+02  0.80430695995E+02  0.41800000000E+01 0. -1.
</event>
<event>
11    1  0.1003949E-008  0.1275834E+03  0.7561462E-02  0.1122274E+00
         22   -1    0    0    0    0  0.00000000000E+00  0.00000000000E+00  0.17201427645E+03  0.17201427645E+03  0.00000000000E+00 0.  1.
         22   -1    0    0    0    0 -0.00000000000E+00 -0.00000000000E+00 -0.11978909907E+04  0.11978909907E+04  0.00000000000E+00 0. -1.
         24    2    1    2    0    0  0.41127350565E+02  0.88340562508E+01 -0.10835370399E+04  0.10870738165E+04  0.76860042872E+02 0.  0.
         25    2    1    2    0    0 -0.99852509742E+01 -0.10319531259E+02 -0.54175311162E+02  0.13707097262E+03  0.12508912516E+03 0.  0.
        -24    2    1    2    0    0 -0.31142099591E+02  0.14854750083E+01  0.11183563682E+03  0.14576047800E+03  0.88129848981E+02 0.  0.
        -13    1    3    3    0    0  0.28064831601E+02 -0.15632298541E+01 -0.11473354354E+03  0.11812647660E+03  0.00000000000E+00 0.  1.
         14    1    3    3    0    0  0.13062518964E+02  0.10397286105E+02 -0.96880349638E+03  0.96894733993E+03  0.00000000000E+00 0. -1.
         13    1    5    5    0    0 -0.39987269251E+02 -0.20157083674E+02  0.16698507632E+02  0.47792571406E+02  0.00000000000E+00 0. -1.
        -14    1    5    5    0    0  0.88451696599E+01  0.21642558683E+02  0.95137129191E+02  0.97967906599E+02  0.00000000000E+00 0.  1.
          5    1    4    4  501    0 -0.47303756139E+02  0.21437395085E+02 -0.68298754763E+02  0.85903431568E+02  0.41800000000E+01 0. -1.
         -5    1    4    4    0  501  0.37318505165E+02 -0.31756926344E+02  0.14123443601E+02  0.51167541056E+02  0.41800000000E+01 0. -1.
</event>
<event>
11    1  0.1003949E-008  0.2035099E+03  0.7561462E-02  0.1052069E+00
         22   -1    0    0    0    0  0.00000000000E+00  0.00000000000E+00  0.99699035744E+03  0.99699035744E+03  0.00000000000E+00 0.  1.
         22   -1    0    0    0    0 -0.00000000000E+00 -0.00000000000E+00 -0.23147588419E+03  0.23147588419E+03  0.00000000000E+00 0. -1.
         24    2    1    2    0    0  0.10917216455E+02 -0.53954232049E+02 -0.15460915246E+03  0.18310114220E+03  0.81189860697E+02 0.  0.
         25    2    1    2    0    0 -0.16767742831E+03  0.19880630183E+02  0.15644025937E+03  0.26197509934E+03  0.12508572461E+03 0.  0.
        -24    2    1    2    0    0  0.15676021186E+03  0.34073601866E+02  0.76368336634E+03  0.78339000008E+03  0.68940799535E+02 0.  0.
        -13    1    3    3    0    0 -0.17617554685E+02 -0.63354502849E+02 -0.86476154131E+02  0.10863837489E+03  0.00000000000E+00 0.  1.
         14    1    3    3    0    0  0.28534771140E+02  0.94002708001E+01 -0.68132998330E+02  0.74462767317E+02  0.00000000000E+00 0. -1.
         13    1    5    5    0    0  0.65049547139E+02  0.48495899857E+02  0.38956227488E+03  0.39792218070E+03  0.00000000000E+00 0. -1.
        -14    1    5    5    0    0  0.91710664721E+02 -0.14422297990E+02  0.37412109146E+03  0.38546781938E+03  0.00000000000E+00 0.  1.
          5    1    4    4  501    0 -0.15474808907E+03 -0.51993714792E+01  0.17034959079E+03  0.23024000525E+03  0.41800000000E+01 0.  1.
         -5    1    4    4    0  501 -0.12929339249E+02  0.25080001662E+02 -0.13909331418E+02  0.31735094095E+02  0.41800000000E+01 0.  1.
</event>
<event>
11    1  0.1003949E-008  0.2215988E+03  0.7561462E-02  0.1040220E+00
         22   -1    0    0    0    0  0.00000000000E+00  0.00000000000E+00  0.11636014235E+04  0.11636014235E+04  0.00000000000E+00 0. -1.
         22   -1    0    0    0    0 -0.00000000000E+00 -0.00000000000E+00 -0.40628025566E+03  0.40628025566E+03  0.00000000000E+00 0. -1.
        -24    2    1    2    0    0 -0.84890805254E+02  0.14012913534E+03 -0.16803448887E+03  0.25186974201E+03  0.91433878318E+02 0.  0.
         25    2    1    2    0    0  0.14689933469E+03 -0.16832494514E+03 -0.10902725840E+03  0.27829748928E+03  0.12509935164E+03 0.  0.
         24    2    1    2    0    0 -0.62008529437E+02  0.28195809799E+02  0.10343829152E+04  0.10397144479E+04  0.80112774214E+02 0.  0.
        -11    1    5    5    0    0 -0.13460634057E+02 -0.27828163768E+02  0.32678797555E+03  0.32824682227E+03  0.00000000000E+00 0.  1.
         12    1    5    5    0    0 -0.48547895380E+02  0.56023973567E+02  0.70759493961E+03  0.71146762563E+03  0.00000000000E+00 0. -1.
         11    1    3    3    0    0 -0.75521195495E+02  0.15351711316E+03 -0.14998997618E+03  0.22752570834E+03  0.00000000000E+00 0. -1.
        -12    1    3    3    0    0 -0.93696097590E+01 -0.13387977820E+02 -0.18044512698E+02  0.24344033677E+02  0.00000000000E+00 0.  1.
          5    1    4    4  501    0  0.15098332735E+03 -0.17545527438E+03 -0.12253735233E+03  0.26194158426E+03  0.41800000000E+01 0.  1.
         -5    1    4    4    0  501 -0.40839926634E+01  0.71303292449E+01  0.13510093932E+02  0.16355905027E+02  0.41800000000E+01 0.  1.
</event>
<event>
11    1  0.1003949E-008  0.1874579E+03  0.7561462E-02  0.1063765E+00
         22   -1    0    0    0    0  0.00000000000E+00  0.00000000000E+00  0.13554189767E+04  0.13554189767E+04  0.00000000000E+00 0. -1.
         22   -1    0    0    0    0 -0.00000000000E+00 -0.00000000000E+00 -0.48005890568E+03  0.48005890568E+03  0.00000000000E+00 0.  1.
         24    2    1    2    0    0 -0.13021492890E+03  0.90799227478E+02 -0.30981628329E+03  0.35735446146E+03  0.80719603048E+02 0.  0.
         25    2    1    2    0    0  0.76621104248E+02 -0.69658187232E+02 -0.98962255253E+02  0.19016990316E+03  0.12509199591E+03 0.  0.
        -24    2    1    2    0    0  0.53593824654E+02 -0.21141040246E+02  0.12841386096E+04  0.12879535178E+04  0.80579486885E+02 0.  0.
        -13    1    3    3    0    0 -0.12954602647E+03  0.79762280043E+02 -0.22368594246E+03  0.27051727328E+03  0.00000000000E+00 0.  1.
         14    1    3    3    0    0 -0.66890243363E+00  0.11036947435E+02 -0.86130340828E+02  0.86837188176E+02  0.00000000000E+00 0. -1.
         11    1    5    5    0    0  0.44344057683E+02 -0.29798440509E+02  0.38116380084E+03  0.38488983564E+03  0.00000000000E+00 0. -1.
        -12    1    5    5    0    0  0.92497669716E+01  0.86574002625E+01  0.90297480873E+03  0.90306368212E+03  0.00000000000E+00 0.  1.
          5    1    4    4  501    0  0.95274303795E+02 -0.30952841063E+02 -0.10658654148E+03  0.14633329956E+03  0.41800000000E+01 0.  1.
         -5    1    4    4    0  501 -0.18653199547E+02 -0.38705346169E+02  0.76242862297E+01  0.43836603608E+02  0.41800000000E+01 0.  1.
</event>
<event>
11    1  0.1003949E-008  0.1868263E+04  0.7561462E-02  0.8123233E-01
         22   -1    0    0    0    0  0.00000000000E+00  0.00000000000E+00  0.16943264156E+04  0.16943264156E+04  0.00000000000E+00 0. -1.
         22   -1    0    0    0    0 -0.00000000000E+00 -0.00000000000E+00 -0.20579840357E+04  0.20579840357E+04  0.00000000000E+00 0. -1.
        -24    2    1    2    0    0  0.13535500051E+03  0.18981651737E+03 -0.10403427543E+03  0.26807132529E+03  0.81779083799E+02 0.  0.
         25    2    1    2    0    0 -0.27329272524E+03  0.15913291922E+04 -0.46318529429E+03  0.16844003792E+04  0.12508600625E+03 0.  0.
         24    2    1    2    0    0  0.13793772474E+03 -0.17811457096E+04  0.20356194956E+03  0.17998387468E+04  0.80468581876E+02 0.  0.
        -11    1    5    5    0    0  0.50248580857E+02 -0.72043006767E+03  0.42971795659E+02  0.72345765426E+03  0.00000000000E+00 0.  1.
         12    1    5    5    0    0  0.87689143881E+02 -0.10607156419E+04  0.16059015390E+03  0.10763810926E+04  0.00000000000E+00 0. -1.
         13    1    3    3    0    0  0.79585344575E+02  0.16800344363E+03 -0.90117414290E+02  0.20659170482E+03  0.00000000000E+00 0. -1.
        -14    1    3    3    0    0  0.55769655930E+02  0.21813073748E+02 -0.13916861135E+02  0.61479620467E+02  0.00000000000E+00 0.  1.
          5    1    4    4  501    0 -0.62673244632E+02  0.69339459877E+03 -0.22731818720E+03  0.73240360173E+03  0.41800000000E+01 0.  1.
         -5    1    4    4    0  501 -0.21061948061E+03  0.89793459342E+03 -0.23586710709E+03  0.95199677746E+03  0.41800000000E+01 0.  1.
</event>
<event>
11    1  0.1003949E-008  0.1430725E+03  0.7561462E-02  0.1104175E+00
         22   -1    0    0    0    0  0.00000000000E+00  0.00000000000E+00  0.17993735526E+03  0.17993735526E+03  0.00000000000E+00 0. -1.
         22   -1    0    0    0    0 -0.00000000000E+00 -0.00000000000E+00 -0.32732436599E+03  0.32732436599E+03  0.00000000000E+00 0. -1.
         24    2    1    2    0    0  0.18063779261E+02 -0.42084263115E+02 -0.19658908409E+03  0.21716942963E+03  0.80111845931E+02 0.  0.
         25    2    1    2    0    0 -0.73960544653E+02 -0.25489254972E+01 -0.34290808687E+02  0.14933235014E+03  0.12509049544E+03 0.  0.
        -24    2    1    2    0    0  0.55896765392E+02  0.44633188612E+02  0.83492882045E+02  0.14075994149E+03  0.87896131133E+02 0.  0.
        -13    1    3    3    0    0  0.65666498916E+01  0.22908386901E+02 -0.32476498374E+02  0.40281981429E+02  0.00000000000E+00 0.  1.
         14    1    3    3    0    0  0.11497129369E+02 -0.64992650016E+02 -0.16411258572E+03  0.17688744820E+03  0.00000000000E+00 0. -1.
         13    1    5    5    0    0  0.74824794506E+02  0.28498512493E+02  0.37372718634E+02  0.88360823815E+02  0.00000000000E+00 0. -1.
        -14    1    5    5    0    0 -0.18928029114E+02  0.16134676119E+02  0.46120163412E+02  0.52399117671E+02  0.00000000000E+00 0.  1.
          5    1    4    4  501    0 -0.83973254412E+02 -0.28290628629E+02 -0.63362589684E+02  0.10901448205E+03  0.41800000000E+01 0.  1.
         -5    1    4    4    0  501  0.10012709759E+02  0.25741703131E+02  0.29071780997E+02  0.40317868088E+02  0.41800000000E+01 0.  1.
</event>
<event>
11    1  0.1003949E-008  0.1699105E+03  0.7561462E-02  0.1078110E+00
         22   -1    0    0    0    0  0.00000000000E+00  0.00000000000E+00  0.14049375167E+04  0.14049375167E+04  0.00000000000E+00 0. -1.
         22   -1    0    0    0    0 -0.00000000000E+00 -0.00000000000E+00 -0.23627950727E+04  0.23627950727E+04  0.00000000000E+00 0. -1.
         24    2    1    2    0    0 -0.17320689349E+02 -0.11398443941E+03 -0.23459103220E+04  0.23501592151E+04  0.81612736822E+02 0.  0.
         25    2    1    2    0    0  0.23847858813E+02  0.56642408381E+02  0.37473242209E+03  0.39981067939E+03  0.12508840229E+03 0.  0.
        -24    2    1    2    0    0 -0.65271694648E+01  0.57342031027E+02  0.10133203438E+04  0.10177626949E+04  0.75445817844E+02 0.  0.
        -11    1    3    3    0    0  0.27630119436E+02 -0.71276432657E+02 -0.10586239758E+04  0.10613804575E+04  0.00000000000E+00 0.  1.
         12    1    3    3    0    0 -0.44950808784E+02 -0.42708006750E+02 -0.12872863462E+04  0.12887787576E+04  0.00000000000E+00 0. -1.
         11    1    5    5    0    0  0.75093341973E+01  0.47982951691E+02  0.97085349526E+03  0.97206751978E+03  0.00000000000E+00 0. -1.
        -12    1    5    5    0    0 -0.14036503662E+02  0.93590793359E+01  0.42466848580E+02  0.45695175121E+02  0.00000000000E+00 0.  1.
          5    1    4    4  501    0 -0.15716405095E+02  0.68198172158E+02  0.10092894206E+03  0.12289068239E+03  0.41800000000E+01 0.  1.
         -5    1    4    4    0  501  0.39564263909E+02 -0.11555763778E+02  0.27380348003E+03  0.27691999699E+03  0.41800000000E+01 0.  1.
</event>
<event>
11    1  0.1003949E-008  0.1646189E+03  0.7561462E-02  0.1082812E+00
         22   -1    0    0    0    0  0.00000000000E+00  0.00000000000E+00  0.31682706426E+03  0.31682706426E+03  0.00000000000E+00 0.  1.
         22   -1    0    0    0    0 -0.00000000000E+00 -0.00000000000E+00 -0.80542821593E+03  0.80542821593E+03  0.00000000000E+00 0. -1.
        -24    2    1    2    0    0  0.80538763114E+00 -0.52401850507E+02 -0.61796531393E+03  0.62548542533E+03  0.81266755140E+02 0.  0.
         25    2    1    2    0    0  0.83605904396E+02 -0.18141856227E+02 -0.13288477401E+03  0.20156490707E+03  0.12510385446E+03 0.  0.
         24    2    1    2    0    0 -0.84411292027E+02  0.70543706734E+02  0.26224893627E+03  0.29520494779E+03  0.79181916173E+02 0.  0.
        -11    1    5    5    0    0 -0.82430030273E+02  0.59349671448E+02  0.14292945270E+03  0.17534515061E+03  0.00000000000E+00 0.  1.
         12    1    5    5    0    0 -0.19812617539E+01  0.11194035285E+02  0.11931948356E+03  0.11985979719E+03  0.00000000000E+00 0. -1.
         13    1    3    3    0    0 -0.19677348336E+02 -0.67542110156E+02 -0.41381484001E+03  0.41975213698E+03  0.00000000000E+00 0. -1.
        -14    1    3    3    0    0  0.20482735968E+02  0.15140259650E+02 -0.20415047391E+03  0.20573328835E+03  0.00000000000E+00 0.  1.
          5    1    4    4  501    0  0.62788522329E+02  0.49442954327E+02 -0.80033204536E+02  0.11318034501E+03  0.41800000000E+01 0. -1.
         -5    1    4    4    0  501  0.20817382067E+02 -0.67584810554E+02 -0.52851569475E+02  0.88384562055E+02  0.41800000000E+01 0. -1.
</event>
<event>
11    1  0.1003949E-008  0.2805280E+03  0.7561462E-02  0.1008786E+00
         22   -1    0    0    0    0  0.00000000000E+00  0.00000000000E+00  0.37457739596E+03  0.37457739596E+03  0.00000000000E+00 0. -1.
         22   -1    0    0    0    0 -0.00000000000E+00 -0.00000000000E+00 -0.44260438842E+03  0.44260438842E+03  0.00000000000E+00 0.  1.
         24    2    1    2    0    0 -0.98601506135E+01  0.25795201519E+02 -0.80279347976E+02  0.11644263089E+03  0.79696283379E+02 0.  0.
         25    2    1    2    0    0  0.10988826767E+03  0.20826250152E+03 -0.22160632578E+03  0.34670666165E+03  0.12508974655E+03 0.  0.
        -24    2    1    2    0    0 -0.10002811706E+03 -0.23405770304E+03  0.23385868130E+03  0.35403249185E+03  0.76553836712E+02 0.  0.
        -11    1    3    3    0    0 -0.37119441519E+02  0.10532159537E+02 -0.10498546676E+02  0.39987483110E+02  0.00000000000E+00 0.  1.
         12    1    3    3    0    0  0.27259290905E+02  0.15263041982E+02 -0.69780801300E+02  0.76455147775E+02  0.00000000000E+00 0. -1.
         13    1    5    5    0    0 -0.10910784921E+03 -0.17765175148E+03  0.17803381094E+03  0.27415452832E+03  0.00000000000E+00 0. -1.
        -14    1    5    5    0    0  0.90797321480E+01 -0.56405951559E+02  0.55824870361E+02  0.79877963532E+02  0.00000000000E+00 0.  1.
          5    1    4    4  501    0  0.13441891060E+03  0.15061628827E+03 -0.15043078775E+03  0.25179476587E+03  0.41800000000E+01 0.  1.
         -5    1    4    4    0  501 -0.24530642929E+02  0.57646213248E+02 -0.71175538037E+02  0.94911895773E+02  0.41800000000E+01 0.  1.
</event>
<event>
11    1  0.1003949E-008  0.1644646E+03  0.7561462E-02  0.1082952E+00
         22   -1    0    0    0    0  0.00000000000E+00  0.00000000000E+00  0.22498644967E+03  0.22498644967E+03  0.00000000000E+00 0.  1.
         22   -1    0    0    0    0 -0.00000000000E+00 -0.00000000000E+00 -0.95464402272E+03  0.95464402272E+03  0.00000000000E+00 0. -1.
         24    2    1    2    0    0 -0.11587686741E+03  0.96013367637E+00 -0.80662427385E+03  0.81874504437E+03  0.79198221404E+02 0.  0.
         25    2    1    2    0    0  0.51970648140E+02  0.15241291568E+02 -0.90760198291E+02  0.16375661175E+03  0.12508224918E+03 0.  0.
        -24    2    1    2    0    0  0.63906219265E+02 -0.16201425244E+02  0.16772689909E+03  0.19712881627E+03  0.79880951957E+02 0.  0.
        -13    1    3    3    0    0 -0.66667269973E+02 -0.35157136871E+02 -0.34741082338E+03  0.35549237595E+03  0.00000000000E+00 0.  1.
         14    1    3    3    0    0 -0.49209597432E+02  0.36117270547E+02 -0.45921345047E+03  0.46325266842E+03  0.00000000000E+00 0. -1.
         11    1    5    5    0    0 -0.37851103186E+00  0.19243126200E+02  0.70863521118E+01  0.20509938147E+02  0.00000000000E+00 0. -1.
        -12    1    5    5    0    0  0.64284730297E+02 -0.35444551444E+02  0.16064054698E+03  0.17661887812E+03  0.00000000000E+00 0.  1.
          5    1    4    4  501    0  0.73414056506E+02 -0.24970913759E+02 -0.88778204277E+02  0.11795004104E+03  0.41800000000E+01 0. -1.
         -5    1    4    4    0  501 -0.21443408366E+02  0.40212205326E+02 -0.19819940140E+01  0.45806570706E+02  0.41800000000E+01 0. -1.
</event>
<event>
11    1  0.1379118E-008  0.9338215E+03  0.7561462E-02  0.8744639E-01
         22   -1    0    0    0    0  0.00000000000E+00  0.00000000000E+00  0.24221360389E+04  0.24221360389E+04  0.00000000000E+00 0.  1.
         22   -1    0    0    0    0 -0.00000000000E+00 -0.00000000000E+00 -0.12275868558E+04  0.12275868558E+04  0.00000000000E+00 0.  1.
        -24    2    1    2    0    0  0.10192139243E+03 -0.93367750369E+02  0.11513796924E+02  0.16045265501E+03  0.80665853584E+02 0.  0.
         25    2    1    2    0    0  0.15947790851E+03  0.97546587758E+03 -0.81575144808E+03  0.12876587854E+04  0.12509133077E+03 0.  0.
         24    2    1    2    0    0 -0.26139930094E+03 -0.88209812721E+03  0.19987868343E+04  0.22016114543E+04  0.74279783162E+02 0.  0.
        -11    1    5    5    0    0 -0.13454802967E+03 -0.57911282166E+03  0.12849985853E+04  0.14158729451E+04  0.00000000000E+00 0.  1.
         12    1    5    5    0    0 -0.12685127127E+03 -0.30298530555E+03  0.71378824900E+03  0.78573850918E+03  0.00000000000E+00 0. -1.
         11    1    3    3    0    0  0.35512607173E+02 -0.62217116900E+02 -0.28260097457E+02  0.77011349890E+02  0.00000000000E+00 0. -1.
        -12    1    3    3    0    0  0.66408785262E+02 -0.31150633469E+02  0.39773894381E+02  0.83441305117E+02  0.00000000000E+00 0.  1.
          5    1    4    4  501    0  0.12367639285E+03  0.89996730571E+03 -0.77724832410E+03  0.11955623912E+04  0.41800000000E+01 0.  1.
         -5    1    4    4    0  501  0.35801515654E+02  0.75498571863E+02 -0.38503123977E+02  0.92096394242E+02  0.41800000000E+01 0.  1.
</event>
<event>
11    1  0.1003949E-008  0.1693561E+03  0.7561462E-02  0.1078593E+00
         22   -1    0    0    0    0  0.00000000000E+00  0.00000000000E+00  0.52268858140E+02  0.52268858140E+02  0.00000000000E+00 0.  1.
         22   -1    0    0    0    0 -0.00000000000E+00 -0.00000000000E+00 -0.34516329364E+04  0.34516329364E+04  0.00000000000E+00 0. -1.
        -24    2    1    2    0    0 -0.10719113943E+03 -0.15694385855E+02 -0.21559363562E+04  0.21602351460E+04  0.82571544985E+02 0.  0.
         25    2    1    2    0    0  0.14165562817E+03 -0.71424878020E+02 -0.11942249912E+04  0.12111923685E+04  0.12508314727E+03 0.  0.
         24    2    1    2    0    0 -0.34464488739E+02  0.87119263875E+02 -0.49202730823E+02  0.13247427996E+03  0.79692904385E+02 0.  0.
        -13    1    5    5    0    0 -0.51819076527E+02  0.38028444673E+02 -0.48295962099E+02  0.80398254033E+02  0.00000000000E+00 0.  1.
         14    1    5    5    0    0  0.17354587788E+02  0.49090819202E+02 -0.90676872326E+00  0.52076025931E+02  0.00000000000E+00 0. -1.
         11    1    3    3    0    0 -0.47665373864E+02  0.20531553294E+02 -0.14352063447E+04  0.14361444162E+04  0.00000000000E+00 0. -1.
        -12    1    3    3    0    0 -0.59525765570E+02 -0.36225939148E+02 -0.72073001155E+03  0.72409072980E+03  0.00000000000E+00 0.  1.
          5    1    4    4  501    0  0.12872151179E+03 -0.37669193728E+02 -0.55722752859E+03  0.57315633711E+03  0.41800000000E+01 0. -1.
         -5    1    4    4    0  501  0.12934116387E+02 -0.33755684292E+02 -0.63699746258E+03  0.63803603137E+03  0.41800000000E+01 0. -1.
</event>
<event>
11    1  0.1003949E-008  0.1317302E+03  0.7561462E-02  0.1117161E+00
         22   -1    0    0    0    0  0.00000000000E+00  0.00000000000E+00  0.16316016754E+04  0.16316016754E+04  0.00000000000E+00 0. -1.
         22   -1    0    0    0    0 -0.00000000000E+00 -0.00000000000E+00 -0.93380922911E+02  0.93380922911E+02  0.00000000000E+00 0.  1.
        -24    2    1    2    0    0 -0.12808463142E+02 -0.62299939243E+01 -0.41678263248E+02  0.92691513722E+02  0.81558381153E+02 0.  0.
         25    2    1    2    0    0 -0.58281318761E+00  0.45181738782E+02  0.15416601291E+03  0.20360873944E+03  0.12509048745E+03 0.  0.
         24    2    1    2    0    0  0.13391276330E+02 -0.38951744858E+02  0.14257330028E+04  0.14286823451E+04  0.81988311785E+02 0.  0.
        -11    1    5    5    0    0  0.28122209633E+02 -0.31667242236E+02  0.31574761835E+03  0.31857531512E+03  0.00000000000E+00 0.  1.
         12    1    5    5    0    0 -0.14730933303E+02 -0.72845026222E+01  0.11099853845E+04  0.11101070300E+04  0.00000000000E+00 0. -1.
         13    1    3    3    0    0 -0.64917216151E+01 -0.18082824643E+02  0.21074336628E+02  0.28517690315E+02  0.00000000000E+00 0. -1.
        -14    1    3    3    0    0 -0.63167415272E+01  0.11852830719E+02 -0.62752599875E+02  0.64173823407E+02  0.00000000000E+00 0.  1.
          5    1    4    4  501    0 -0.31813246326E+02  0.77252165047E+02  0.73944745506E+02  0.11164800685E+03  0.41800000000E+01 0.  1.
         -5    1    4    4    0  501  0.31230433138E+02 -0.32070426265E+02  0.80221267400E+02  0.91960732588E+02  0.41800000000E+01 0.  1.
</event>
<event>
11    1  0.1003949E-008  0.1867707E+03  0.7561462E-02  0.1064294E+00
         22   -1    0    0    0    0  0.00000000000E+00  0.00000000000E+00  0.15679599572E+03  0.15679599572E+03  0.00000000000E+00 0.  1.
         22   -1    0    0    0    0 -0.00000000000E+00 -0.00000000000E+00 -0.11690492224E+04  0.11690492224E+04  0.00000000000E+00 0.  1.
         24    2    1    2    0    0 -0.78549104829E+02  0.11347174435E+02 -0.90263271083E+03  0.90956898941E+03  0.79191007032E+02 0.  0.
         25    2    1    2    0    0 -0.34544693377E+02  0.92907964471E+02 -0.16877648330E+03  0.23229002841E+03  0.12509168749E+03 0.  0.
        -24    2    1    2    0    0  0.11309379821E+03 -0.10425513891E+03  0.59155967474E+02  0.18398620028E+03  0.81805575755E+02 0.  0.
        -13    1    3    3    0    0 -0.54898869171E+02  0.72731742570E+01 -0.84909004251E+03  0.85089405051E+03  0.00000000000E+00 0.  1.
         14    1    3    3    0    0 -0.23650235658E+02  0.40740001779E+01 -0.53542668325E+02  0.58674938905E+02  0.00000000000E+00 0. -1.
         11    1    5    5    0    0  0.50037361868E+02 -0.46490016676E+02 -0.15986538145E+02  0.70147192639E+02  0.00000000000E+00 0. -1.
        -12    1    5    5    0    0  0.63056436338E+02 -0.57765122230E+02  0.75142505620E+02  0.11383900764E+03  0.00000000000E+00 0.  1.
          5    1    4    4  501    0 -0.29684696426E+02 -0.50126669557E+01 -0.11790102618E+03  0.12175562577E+03  0.41800000000E+01 0. -1.
         -5    1    4    4    0  501 -0.48599969518E+01  0.97920631427E+02 -0.50875457120E+02  0.11053440264E+03  0.41800000000E+01 0. -1.
</event>
<event>
11    1  0.1003949E-008  0.1620385E+03  0.7561462E-02  0.1085176E+00
         22   -1    0    0    0    0  0.00000000000E+00  0.00000000000E+00  0.12307895504E+03  0.12307895504E+03  0.00000000000E+00 0. -1.
         22   -1    0    0    0    0 -0.00000000000E+00 -0.00000000000E+00 -0.19865322162E+04  0.19865322162E+04  0.00000000000E+00 0. -1.
        -24    2    1    2    0    0 -0.93320217565E+02 -0.52771730267E+02 -0.17913153835E+04  0.17964426060E+04  0.83076561095E+02 0.  0.
         25    2    1    2    0    0 -0.80385701727E+01  0.82431107034E+02 -0.94934576811E+02  0.17753759769E+03  0.12509004238E+03 0.  0.
         24    2    1    2    0    0  0.10135878774E+03 -0.29659376767E+02  0.22796699214E+02  0.13563096748E+03  0.81992605534E+02 0.  0.
        -13    1    5    5    0    0  0.94871532297E+02  0.79973955016E+01  0.20228858095E+02  0.97333307121E+02  0.00000000000E+00 0.  1.
         14    1    5    5    0    0  0.64872554400E+01 -0.37656772269E+02  0.25678411193E+01  0.38297660358E+02  0.00000000000E+00 0. -1.
         13    1    3    3    0    0 -0.38235088427E+02 -0.54409133023E+02 -0.13594056130E+04  0.13610311886E+04  0.00000000000E+00 0. -1.
        -14    1    3    3    0    0 -0.55085129137E+02  0.16374027555E+01 -0.43190977056E+03  0.43541141745E+03  0.00000000000E+00 0.  1.
          5    1    4    4  501    0 -0.46194690305E+02  0.88323968119E+02 -0.34224794124E+02  0.10546981412E+03  0.41800000000E+01 0. -1.
         -5    1    4    4    0  501  0.38156120132E+02 -0.58928610846E+01 -0.60709782687E+02  0.72067783574E+02  0.41800000000E+01 0. -1.
</event>
<event>
11    1  0.1003949E-008  0.1708295E+03  0.7561462E-02  0.1077312E+00
         22   -1    0    0    0    0  0.00000000000E+00  0.00000000000E+00  0.99628080664E+02  0.99628080664E+02  0.00000000000E+00 0. -1.
         22   -1    0    0    0    0 -0.00000000000E+00 -0.00000000000E+00 -0.10649137566E+04  0.10649137566E+04  0.00000000000E+00 0.  1.
         24    2    1    2    0    0 -0.89265938521E+02 -0.78297211259E+02 -0.87809874308E+03  0.88990943783E+03  0.82356201172E+02 0.  0.
         25    2    1    2    0    0  0.92413014473E+02  0.41888048507E+02 -0.93248353492E+02  0.18610971198E+03  0.12508715207E+03 0.  0.
        -24    2    1    2    0    0 -0.31470759522E+01  0.36409162752E+02  0.60614206536E+01  0.88522687434E+02  0.80398968593E+02 0.  0.
        -11    1    3    3    0    0 -0.62828999644E+02 -0.78218675155E+02 -0.81955704523E+03  0.82567511451E+03  0.00000000000E+00 0.  1.
         12    1    3    3    0    0 -0.26436938876E+02 -0.78536104313E-01 -0.58541697853E+02  0.64234323321E+02  0.00000000000E+00 0. -1.
         11    1    5    5    0    0 -0.15654524906E+02 -0.30709065220E+01  0.34686257348E+02  0.38178934842E+02  0.00000000000E+00 0. -1.
        -12    1    5    5    0    0  0.12507448954E+02  0.39480069274E+02 -0.28624836694E+02  0.50343752591E+02  0.00000000000E+00 0.  1.
          5    1    4    4  501    0  0.14373793325E+02  0.66641659773E+00  0.30543001877E+02  0.34020543930E+02  0.41800000000E+01 0. -1.
         -5    1    4    4    0  501  0.78039221148E+02  0.41221631909E+02 -0.12379135537E+03  0.15208916805E+03  0.41800000000E+01 0. -1.
</event>
<event>
11    1  0.1003949E-008  0.1365024E+03  0.7561462E-02  0.1111528E+00
         22   -1    0    0    0    0  0.00000000000E+00  0.00000000000E+00  0.11918286859E+04  0.11918286859E+04  0.00000000000E+00 0. -1.
         22   -1    0    0    0    0 -0.00000000000E+00 -0.00000000000E+00 -0.24185065792E+03  0.24185065792E+03  0.00000000000E+00 0. -1.
        -24    2    1    2    0    0 -0.31898602494E+02  0.64931576145E+01 -0.21618157209E+03  0.23261158161E+03  0.79460643390E+02 0.  0.
         25    2    1    2    0    0 -0.74932680620E+01 -0.47976202387E+02  0.29216330226E+03  0.32150502853E+03  0.12509285800E+03 0.  0.
         24    2    1    2    0    0  0.39391870556E+02  0.41483044773E+02  0.87399629785E+03  0.87956273371E+03  0.80551296717E+02 0.  0.
        -11    1    5    5    0    0  0.58254742879E+02  0.32609449150E+02  0.43705820589E+03  0.44212765868E+03  0.00000000000E+00 0.  1.
         12    1    5    5    0    0 -0.18862872322E+02  0.88735956231E+01  0.43693809196E+03  0.43743507502E+03  0.00000000000E+00 0. -1.
         11    1    3    3    0    0 -0.34816218813E+02 -0.25746196867E+02 -0.17474136445E+03  0.18002660968E+03  0.00000000000E+00 0. -1.
        -12    1    3    3    0    0  0.29176163186E+01  0.32239354482E+02 -0.41440207648E+02  0.52584971925E+02  0.00000000000E+00 0.  1.
          5    1    4    4  501    0  0.40862926610E+02 -0.37140353499E+02  0.25073812095E+03  0.25678057233E+03  0.41800000000E+01 0. -1.
         -5    1    4    4    0  501 -0.48356194672E+02 -0.10835848888E+02  0.41425181316E+02  0.64724456207E+02  0.41800000000E+01 0. -1.
</event>
<event>
11    1  0.1003949E-008  0.1680845E+03  0.7561462E-02  0.1079711E+00
         22   -1    0    0    0    0  0.00000000000E+00  0.00000000000E+00  0.26121101814E+03  0.26121101814E+03  0.00000000000E+00 0. -1.
         22   -1    0    0    0    0 -0.00000000000E+00 -0.00000000000E+00 -0.64594922111E+03  0.64594922111E+03  0.00000000000E+00 0.  1.
         24    2    1    2    0    0  0.11045580826E+03 -0.24404573885E+02 -0.53897178862E+03  0.55721502001E+03  0.84864131368E+02 0.  0.
         25    2    1    2    0    0 -0.10895906336E+03 -0.82087770106E+01 -0.76205468739E+01  0.16625524220E+03  0.12507306391E+03 0.  0.
        -24    2    1    2    0    0 -0.14967448932E+01  0.32613350895E+02  0.16185413252E+03  0.18368997704E+03  0.80494574650E+02 0.  0.
        -13    1    3    3    0    0  0.22270184191E+02  0.16048213521E+00 -0.30740021667E+03  0.30820590531E+03  0.00000000000E+00 0.  1.
         14    1    3    3    0    0  0.88185624066E+02 -0.24565056020E+02 -0.23157157195E+03  0.24900911470E+03  0.00000000000E+00 0. -1.
         11    1    5    5    0    0  0.11004610068E+02  0.16338188220E+02  0.16197388366E+03  0.16316732769E+03  0.00000000000E+00 0. -1.
        -12    1    5    5    0    0 -0.12501354961E+02  0.16275162675E+02 -0.11975113931E+00  0.20522649349E+02  0.00000000000E+00 0.  1.
          5    1    4    4  501    0  0.87086650033E+01  0.22881251692E+02  0.29861093941E+02  0.38840054795E+02  0.41800000000E+01 0.  1.
         -5    1    4    4    0  501 -0.11766772837E+03 -0.31090028702E+02 -0.37481640815E+02  0.12741518741E+03  0.41800000000E+01 0.  1.
</event>
<event>
11    1  0.1003949E-008  0.1750953E+03  0.7561462E-02  0.1073681E+00
         22   -1    0    0    0    0  0.00000000000E+00  0.00000000000E+00  0.22784918204E+04  0.22784918204E+04  0.00000000000E+00 0. -1.
         22   -1    0    0    0    0 -0.00000000000E+00 -0.00000000000E+00 -0.62248201956E+02  0.62248201956E+02  0.00000000000E+00 0.  1.
         24    2    1    2    0    0  0.90956194616E+02  0.56751546191E+02  0.85499869753E+02  0.15888432241E+03  0.80251061333E+02 0.  0.
         25    2    1    2    0    0 -0.17663094048E+03 -0.86152879837E+02  0.56136580385E+03  0.60778307176E+03  0.12509152147E+03 0.  0.
        -24    2    1    2    0    0  0.85674745866E+02  0.29401333646E+02  0.15693779448E+04  0.15740726282E+04  0.80950012786E+02 0.  0.
        -11    1    3    3    0    0  0.50421049331E+02 -0.38174098231E+01  0.58184302529E+01  0.50899007495E+02  0.00000000000E+00 0.  1.
         12    1    3    3    0    0  0.40535145285E+02  0.60568956014E+02  0.79681439500E+02  0.10798531491E+03  0.00000000000E+00 0. -1.
         11    1    5    5    0    0  0.98405876859E+02  0.12472137399E+02  0.13652077452E+04  0.13688065818E+04  0.00000000000E+00 0. -1.
        -12    1    5    5    0    0 -0.12731130993E+02  0.16929196247E+02  0.20417019968E+03  0.20526604643E+03  0.00000000000E+00 0.  1.
          5    1    4    4  501    0  0.82027504388E+00  0.15728795552E+02  0.87706149502E+01  0.18505781455E+02  0.41800000000E+01 0. -1.
         -5    1    4    4    0  501 -0.17745121553E+03 -0.10188167539E+03  0.55259518890E+03  0.58927729031E+03  0.41800000000E+01 0. -1.
</event>
<event>
11    1  0.1003949E-008  0.1369623E+03  0.7561462E-02  0.1110999E+00
         22   -1    0    0    0    0  0.00000000000E+00  0.00000000000E+00  0.27524496028E+04  0.27524496028E+04  0.00000000000E+00 0. -1.
         22   -1    0    0    0    0 -0.00000000000E+00 -0.00000000000E+00 -0.43320584079E+03  0.43320584079E+03  0.00000000000E+00 0. -1.
         24    2    1    2    0    0 -0.50458353770E+02  0.23869520706E+02 -0.41716845050E+03  0.43246679888E+03  0.99409338342E+02 0.  0.
         25    2    1    2    0    0  0.28701681672E+02 -0.65362211397E+02  0.69878035753E+03  0.71346682491E+03  0.12507964252E+03 0.  0.
        -24    2    1    2    0    0  0.21756672098E+02  0.41492690691E+02  0.20376318550E+04  0.20397218198E+04  0.79539484205E+02 0.  0.
        -11    1    3    3    0    0 -0.53391343723E+02  0.67716312750E+00 -0.91349793602E+02  0.10581058040E+03  0.00000000000E+00 0.  1.
         12    1    3    3    0    0  0.29329899526E+01  0.23192357578E+02 -0.32581865690E+03  0.32665621847E+03  0.00000000000E+00 0. -1.
         11    1    5    5    0    0  0.13955934542E+02  0.14567041969E+02  0.18401150491E+04  0.18402256276E+04  0.00000000000E+00 0. -1.
        -12    1    5    5    0    0  0.78007375559E+01  0.26925648722E+02  0.19751680598E+03  0.19949619222E+03  0.00000000000E+00 0.  1.
          5    1    4    4  501    0  0.43836582792E+02  0.11807635528E+02  0.45508630103E+03  0.45736427499E+03  0.41800000000E+01 0.  1.
         -5    1    4    4    0  501 -0.15134901120E+02 -0.77169846925E+02  0.24369405650E+03  0.25610254993E+03  0.41800000000E+01 0.  1.
</event>
<event>
11    1  0.1003949E-008  0.1803831E+03  0.7561462E-02  0.1069333E+00
         22   -1    0    0    0    0  0.00000000000E+00  0.00000000000E+00  0.10619410885E+04  0.10619410885E+04  0.00000000000E+00 0. -1.
         22   -1    0    0    0    0 -0.00000000000E+00 -0.00000000000E+00 -0.89252864087E+02  0.89252864087E+02  0.00000000000E+00 0. -1.
        -24    2    1    2    0    0 -0.81043693596E+02 -0.91726441976E+02  0.40566710686E+02  0.15269736599E+03  0.81786350535E+02 0.  0.
         25    2    1    2    0    0  0.83338841697E+02  0.13423657115E+03  0.30950659415E+03  0.36934501807E+03  0.12512630011E+03 0.  0.
         24    2    1    2    0    0 -0.22951481015E+01 -0.42510129170E+02  0.62261491955E+03  0.62915156851E+03  0.79812150218E+02 0.  0.
        -11    1    5    5    0    0  0.22932897754E+01  0.22725458930E+02  0.10733853018E+03  0.10974181392E+03  0.00000000000E+00 0.  1.
         12    1    5    5    0    0 -0.45884378769E+01 -0.65235588100E+02  0.51527638937E+03  0.51940975459E+03  0.00000000000E+00 0. -1.
         13    1    3    3    0    0 -0.83105674285E+02 -0.65860182409E+02  0.18069527078E+01  0.10605367416E+03  0.00000000000E+00 0. -1.
        -14    1    3    3    0    0  0.20619806893E+01 -0.25866259567E+02  0.38759757978E+02  0.46643691823E+02  0.00000000000E+00 0.  1.
          5    1    4    4  501    0 -0.99826979424E+01 -0.19058213598E+02  0.29914330595E+02  0.37083815051E+02  0.41800000000E+01 0. -1.
         -5    1    4    4    0  501  0.93321539640E+02  0.15329478474E+03  0.27959226355E+03  0.33226120302E+03  0.41800000000E+01 0. -1.
</event>
<event>
11    1  0.1003949E-008  0.1377866E+03  0.7561462E-02  0.1110056E+00
         22   -1    0    0    0    0  0.00000000000E+00  0.00000000000E+00  0.12007927149E+04  0.12007927149E+04  0.00000000000E+00 0. -1.
         22   -1    0    0    0    0 -0.00000000000E+00 -0.00000000000E+00 -0.17308403900E+03  0.17308403900E+03  0.00000000000E+00 0.  1.
        -24    2    1    2    0    0  0.73760051805E+01  0.58516730787E+02 -0.13167899347E+03  0.17466138784E+03  0.98430837871E+02 0.  0.
         25    2    1    2    0    0 -0.97329088463E+00 -0.44363986740E+02  0.22451385958E+03  0.26081209534E+03  0.12508942927E+03 0.  0.
         24    2    1    2    0    0 -0.64027142959E+01 -0.14152744047E+02  0.93487380978E+03  0.93840327071E+03  0.79814556108E+02 0.  0.
        -13    1    5    5    0    0  0.17574270288E+02  0.12794237153E+02  0.84062242398E+02  0.86827461540E+02  0.00000000000E+00 0.  1.
         14    1    5    5    0    0 -0.23976984584E+02 -0.26946981200E+02  0.85081156738E+03  0.85157580917E+03  0.00000000000E+00 0. -1.
         11    1    3    3    0    0  0.66177571945E+01 -0.21395368966E+02 -0.70629792910E+02  0.74095372123E+02  0.00000000000E+00 0. -1.
        -12    1    3    3    0    0  0.75824798606E+00  0.79912099753E+02 -0.61049200563E+02  0.10056601571E+03  0.00000000000E+00 0.  1.
          5    1    4    4  501    0  0.20980663765E+02 -0.83676997753E+02  0.16295628375E+03  0.18442952860E+03  0.41800000000E+01 0. -1.
         -5    1    4    4    0  501 -0.21953954650E+02  0.39313011013E+02  0.61557575828E+02  0.76382566738E+02  0.41800000000E+01 0. -1.
</event>
<event>
11    1  0.1003949E-008  0.1913461E+03  0.7561462E-02  0.1060818E+00
         22   -1    0    0    0    0  0.00000000000E+00  0.00000000000E+00  0.51413621496E+03  0.51413621496E+03  0.00000000000E+00 0.  1.
         22   -1    0    0    0    0 -0.00000000000E+00 -0.00000000000E+00 -0.45103484201E+03  0.45103484201E+03  0.00000000000E+00 0. -1.
         24    2    1    2    0    0 -0.59896261990E+02 -0.13232833294E+03 -0.32464954835E+03  0.36470630378E+03  0.80715604916E+02 0.  0.
         25    2    1    2    0    0  0.50223711163E+02  0.13390864029E+03 -0.14081404444E+02  0.19052798189E+03  0.12509468743E+03 0.  0.
        -24    2    1    2    0    0  0.96725508269E+01 -0.15803073476E+01  0.40183232574E+03  0.40993677130E+03  0.80516351391E+02 0.  0.
        -13    1    3    3    0    0 -0.49525195593E+02 -0.79344079371E+02 -0.11508918933E+03  0.14830289758E+03  0.00000000000E+00 0.  1.
         14    1    3    3    0    0 -0.10371066397E+02 -0.52984253570E+02 -0.20956035902E+03  0.21640340620E+03  0.00000000000E+00 0. -1.
         13    1    5    5    0    0  0.38581271294E+02 -0.19805068278E+02  0.16294257484E+03  0.16861505840E+03  0.00000000000E+00 0. -1.
        -14    1    5    5    0    0 -0.28908720467E+02  0.18224760931E+02  0.23888975090E+03  0.24132171290E+03  0.00000000000E+00 0.  1.
          5    1    4    4  501    0  0.25977379905E+02 -0.19307620972E+02  0.84748823136E+01  0.33718014837E+02  0.41800000000E+01 0. -1.
         -5    1    4    4    0  501  0.24246331257E+02  0.15321626126E+03 -0.22556286758E+02  0.15680996705E+03  0.41800000000E+01 0. -1.
</event>
<event>
11    1  0.1003949E-008  0.1331928E+03  0.7561462E-02  0.1115407E+00
         22   -1    0    0    0    0  0.00000000000E+00  0.00000000000E+00  0.16554484183E+04  0.16554484183E+04  0.00000000000E+00 0.  1.
         22   -1    0    0    0    0 -0.00000000000E+00 -0.00000000000E+00 -0.70777667934E+03  0.70777667934E+03  0.00000000000E+00 0.  1.
         24    2    1    2    0    0 -0.33592359615E+02 -0.54599953223E+01 -0.49125666296E+03  0.49878789825E+03  0.79359941797E+02 0.  0.
         25    2    1    2    0    0  0.56459187980E+02  0.45017614836E+02 -0.18681414107E+03  0.23612378198E+03  0.12506275049E+03 0.  0.
        -24    2    1    2    0    0 -0.22866828364E+02 -0.39557619514E+02  0.16257425430E+04  0.16283134174E+04  0.79234286403E+02 0.  0.
        -13    1    3    3    0    0  0.12695325484E+02 -0.24390199386E+01 -0.34733992499E+03  0.34758041315E+03  0.00000000000E+00 0.  1.
         14    1    3    3    0    0 -0.46287685099E+02 -0.30209753837E+01 -0.14391673797E+03  0.15120748510E+03  0.00000000000E+00 0. -1.
         13    1    5    5    0    0 -0.43227494958E+01 -0.23331607662E+00  0.37186090992E+01  0.57068952354E+01  0.00000000000E+00 0. -1.
        -14    1    5    5    0    0 -0.18544078868E+02 -0.39324303437E+02  0.16220239339E+04  0.16226065222E+04  0.00000000000E+00 0.  1.
          5    1    4    4  501    0  0.39964422984E+02  0.69219204728E+02 -0.46164613265E+02  0.92396414029E+02  0.41800000000E+01 0. -1.
         -5    1    4    4    0  501  0.16494764995E+02 -0.24201589892E+02 -0.14064952781E+03  0.14372736795E+03  0.41800000000E+01 0. -1.
</event>
<event>
11    1  0.1003949E-008  0.1318110E+03  0.7561462E-02  0.1117064E+00
         22   -1    0    0    0    0  0.00000000000E+00  0.00000000000E+00  0.14737829898E+04  0.14737829898E+04  0.00000000000E+00 0. -1.
         22   -1    0    0    0    0 -0.00000000000E+00 -0.00000000000E+00 -0.20331896799E+03  0.20331896799E+03  0.00000000000E+00 0.  1.
         24    2    1    2    0    0 -0.15876324095E+02 -0.29673333949E+02 -0.11861985201E+03  0.14696653168E+03  0.79974544243E+02 0.  0.
         25    2    1    2    0    0 -0.20187043228E+02  0.78189497064E+01 -0.10627729483E+02  0.12739494387E+03  0.12509144815E+03 0.  0.
        -24    2    1    2    0    0  0.36063367323E+02  0.21854384243E+02  0.13997116033E+04  0.14027404823E+04  0.81915246094E+02 0.  0.
        -11    1    3    3    0    0 -0.22912798526E+02  0.18308684305E+02 -0.79247769125E+02  0.84500965489E+02  0.00000000000E+00 0.  1.
         12    1    3    3    0    0  0.70364744306E+01 -0.47982018254E+02 -0.39372082887E+02  0.62465566186E+02  0.00000000000E+00 0. -1.
         13    1    5    5    0    0  0.27837672671E+02  0.73007128098E+01  0.13497388705E+04  0.13500456492E+04  0.00000000000E+00 0. -1.
        -14    1    5    5    0    0  0.82256946519E+01  0.14553671433E+02  0.49972732838E+02  0.52694833067E+02  0.00000000000E+00 0.  1.
          5    1    4    4  501    0 -0.60651345937E+02  0.24280348956E+02 -0.37980572382E+02  0.75684327227E+02  0.41800000000E+01 0. -1.
         -5    1    4    4    0  501  0.40464302709E+02 -0.16461399249E+02  0.27352842899E+02  0.51710616643E+02  0.41800000000E+01 0. -1.
</event>
<event>
11    1  0.1003949E-008  0.2251818E+03  0.7561462E-02  0.1038019E+00
         22   -1    0    0    0    0  0.00000000000E+00  0.00000000000E+00  0.86671400833E+03  0.86671400833E+03  0.00000000000E+00 0. -1.
         22   -1    0    0    0    0 -0.00000000000E+00 -0.00000000000E+00 -0.11490058271E+04  0.11490058271E+04  0.00000000000E+00 0. -1.
         24    2    1    2    0    0 -0.10240049729E+03  0.21120826805E+02 -0.86454360243E+03  0.87448822226E+03  0.79762517565E+02 0.  0.
         25    2    1    2    0    0  0.11134298220E+03  0.16660779464E+03 -0.21393998934E+03  0.31870616159E+03  0.12509149242E+03 0.  0.
        -24    2    1    2    0    0 -0.89424849058E+01 -0.18772862144E+03  0.79619177295E+03  0.82252545162E+03  0.85467981746E+02 0.  0.
        -11    1    3    3    0    0  0.60888296585E+01 -0.14770344991E+02 -0.72170127430E+02  0.73917279651E+02  0.00000000000E+00 0.  1.
         12    1    3    3    0    0 -0.10848932695E+03  0.35891171796E+02 -0.79237347500E+03  0.80057094261E+03  0.00000000000E+00 0. -1.
         11    1    5    5    0    0  0.97326721459E+01 -0.17228624791E+03  0.75722475480E+03  0.77663801440E+03  0.00000000000E+00 0. -1.
        -12    1    5    5    0    0 -0.18675157052E+02 -0.15442373533E+02  0.38967018146E+02  0.45887437218E+02  0.00000000000E+00 0.  1.
          5    1    4    4  501    0  0.12954810096E+03  0.10112254884E+03 -0.17565833425E+03  0.24058637355E+03  0.41800000000E+01 0.  1.
         -5    1    4    4    0  501 -0.18205118762E+02  0.65485245800E+02 -0.38281655088E+02  0.78119788037E+02  0.41800000000E+01 0.  1.
</event>
<event>
11    1  0.1003949E-008  0.1344085E+03  0.7561462E-02  0.1113968E+00
         22   -1    0    0    0    0  0.00000000000E+00  0.00000000000E+00  0.82734140108E+02  0.82734140108E+02  0.00000000000E+00 0.  1.
         22   -1    0    0    0    0 -0.00000000000E+00 -0.00000000000E+00 -0.15365143645E+04  0.15365143645E+04  0.00000000000E+00 0. -1.
        -24    2    1    2    0    0 -0.30614637841E+02  0.41006240737E+02 -0.13178364058E+04  0.13211487181E+04  0.78245607442E+02 0.  0.
         25    2    1    2    0    0  0.37073848799E+02  0.27796811312E+01 -0.15703291590E+03  0.20418062795E+03  0.12509274664E+03 0.  0.
         24    2    1    2    0    0 -0.64592109584E+01 -0.43785921868E+02  0.21089097283E+02  0.93919158571E+02  0.80106990722E+02 0.  0.
        -11    1    5    5    0    0 -0.14684544520E+02 -0.66109982391E+02  0.16163715997E+02  0.69623496999E+02  0.00000000000E+00 0.  1.
         12    1    5    5    0    0  0.82253335618E+01  0.22324060523E+02  0.49253812858E+01  0.24295661573E+02  0.00000000000E+00 0. -1.
         13    1    3    3    0    0  0.16256084608E+02  0.39086773774E+02 -0.82482494970E+03  0.82591054832E+03  0.00000000000E+00 0. -1.
        -14    1    3    3    0    0 -0.46870722449E+02  0.19194669627E+01 -0.49301145608E+03  0.49523816977E+03  0.00000000000E+00 0.  1.
          5    1    4    4  501    0  0.26680566433E+02  0.31820215045E+00 -0.17813080711E+03  0.18016661932E+03  0.41800000000E+01 0.  1.
         -5    1    4    4    0  501  0.10393282366E+02  0.24614789807E+01  0.21097891205E+02  0.24014008629E+02  0.41800000000E+01 0.  1.
</event>
<event>
11    1  0.1003949E-008  0.1637561E+03  0.7561462E-02  0.1083597E+00
         22   -1    0    0    0    0  0.00000000000E+00  0.00000000000E+00  0.82560261702E+03  0.82560261702E+03  0.00000000000E+00 0. -1.
         22   -1    0    0    0    0 -0.00000000000E+00 -0.00000000000E+00 -0.15143588321E+04  0.15143588321E+04  0.00000000000E+00 0. -1.
         24    2    1    2    0    0  0.10286661834E+03 -0.25579151365E+02 -0.14936303319E+04  0.14998957688E+04  0.86717441487E+02 0.  0.
         25    2    1    2    0    0 -0.60641609359E+02  0.35311453124E+02  0.36376334221E+03  0.39101864846E+03  0.12509001078E+03 0.  0.
        -24    2    1    2    0    0 -0.42225008982E+02 -0.97323017590E+01  0.44111077459E+03  0.44904703189E+03  0.72019804980E+02 0.  0.
        -11    1    3    3    0    0  0.25985975241E+02 -0.27132445075E+02 -0.17317588082E+03  0.17720419347E+03  0.00000000000E+00 0.  1.
         12    1    3    3    0    0  0.76880643100E+02  0.15532937107E+01 -0.13204544511E+04  0.13226915753E+04  0.00000000000E+00 0. -1.
         13    1    5    5    0    0 -0.60014409077E+02 -0.13859809949E+02  0.38860519218E+03  0.39345624791E+03  0.00000000000E+00 0. -1.
        -14    1    5    5    0    0  0.17789400095E+02  0.41275081899E+01  0.52505582417E+02  0.55590783990E+02  0.00000000000E+00 0.  1.
          5    1    4    4  501    0 -0.15043127172E+02  0.48778474180E+02  0.43435984267E+02  0.67154987512E+02  0.41800000000E+01 0.  1.
         -5    1    4    4    0  501 -0.45598482187E+02 -0.13467021057E+02  0.32032735794E+03  0.32386366095E+03  0.41800000000E+01 0.  1.
</event>
<event>
11    1  0.1003949E-008  0.1313385E+03  0.7561462E-02  0.1117635E+00
         22   -1    0    0    0    0  0.00000000000E+00  0.00000000000E+00  0.17687641905E+04  0.17687641905E+04  0.00000000000E+00 0.  1.
         22   -1    0    0    0    0 -0.00000000000E+00 -0.00000000000E+00 -0.56708365919E+03  0.56708365919E+03  0.00000000000E+00 0.  1.
         24    2    1    2    0    0 -0.20174578371E+02 -0.34378345535E+02 -0.55047280386E+03  0.55772097440E+03  0.80271372516E+02 0.  0.
         25    2    1    2    0    0  0.31814924946E+02  0.48573398213E+02  0.39302964360E+03  0.41652361117E+03  0.12509217979E+03 0.  0.
        -24    2    1    2    0    0 -0.11640346575E+02 -0.14195052679E+02  0.13591236916E+04  0.13616032642E+04  0.80057745968E+02 0.  0.
        -11    1    3    3    0    0  0.47193213507E+01  0.24191989888E+02 -0.11410400613E+03  0.11673580678E+03  0.00000000000E+00 0.  1.
         12    1    3    3    0    0 -0.24893899722E+02 -0.58570335422E+02 -0.43636879773E+03  0.44098516763E+03  0.00000000000E+00 0. -1.
         11    1    5    5    0    0 -0.17344108958E+02  0.25452738429E+02  0.27137230912E+03  0.27311460995E+03  0.00000000000E+00 0. -1.
        -12    1    5    5    0    0  0.57037623831E+01 -0.39647791108E+02  0.10877513825E+04  0.10884886542E+04  0.00000000000E+00 0.  1.
          5    1    4    4  501    0 -0.10096190335E+02  0.57581579179E+02  0.73037486007E+02  0.93645705092E+02  0.41800000000E+01 0.  1.
         -5    1    4    4    0  501  0.41911115280E+02 -0.90081809657E+01  0.31999215760E+03  0.32287790607E+03  0.41800000000E+01 0.  1.
</event>
<event>
11    1  0.1003949E-008  0.1383200E+03  0.7561462E-02  0.1109449E+00
         22   -1    0    0    0    0  0.00000000000E+00  0.00000000000E+00  0.96429905573E+03  0.96429905573E+03  0.00000000000E+00 0. -1.
         22   -1    0    0    0    0 -0.00000000000E+00 -0.00000000000E+00 -0.11753966199E+04  0.11753966199E+04  0.00000000000E+00 0. -1.
         24    2    1    2    0    0  0.99635054038E+00  0.55679054732E+02 -0.83508379678E+03  0.84096984758E+03  0.82244677910E+02 0.  0.
         25    2    1    2    0    0 -0.10730037260E+01 -0.77354013113E+02 -0.31968215832E+03  0.35189286367E+03  0.12508841064E+03 0.  0.
        -24    2    1    2    0    0  0.76653185586E-01  0.21674958381E+02  0.94366839096E+03  0.94683296435E+03  0.74248370926E+02 0.  0.
        -11    1    3    3    0    0  0.18683920228E+02 -0.50658205942E+00 -0.45464579915E+02  0.49156622416E+02  0.00000000000E+00 0.  1.
         12    1    3    3    0    0 -0.17687569688E+02  0.56185636792E+02 -0.78961921686E+03  0.79181322516E+03  0.00000000000E+00 0. -1.
         13    1    5    5    0    0  0.19205385057E+02 -0.77991282539E+01  0.73003751134E+03  0.73033173365E+03  0.00000000000E+00 0. -1.
        -14    1    5    5    0    0 -0.19128731871E+02  0.29474086635E+02  0.21363087962E+03  0.21650123069E+03  0.00000000000E+00 0.  1.
          5    1    4    4  501    0 -0.26221875849E+02 -0.58185690172E+02 -0.31278819243E+03  0.31926021838E+03  0.41800000000E+01 0.  1.
         -5    1    4    4    0  501  0.25148872123E+02 -0.19168322941E+02 -0.68939658887E+01  0.32632645297E+02  0.41800000000E+01 0.  1.
</event>
<event>
11    1  0.1003949E-008  0.1289960E+03  0.7561462E-02  0.1120509E+00
         22   -1    0    0    0    0  0.00000000000E+00  0.00000000000E+00  0.58187674169E+02  0.58187674169E+02  0.00000000000E+00 0.  1.
         22   -1    0    0    0    0 -0.00000000000E+00 -0.00000000000E+00 -0.16617185376E+04  0.16617185376E+04  0.00000000000E+00 0.  1.
         24    2    1    2    0    0  0.18850845224E+02  0.12213052672E+02 -0.13602603753E+04  0.13627579015E+04  0.79349204710E+02 0.  0.
         25    2    1    2    0    0 -0.90998520036E+00  0.18346450176E+02 -0.22382515353E+03  0.25706535739E+03  0.12508988093E+03 0.  0.
        -24    2    1    2    0    0 -0.17940860024E+02 -0.30559502848E+02 -0.19445334557E+02  0.10008295290E+03  0.91557188428E+02 0.  0.
        -13    1    3    3    0    0 -0.13156512088E+02 -0.74303133446E+01 -0.10664679468E+04  0.10665749786E+04  0.00000000000E+00 0.  1.
         14    1    3    3    0    0  0.32007357313E+02  0.19643366017E+02 -0.29379242856E+03  0.29618292292E+03  0.00000000000E+00 0. -1.
         11    1    5    5    0    0 -0.12406342228E+02 -0.45646312458E+02 -0.47953431646E+02  0.67357514615E+02  0.00000000000E+00 0. -1.
        -12    1    5    5    0    0 -0.55345177962E+01  0.15086809610E+02  0.28508097089E+02  0.32725438287E+02  0.00000000000E+00 0.  1.
          5    1    4    4  501    0  0.31579543801E+02 -0.11536984251E+02 -0.55491357916E+01  0.34331252530E+02  0.41800000000E+01 0. -1.
         -5    1    4    4    0  501 -0.32489529001E+02  0.29883434427E+02 -0.21827601774E+03  0.22273410486E+03  0.41800000000E+01 0. -1.
</event>
<event>
11    1  0.1003949E-008  0.1466638E+03  0.7561462E-02  0.1100337E+00
         22   -1    0    0    0    0  0.00000000000E+00  0.00000000000E+00  0.32007668907E+03  0.32007668907E+03  0.00000000000E+00 0. -1.
         22   -1    0    0    0    0 -0.00000000000E+00 -0.00000000000E+00 -0.15084203778E+03  0.15084203778E+03  0.00000000000E+00 0. -1.
         24    2    1    2    0    0 -0.34855481267E+02 -0.87506564787E+02 -0.40205464501E+02  0.13026669840E+03  0.80502359475E+02 0.  0.
         25    2    1    2    0    0  0.72622389335E+01  0.45595137611E+02  0.24290733647E+02  0.13553405482E+03  0.12509110115E+03 0.  0.
        -24    2    1    2    0    0  0.27593242334E+02  0.41911427176E+02  0.18514938215E+03  0.20511797363E+03  0.72630122174E+02 0.  0.
        -13    1    3    3    0    0 -0.36546441470E+02 -0.52954845210E+02  0.14109950662E+02  0.65870696998E+02  0.00000000000E+00 0.  1.
         14    1    3    3    0    0  0.16909602032E+01 -0.34551719577E+02 -0.54315415163E+02  0.64396001402E+02  0.00000000000E+00 0. -1.
         13    1    5    5    0    0  0.41128225776E+02  0.96986387347E+01  0.14886092782E+03  0.15474227082E+03  0.00000000000E+00 0. -1.
        -14    1    5    5    0    0 -0.13534983442E+02  0.32212788441E+02  0.36288454333E+02  0.50375702812E+02  0.00000000000E+00 0.  1.
          5    1    4    4  501    0  0.59410339424E+02  0.46541479256E+02  0.33026554382E+02  0.82485898287E+02  0.41800000000E+01 0. -1.
         -5    1    4    4    0  501 -0.52148100491E+02 -0.94634164470E+00 -0.87358207349E+01  0.53048156530E+02  0.41800000000E+01 0. -1.
</event>
<event>
11    1  0.1003949E-008  0.1703691E+03  0.7561462E-02  0.1077711E+00
         22   -1    0    0    0    0  0.00000000000E+00  0.00000000000E+00  0.16471541171E+04  0.16471541171E+04  0.00000000000E+00 0. -1.
         22   -1    0    0    0    0 -0.00000000000E+00 -0.00000000000E+00 -0.57382782690E+03  0.57382782690E+03  0.00000000000E+00 0. -1.
         24    2    1    2    0    0  0.50403230257E+02 -0.10557431370E+03 -0.52011766512E+03  0.53923222073E+03  0.81009758497E+02 0.  0.
         25    2    1    2    0    0 -0.35415857256E+02  0.89210944375E+02  0.10147581114E+03  0.18749835094E+03  0.12508163662E+03 0.  0.
        -24    2    1    2    0    0 -0.14987373002E+02  0.16363369328E+02  0.14919681441E+04  0.14942513723E+04  0.79535144894E+02 0.  0.
        -13    1    3    3    0    0  0.59059905062E+01 -0.40592816287E+01  0.26991656951E+00  0.71715651119E+01  0.00000000000E+00 0.  1.
         14    1    3    3    0    0  0.44497239751E+02 -0.10151503207E+03 -0.52038758169E+03  0.53206065562E+03  0.00000000000E+00 0. -1.
         13    1    5    5    0    0 -0.29905800692E+02  0.93706541898E+01  0.14229069098E+04  0.14232519945E+04  0.00000000000E+00 0. -1.
        -14    1    5    5    0    0  0.14918427691E+02  0.69927151383E+01  0.69061234373E+02  0.70999377764E+02  0.00000000000E+00 0.  1.
          5    1    4    4  501    0 -0.18517916833E+02 -0.28907306881E+02  0.41076111276E+02  0.53696042242E+02  0.41800000000E+01 0. -1.
         -5    1    4    4    0  501 -0.16897940423E+02  0.11811825126E+03  0.60399699864E+02  0.13380230870E+03  0.41800000000E+01 0. -1.
</event>
<event>
11    1  0.1003949E-008  0.2570864E+03  0.7561462E-02  0.1020190E+00
         22   -1    0    0    0    0  0.00000000000E+00  0.00000000000E+00  0.45774263965E+03  0.45774263965E+03  0.00000000000E+00 0. -1.
         22   -1    0    0    0    0 -0.00000000000E+00 -0.00000000000E+00 -0.51065391286E+03  0.51065391286E+03  0.00000000000E+00 0. -1.
         24    2    1    2    0    0  0.83166252159E+01 -0.24266814870E+01 -0.36803573021E+03  0.37701095062E+03  0.81313609807E+02 0.  0.
         25    2    1    2    0    0  0.14897841530E+03  0.16536788998E+03  0.15033893726E+03  0.29629230932E+03  0.12508488816E+03 0.  0.
        -24    2    1    2    0    0 -0.15729504052E+03 -0.16294120849E+03  0.16478551974E+03  0.29509329258E+03  0.92920485429E+02 0.  0.
        -13    1    3    3    0    0 -0.52889515940E+01 -0.38594021533E+02 -0.12520792723E+03  0.13112778709E+03  0.00000000000E+00 0.  1.
         14    1    3    3    0    0  0.13605576810E+02  0.36167340046E+02 -0.24282780298E+03  0.24588316353E+03  0.00000000000E+00 0. -1.
         11    1    5    5    0    0 -0.72933057446E+02 -0.12808762310E+03  0.13272837733E+03  0.19834941948E+03  0.00000000000E+00 0. -1.
        -12    1    5    5    0    0 -0.84361983072E+02 -0.34853585389E+02  0.32057142414E+02  0.96743873098E+02  0.00000000000E+00 0.  1.
          5    1    4    4  501    0  0.12565832919E+03  0.18076780143E+03  0.10764850938E+03  0.24509730252E+03  0.41800000000E+01 0.  1.
         -5    1    4    4    0  501  0.23320086110E+02 -0.15399911456E+02  0.42690427876E+02  0.51195006801E+02  0.41800000000E+01 0.  1.
</event>
<event>
11    1  0.1003949E-008  0.1285182E+03  0.7561462E-02  0.1121103E+00
         22   -1    0    0    0    0  0.00000000000E+00  0.00000000000E+00  0.43084602341E+03  0.43084602341E+03  0.00000000000E+00 0. -1.
         22   -1    0    0    0    0 -0.00000000000E+00 -0.00000000000E+00 -0.24172639704E+03  0.24172639704E+03  0.00000000000E+00 0.  1.
        -24    2    1    2    0    0  0.20564828733E+02  0.19446101654E+02 -0.19752899568E+03  0.21569531596E+03  0.81888351699E+02 0.  0.
         25    2    1    2    0    0 -0.22371344716E+02 -0.50185640959E+02  0.13859036089E+03  0.19461252121E+03  0.12509064575E+03 0.  0.
         24    2    1    2    0    0  0.18065159831E+01  0.30739539305E+02  0.24805826116E+03  0.26226458329E+03  0.79382793731E+02 0.  0.
        -11    1    5    5    0    0 -0.66943849506E+01  0.35205293961E+02  0.38918210002E+02  0.52904201936E+02  0.00000000000E+00 0.  1.
         12    1    5    5    0    0  0.85009009337E+01 -0.44657546557E+01  0.20914005116E+03  0.20936038135E+03  0.00000000000E+00 0. -1.
         11    1    3    3    0    0  0.26107607829E+02  0.33377666066E+02 -0.42755459763E+02  0.60197218524E+02  0.00000000000E+00 0. -1.
        -12    1    3    3    0    0 -0.55427790961E+01 -0.13931564411E+02 -0.15477353591E+03  0.15549809743E+03  0.00000000000E+00 0.  1.
          5    1    4    4  501    0 -0.41453609530E+02 -0.85174127765E+02  0.11087411834E+03  0.14588891768E+03  0.41800000000E+01 0.  1.
         -5    1    4    4    0  501  0.19082264814E+02  0.34988486806E+02  0.27716242551E+02  0.48723603526E+02  0.41800000000E+01 0.  1.
</event>
<event>
11    1  0.1003949E-008  0.2681231E+03  0.7561462E-02  0.1014664E+00
         22   -1    0    0    0    0  0.00000000000E+00  0.00000000000E+00  0.31602219771E+04  0.31602219771E+04  0.00000000000E+00 0. -1.
         22   -1    0    0    0    0 -0.00000000000E+00 -0.00000000000E+00 -0.99353288463E+02  0.99353288463E+02  0.00000000000E+00 0.  1.
         24    2    1    2    0    0  0.18928359210E+02  0.18480943341E+02 -0.81325370935E+01  0.84987851896E+02  0.80355265920E+02 0.  0.
         25    2    1    2    0    0  0.22002994415E+03 -0.55548741529E+01  0.29340471123E+03  0.38752794322E+03  0.12509016451E+03 0.  0.
        -24    2    1    2    0    0 -0.23895830336E+03 -0.12926069188E+02  0.27755965145E+04  0.27870594705E+04  0.80599792191E+02 0.  0.
        -13    1    3    3    0    0 -0.19631342673E+02  0.36599308060E+02  0.41795840511E+00  0.41534006005E+02  0.00000000000E+00 0.  1.
         14    1    3    3    0    0  0.38559701884E+02 -0.18118364718E+02 -0.85504954986E+01  0.43453845891E+02  0.00000000000E+00 0. -1.
         11    1    5    5    0    0 -0.74512548810E+02 -0.23555339548E+02  0.57256842800E+03  0.57787678504E+03  0.00000000000E+00 0. -1.
        -12    1    5    5    0    0 -0.16444575455E+03  0.10629270360E+02  0.22030280865E+04  0.22091826854E+04  0.00000000000E+00 0.  1.
          5    1    4    4  501    0  0.22978913584E+03 -0.20141487201E+02  0.28733373580E+03  0.36849270628E+03  0.41800000000E+01 0.  1.
         -5    1    4    4    0  501 -0.97591916890E+01  0.14586613048E+02  0.60709754329E+01  0.19035236939E+02  0.41800000000E+01 0.  1.
</event>
<event>
11    1  0.1003949E-008  0.1422667E+03  0.7561462E-02  0.1105053E+00
         22   -1    0    0    0    0  0.00000000000E+00  0.00000000000E+00  0.18067016157E+04  0.18067016157E+04  0.00000000000E+00 0.  1.
         22   -1    0    0    0    0 -0.00000000000E+00 -0.00000000000E+00 -0.17385562357E+04  0.17385562357E+04  0.00000000000E+00 0.  1.
         24    2    1    2    0    0  0.10519093770E+02 -0.57363525856E+02 -0.16928377203E+04  0.16959436939E+04  0.84405213851E+02 0.  0.
         25    2    1    2    0    0 -0.65033552191E+02  0.15436537639E+02  0.75954535332E+02  0.16088186182E+03  0.12508490085E+03 0.  0.
        -24    2    1    2    0    0  0.54514458420E+02  0.41926988217E+02  0.16850285649E+04  0.16884322957E+04  0.82174532944E+02 0.  0.
        -13    1    3    3    0    0 -0.36256017920E+02 -0.24791879993E+02 -0.89157731340E+03  0.89265852481E+03  0.00000000000E+00 0.  1.
         14    1    3    3    0    0  0.46775111690E+02 -0.32571645863E+02 -0.80126040687E+03  0.80328516904E+03  0.00000000000E+00 0. -1.
         13    1    5    5    0    0 -0.49121166690E+01 -0.20361264275E+02  0.29903170903E+03  0.29976436242E+03  0.00000000000E+00 0. -1.
        -14    1    5    5    0    0  0.59426575089E+02  0.62288252492E+02  0.13859968559E+04  0.13886679332E+04  0.00000000000E+00 0.  1.
          5    1    4    4  501    0 -0.85941260613E+01 -0.18110071380E+02  0.91098801879E+02  0.93371825472E+02  0.41800000000E+01 0. -1.
         -5    1    4    4    0  501 -0.56439426129E+02  0.33546609019E+02 -0.15144266548E+02  0.67510036348E+02  0.41800000000E+01 0. -1.
</event>
<event>
11    1  0.1003949E-008  0.1335582E+03  0.7561462E-02  0.1114973E+00
         22   -1    0    0    0    0  0.00000000000E+00  0.00000000000E+00  0.14925689487E+03  0.14925689487E+03  0.00000000000E+00 0.  1.
         22   -1    0    0    0    0 -0.00000000000E+00 -0.00000000000E+00 -0.34355272844E+03  0.34355272844E+03  0.00000000000E+00 0.  1.
        -24    2    1    2    0    0 -0.36736615258E+02 -0.22053525880E+02 -0.12931866360E+03  0.15786088862E+03  0.79754664411E+02 0.  0.
         25    2    1    2    0    0  0.22640984751E+02  0.57198232333E+02 -0.15599094061E+03  0.20920055969E+03  0.12508976236E+03 0.  0.
         24    2    1    2    0    0  0.14095630507E+02 -0.35144706453E+02  0.91013770637E+02  0.12574817501E+03  0.78072145360E+02 0.  0.
        -13    1    5    5    0    0  0.33219332408E+02  0.89559056114E+00  0.74791102695E+02  0.81841524732E+02  0.00000000000E+00 0.  1.
         14    1    5    5    0    0 -0.19123701901E+02 -0.36040297014E+02  0.16222667942E+02  0.43906650275E+02  0.00000000000E+00 0. -1.
         13    1    3    3    0    0 -0.55585666744E+02 -0.28953752412E+02 -0.64205983857E+02  0.89724547863E+02  0.00000000000E+00 0. -1.
        -14    1    3    3    0    0  0.18849051486E+02  0.69002265320E+01 -0.65112679740E+02  0.68136340752E+02  0.00000000000E+00 0.  1.
          5    1    4    4  501    0  0.10986254659E+01  0.94222320589E+02 -0.12283894881E+03  0.15487392427E+03  0.41800000000E+01 0.  1.
         -5    1    4    4    0  501  0.21542359285E+02 -0.37024088256E+02 -0.33151991808E+02  0.54326635416E+02  0.41800000000E+01 0.  1.
</event>
<event>
11    1  0.1003949E-008  0.1664190E+03  0.7561462E-02  0.1081191E+00
         22   -1    0    0    0    0  0.00000000000E+00  0.00000000000E+00  0.23265547102E+03  0.23265547102E+03  0.00000000000E+00 0. -1.
         22   -1    0    0    0    0 -0.00000000000E+00 -0.00000000000E+00 -0.55092406742E+03  0.55092406742E+03  0.00000000000E+00 0.  1.
         24    2    1    2    0    0  0.10008914077E+03  0.42327175857E+02 -0.42908369149E+03  0.44984234306E+03  0.80224020039E+02 0.  0.
         25    2    1    2    0    0 -0.12821194711E+03  0.20662585802E+01 -0.10864597638E+02  0.17946623698E+03  0.12509003927E+03 0.  0.
        -24    2    1    2    0    0  0.28122806348E+02 -0.44393434437E+02  0.12167969273E+03  0.15427095841E+03  0.78942458331E+02 0.  0.
        -11    1    3    3    0    0  0.97978211206E+02  0.43006062144E+02 -0.26559869143E+03  0.28634230589E+03  0.00000000000E+00 0.  1.
         12    1    3    3    0    0  0.21109295605E+01 -0.67888628765E+00 -0.16348500006E+03  0.16350003718E+03  0.00000000000E+00 0. -1.
         11    1    5    5    0    0  0.50216560976E+01  0.25645583236E+01  0.95661052872E+02  0.95827089207E+02  0.00000000000E+00 0. -1.
        -12    1    5    5    0    0  0.23101150251E+02 -0.46957992760E+02  0.26018639855E+02  0.58443869198E+02  0.00000000000E+00 0.  1.
          5    1    4    4  501    0 -0.12356933611E+02 -0.47099193160E+02 -0.20875386888E+02  0.53143974092E+02  0.41800000000E+01 0.  1.
         -5    1    4    4    0  501 -0.11585501350E+03  0.49165451740E+02  0.10010789250E+02  0.12632226288E+03  0.41800000000E+01 0.  1.
</event>
<event>
11    1  0.1003949E-008  0.1425359E+03  0.7561462E-02  0.1104759E+00
         22   -1    0    0    0    0  0.00000000000E+00  0.00000000000E+00  0.11538224431E+04  0.11538224431E+04  0.00000000000E+00 0.  1.
         22   -1    0    0    0    0 -0.00000000000E+00 -0.00000000000E+00 -0.17097850146E+04  0.17097850146E+04  0.00000000000E+00 0.  1.
        -24    2    1    2    0    0  0.46685597908E+02  0.49720079036E+02 -0.16789319103E+04  0.16822689632E+04  0.81023910440E+02 0.  0.
         25    2    1    2    0    0 -0.51025687816E+02 -0.66772764335E+02  0.17978698150E+03  0.23459247323E+03  0.12509215365E+03 0.  0.
         24    2    1    2    0    0  0.43400899086E+01  0.17052685299E+02  0.94318235728E+03  0.94674602128E+03  0.80158837808E+02 0.  0.
        -11    1    5    5    0    0 -0.14660121855E+02 -0.11958215322E+02  0.76424529412E+03  0.76447942266E+03  0.00000000000E+00 0.  1.
         12    1    5    5    0    0  0.19000211764E+02  0.29010900621E+02  0.17893706315E+03  0.18226659862E+03  0.00000000000E+00 0. -1.
         13    1    3    3    0    0 -0.20362720216E+01 -0.14001305620E+01 -0.72287478059E+00  0.25747460623E+01  0.00000000000E+00 0. -1.
        -14    1    3    3    0    0  0.48721869930E+02  0.51120209598E+02 -0.16782090355E+04  0.16796942172E+04  0.00000000000E+00 0.  1.
          5    1    4    4  501    0 -0.46881584147E+02 -0.79868667845E+02  0.19361083872E+03  0.21466139919E+03  0.41800000000E+01 0. -1.
         -5    1    4    4    0  501 -0.41441036696E+01  0.13095903510E+02 -0.13823857214E+02  0.19931074037E+02  0.41800000000E+01 0. -1.
</event>
<event>
11    1  0.1003949E-008  0.1359936E+03  0.7561462E-02  0.1112116E+00
         22   -1    0    0    0    0  0.00000000000E+00  0.00000000000E+00  0.54065622175E+03  0.54065622175E+03  0.00000000000E+00 0.  1.
         22   -1    0    0    0    0 -0.00000000000E+00 -0.00000000000E+00 -0.79064823513E+03  0.79064823513E+03  0.00000000000E+00 0.  1.
         24    2    1    2    0    0  0.17088979605E+02  0.51115391561E+02 -0.76133994350E+03  0.76736111026E+03  0.79370948656E+02 0.  0.
         25    2    1    2    0    0 -0.10277698398E+02 -0.86353823996E+01  0.17661993527E+03  0.21687045828E+03  0.12513190331E+03 0.  0.
        -24    2    1    2    0    0 -0.68112812069E+01 -0.42480009162E+02  0.33472799486E+03  0.34707288834E+03  0.81029713986E+02 0.  0.
        -11    1    3    3    0    0  0.40620517697E+02  0.44418117252E+02 -0.67329205396E+03  0.67597720785E+03  0.00000000000E+00 0.  1.
         12    1    3    3    0    0 -0.23531538093E+02  0.66972743096E+01 -0.88047889538E+02  0.91383902413E+02  0.00000000000E+00 0. -1.
         11    1    5    5    0    0  0.53623109660E+00 -0.17897778963E+02  0.84707467925E+01  0.19808371635E+02  0.00000000000E+00 0. -1.
        -12    1    5    5    0    0 -0.73475123035E+01 -0.24582230198E+02  0.32625724807E+03  0.32726451670E+03  0.00000000000E+00 0.  1.
          5    1    4    4  501    0  0.31606858604E+02 -0.51331791006E+02  0.12023713751E+03  0.13456741031E+03  0.41800000000E+01 0. -1.
         -5    1    4    4    0  501 -0.41884557002E+02  0.42696408607E+02  0.56382797757E+02  0.82303047976E+02  0.41800000000E+01 0. -1.
</event>
<event>
11    1  0.1003949E-008  0.1256201E+03  0.7561462E-02  0.1124771E+00
         22   -1    0    0    0    0  0.00000000000E+00  0.00000000000E+00  0.66808983327E+03  0.66808983327E+03  0.00000000000E+00 0. -1.
         22   -1    0    0    0    0 -0.00000000000E+00 -0.00000000000E+00 -0.58818696380E+03  0.58818696380E+03  0.00000000000E+00 0.  1.
         24    2    1    2    0    0 -0.24286438436E+02  0.87473514248E+01 -0.56732893552E+03  0.57282399607E+03  0.74825544725E+02 0.  0.
         25    2    1    2    0    0  0.26503182460E+02  0.13274832430E+01  0.28647358473E+03  0.31372183125E+03  0.12510032678E+03 0.  0.
        -24    2    1    2    0    0 -0.22167440238E+01 -0.10074834668E+02  0.36075822026E+03  0.36973096975E+03  0.80299939378E+02 0.  0.
        -11    1    3    3    0    0 -0.29740976535E+02 -0.17503127929E+02 -0.48528271778E+03  0.48650817192E+03  0.00000000000E+00 0.  1.
         12    1    3    3    0    0  0.54545380985E+01  0.26250479354E+02 -0.82046217743E+02  0.86315824147E+02  0.00000000000E+00 0. -1.
         11    1    5    5    0    0  0.20949849332E+02 -0.25945735329E+02  0.30944179409E+03  0.31123351571E+03  0.00000000000E+00 0. -1.
        -12    1    5    5    0    0 -0.23166593356E+02  0.15870900661E+02  0.51316426166E+02  0.58497454047E+02  0.00000000000E+00 0.  1.
          5    1    4    4  501    0 -0.42109031207E+02 -0.23454354670E+02  0.68776872126E+02  0.84089284702E+02  0.41800000000E+01 0. -1.
         -5    1    4    4    0  501  0.68612213667E+02  0.24781837913E+02  0.21769671260E+03  0.22963254655E+03  0.41800000000E+01 0. -1.
</event>
<event>
11    1  0.1003949E-008  0.1554867E+03  0.7561462E-02  0.1091401E+00
         22   -1    0    0    0    0  0.00000000000E+00  0.00000000000E+00  0.26602111403E+03  0.26602111403E+03  0.00000000000E+00 0. -1.
         22   -1    0    0    0    0 -0.00000000000E+00 -0.00000000000E+00 -0.12594821549E+04  0.12594821549E+04  0.00000000000E+00 0.  1.
        -24    2    1    2    0    0 -0.85675495330E+02 -0.31494923435E+02 -0.11481657952E+04  0.11545347578E+04  0.79583874635E+02 0.  0.
         25    2    1    2    0    0  0.10990465346E+03  0.42360026397E+02 -0.23071280455E+02  0.17335457840E+03  0.12508445620E+03 0.  0.
         24    2    1    2    0    0 -0.24229158128E+02 -0.10865102962E+02  0.17777603478E+03  0.19761393270E+03  0.82108740648E+02 0.  0.
        -13    1    5    5    0    0  0.29570898020E+02  0.51207987292E+01  0.56309742683E+02  0.63807896928E+02  0.00000000000E+00 0.  1.
         14    1    5    5    0    0 -0.53800056148E+02 -0.15985901691E+02  0.12146629209E+03  0.13380603577E+03  0.00000000000E+00 0. -1.
         13    1    3    3    0    0 -0.20139644101E+02  0.52913843126E+01 -0.55343102918E+02  0.59130897617E+02  0.00000000000E+00 0. -1.
        -14    1    3    3    0    0 -0.65535851229E+02 -0.36786307748E+02 -0.10928226923E+04  0.10954038602E+04  0.00000000000E+00 0.  1.
          5    1    4    4  501    0  0.15838436124E+02  0.19305742014E+01 -0.61682576563E+02  0.63849791128E+02  0.41800000000E+01 0.  1.
         -5    1    4    4    0  501  0.94066217334E+02  0.40429452196E+02  0.38611296108E+02  0.10950478727E+03  0.41800000000E+01 0.  1.
</event>
<event>
11    1  0.1003949E-008  0.1456241E+03  0.7561462E-02  0.1101436E+00
         22   -1    0    0    0    0  0.00000000000E+00  0.00000000000E+00  0.17534223022E+04  0.17534223022E+04  0.00000000000E+00 0.  1.
         22   -1    0    0    0    0 -0.00000000000E+00 -0.00000000000E+00 -0.10225681165E+03  0.10225681165E+03  0.00000000000E+00 0.  1.
        -24    2    1    2    0    0  0.81613812428E+01 -0.75102382719E+02 -0.59226202302E+02  0.12342028160E+03  0.77574782226E+02 0.  0.
         25    2    1    2    0    0  0.92855227406E+01  0.60407570464E+02  0.49398156337E+03  0.51322502777E+03  0.12508736420E+03 0.  0.
         24    2    1    2    0    0 -0.17446903983E+02  0.14694812255E+02  0.12164101295E+04  0.12190338045E+04  0.76612540647E+02 0.  0.
        -11    1    5    5    0    0 -0.41468895926E+02 -0.99805798963E+01  0.82882670241E+03  0.82992348077E+03  0.00000000000E+00 0.  1.
         12    1    5    5    0    0  0.24021991943E+02  0.24675392151E+02  0.38758342709E+03  0.38911032372E+03  0.00000000000E+00 0. -1.
         13    1    3    3    0    0  0.18024378929E+02 -0.73275672667E+02 -0.13563997927E+02  0.76669319029E+02  0.00000000000E+00 0. -1.
        -14    1    3    3    0    0 -0.98629976864E+01 -0.18267100512E+01 -0.45662204375E+02  0.46750962571E+02  0.00000000000E+00 0.  1.
          5    1    4    4  501    0  0.36877411942E+02  0.88493154673E+02  0.29086645315E+03  0.30628703515E+03  0.41800000000E+01 0.  1.
         -5    1    4    4    0  501 -0.27591889201E+02 -0.28085584209E+02  0.20311511022E+03  0.20693799262E+03  0.41800000000E+01 0.  1.
</event>
<event>
11    1  0.1003949E-008  0.1468717E+03  0.7561462E-02  0.1100119E+00
         22   -1    0    0    0    0  0.00000000000E+00  0.00000000000E+00  0.73114250025E+03  0.73114250025E+03  0.00000000000E+00 0. -1.
         22   -1    0    0    0    0 -0.00000000000E+00 -0.00000000000E+00 -0.15552008703E+04  0.15552008703E+04  0.00000000000E+00 0.  1.
         24    2    1    2    0    0 -0.67071990997E+02 -0.66450051555E+02 -0.14141498707E+04  0.14197114096E+04  0.82742784178E+02 0.  0.
         25    2    1    2    0    0  0.19527224639E+02  0.12622442773E+03 -0.71225222505E+02  0.19243836093E+03  0.12508226006E+03 0.  0.
        -24    2    1    2    0    0  0.47544766358E+02 -0.59774376171E+02  0.66131672318E+03  0.67419360003E+03  0.10660075570E+03 0.  0.
        -11    1    3    3    0    0 -0.79180477923E+02 -0.73373440940E+02 -0.13336772964E+04  0.13380389908E+04  0.00000000000E+00 0.  1.
         12    1    3    3    0    0  0.12108486926E+02  0.69233893851E+01 -0.80472574305E+02  0.81672418793E+02  0.00000000000E+00 0. -1.
         13    1    5    5    0    0 -0.25064443298E+02 -0.41514826494E+02  0.38009667084E+03  0.38317774769E+03  0.00000000000E+00 0. -1.
        -14    1    5    5    0    0  0.72609209655E+02 -0.18259549677E+02  0.28122005233E+03  0.29101585234E+03  0.00000000000E+00 0.  1.
          5    1    4    4  501    0 -0.44952676532E+02  0.41451520989E+02  0.48540601314E+01  0.61481753549E+02  0.41800000000E+01 0. -1.
         -5    1    4    4    0  501  0.64479901171E+02  0.84772906737E+02 -0.76079282636E+02  0.13095660739E+03  0.41800000000E+01 0. -1.
</event>
<event>
11    1  0.1003949E-008  0.2025730E+03  0.7561462E-02  0.1052719E+00
         22   -1    0    0    0    0  0.00000000000E+00  0.00000000000E+00  0.23169303203E+03  0.23169303203E+03  0.00000000000E+00 0. -1.
         22   -1    0    0    0    0 -0.00000000000E+00 -0.00000000000E+00 -0.67120360926E+03  0.67120360926E+03  0.00000000000E+00 0. -1.
        -24    2    1    2    0    0 -0.11588333185E+03  0.10634218383E+03 -0.52473225436E+03  0.55428508372E+03  0.84560088771E+02 0.  0.
         25    2    1    2    0    0  0.17708346841E+03 -0.68624511574E+02  0.42177606652E+02  0.23128967717E+03  0.12509230947E+03 0.  0.
         24    2    1    2    0    0 -0.61200136559E+02 -0.37717672255E+02  0.43044070478E+02  0.11732188040E+03  0.82119133597E+02 0.  0.
        -11    1    5    5    0    0 -0.50759681237E+02 -0.61031006980E+02  0.45772604961E+02  0.91632201857E+02  0.00000000000E+00 0.  1.
         12    1    5    5    0    0 -0.10440455322E+02  0.23313334725E+02 -0.27285344833E+01  0.25689678545E+02  0.00000000000E+00 0. -1.
         13    1    3    3    0    0 -0.12558975774E+03  0.10575511249E+03 -0.51495403580E+03  0.54049476413E+03  0.00000000000E+00 0. -1.
        -14    1    3    3    0    0  0.97064258892E+01  0.58707134232E+00 -0.97782185565E+01  0.13790319592E+02  0.00000000000E+00 0.  1.
          5    1    4    4  501    0  0.16506661915E+03 -0.97744567248E+02  0.20834074061E+02  0.19300911954E+03  0.41800000000E+01 0.  1.
         -5    1    4    4    0  501  0.12016849256E+02  0.29120055674E+02  0.21343532591E+02  0.38280557624E+02  0.41800000000E+01 0.  1.
</event>
<event>
11    1  0.1003949E-008  0.1304921E+03  0.7561462E-02  0.1118666E+00
         22   -1    0    0    0    0  0.00000000000E+00  0.00000000000E+00  0.21261177555E+03  0.21261177555E+03  0.00000000000E+00 0.  1.
         22   -1    0    0    0    0 -0.00000000000E+00 -0.00000000000E+00 -0.10180626134E+04  0.10180626134E+04  0.00000000000E+00 0. -1.
        -24    2    1    2    0    0  0.18117786805E+02 -0.95447806303E+01 -0.78424486760E+03  0.78862214808E+03  0.80408476219E+02 0.  0.
         25    2    1    2    0    0 -0.27369881694E+02  0.44879133715E+02 -0.20040241724E+03  0.24201688683E+03  0.12509115720E+03 0.  0.
         24    2    1    2    0    0  0.92520948893E+01 -0.35334353085E+02  0.17919644695E+03  0.20003535407E+03  0.81047260971E+02 0.  0.
        -11    1    5    5    0    0 -0.36059892352E+02 -0.13484957895E+02  0.73155758684E+02  0.82667556844E+02  0.00000000000E+00 0.  1.
         12    1    5    5    0    0  0.45311987242E+02 -0.21849395190E+02  0.10604068827E+03  0.11736779723E+03  0.00000000000E+00 0. -1.
         13    1    3    3    0    0  0.49142747824E+02  0.35836579951E+01 -0.47277271770E+03  0.47533345651E+03  0.00000000000E+00 0. -1.
        -14    1    3    3    0    0 -0.31024961019E+02 -0.13128438625E+02 -0.31147214990E+03  0.31328869157E+03  0.00000000000E+00 0.  1.
          5    1    4    4  501    0  0.28763980179E+02 -0.29382871354E+02 -0.47569656441E+02  0.63016381193E+02  0.41800000000E+01 0.  1.
         -5    1    4    4    0  501 -0.56133861873E+02  0.74262005070E+02 -0.15283276080E+03  0.17900050564E+03  0.41800000000E+01 0.  1.
</event>
<event>
11    1  0.1003949E-008  0.1409743E+03  0.7561462E-02  0.1106475E+00
         22   -1    0    0    0    0  0.00000000000E+00  0.00000000000E+00  0.30419922798E+03  0.30419922798E+03  0.00000000000E+00 0.  1.
         22   -1    0    0    0    0 -0.00000000000E+00 -0.00000000000E+00 -0.63161938341E+03  0.63161938341E+03  0.00000000000E+00 0.  1.
        -24    2    1    2    0    0  0.62119327227E+02 -0.16081438500E+02 -0.55034570675E+03  0.55982066755E+03  0.80008495793E+02 0.  0.
         25    2    1    2    0    0 -0.77394499030E+02  0.17203688048E+02  0.11983620144E+02  0.14858441049E+03  0.12509134473E+03 0.  0.
         24    2    1    2    0    0  0.15275171802E+02 -0.11222495483E+01  0.21094193116E+03  0.22741353335E+03  0.83581256931E+02 0.  0.
        -13    1    5    5    0    0 -0.13808303500E+02 -0.31455436051E+02  0.14654823049E+03  0.15052075459E+03  0.00000000000E+00 0.  1.
         14    1    5    5    0    0  0.29083475302E+02  0.30333186502E+02  0.64393700677E+02  0.76892778763E+02  0.00000000000E+00 0. -1.
         13    1    3    3    0    0  0.17100780330E+02 -0.43708581436E+02 -0.32474164058E+03  0.32811584830E+03  0.00000000000E+00 0. -1.
        -14    1    3    3    0    0  0.45018546897E+02  0.27627142936E+02 -0.22560406617E+03  0.23170481925E+03  0.00000000000E+00 0.  1.
          5    1    4    4  501    0 -0.85097530217E+02 -0.34972678899E+02  0.22113236666E+02  0.94716131436E+02  0.41800000000E+01 0.  1.
         -5    1    4    4    0  501  0.77030311869E+01  0.52176366947E+02 -0.10129616522E+02  0.53868279053E+02  0.41800000000E+01 0.  1.
</event>
<event>
11    1  0.1003949E-008  0.1281925E+03  0.7561462E-02  0.1121510E+00
         22   -1    0    0    0    0  0.00000000000E+00  0.00000000000E+00  0.18315592411E+02  0.18315592411E+02  0.00000000000E+00 0.  1.
         22   -1    0    0    0    0 -0.00000000000E+00 -0.00000000000E+00 -0.25159167482E+04  0.25159167482E+04  0.00000000000E+00 0.  1.
         24    2    1    2    0    0 -0.25136175359E+02  0.15928240020E+02 -0.17453481393E+04  0.17474763054E+04  0.80918318493E+02 0.  0.
         25    2    1    2    0    0  0.19132977306E+02 -0.19163849737E+01 -0.60526512621E+03  0.61835545528E+03  0.12509137749E+03 0.  0.
        -24    2    1    2    0    0  0.60031980531E+01 -0.14011855046E+02 -0.14698789023E+03  0.16840057992E+03  0.80752368240E+02 0.  0.
        -11    1    3    3    0    0 -0.45735887813E+02 -0.40447967345E+01 -0.14525906772E+04  0.14533161415E+04  0.00000000000E+00 0.  1.
         12    1    3    3    0    0  0.20599712453E+02  0.19973036754E+02 -0.29275746214E+03  0.29416016384E+03  0.00000000000E+00 0. -1.
         11    1    5    5    0    0 -0.15708944336E+01  0.13814699606E+02 -0.13726407429E+03  0.13796644420E+03  0.00000000000E+00 0. -1.
        -12    1    5    5    0    0  0.75740924867E+01 -0.27826554652E+02 -0.97238159373E+01  0.30434135723E+02  0.00000000000E+00 0.  1.
          5    1    4    4  501    0  0.45821916491E+02 -0.30600444688E+02 -0.53459295289E+03  0.53744128323E+03  0.41800000000E+01 0. -1.
         -5    1    4    4    0  501 -0.26688939185E+02  0.28684059715E+02 -0.70672173318E+02  0.80914172047E+02  0.41800000000E+01 0. -1.
</event>
<event>
11    1  0.1003949E-008  0.1668598E+03  0.7561462E-02  0.1080797E+00
         22   -1    0    0    0    0  0.00000000000E+00  0.00000000000E+00  0.70098804792E+03  0.70098804792E+03  0.00000000000E+00 0.  1.
         22   -1    0    0    0    0 -0.00000000000E+00 -0.00000000000E+00 -0.17932649554E+04  0.17932649554E+04  0.00000000000E+00 0.  1.
         24    2    1    2    0    0 -0.37444921248E+02  0.41170411934E+02 -0.16474312953E+04  0.16503900172E+04  0.81610116201E+02 0.  0.
         25    2    1    2    0    0  0.97164461630E+02  0.52545101903E+02 -0.86369734604E+02  0.18790758107E+03  0.12509039783E+03 0.  0.
        -24    2    1    2    0    0 -0.59719540381E+02 -0.93715513837E+02  0.64152412242E+03  0.65595540510E+03  0.79845305418E+02 0.  0.
        -11    1    3    3    0    0 -0.12609694178E+01 -0.23590720063E+02 -0.50538353814E+03  0.50593540373E+03  0.00000000000E+00 0.  1.
         12    1    3    3    0    0 -0.36183951831E+02  0.64761131997E+02 -0.11420477572E+04  0.11444546134E+04  0.00000000000E+00 0. -1.
         13    1    5    5    0    0 -0.19005067584E+02 -0.74046559474E+02  0.23970107388E+03  0.25159628452E+03  0.00000000000E+00 0. -1.
        -14    1    5    5    0    0 -0.40714472797E+02 -0.19668954362E+02  0.40182304854E+03  0.40435912058E+03  0.00000000000E+00 0.  1.
          5    1    4    4  501    0  0.48841148992E+01 -0.27274757290E+02  0.12621852296E+02  0.30733540618E+02  0.41800000000E+01 0. -1.
         -5    1    4    4    0  501  0.92280346731E+02  0.79819859193E+02 -0.98991586900E+02  0.15717404045E+03  0.41800000000E+01 0. -1.
</event>
<event>
11    1  0.1003949E-008  0.1514459E+03  0.7561462E-02  0.1095410E+00
         22   -1    0    0    0    0  0.00000000000E+00  0.00000000000E+00  0.25645500059E+04  0.25645500059E+04  0.00000000000E+00 0.  1.
         22   -1    0    0    0    0 -0.00000000000E+00 -0.00000000000E+00 -0.14102738774E+03  0.14102738774E+03  0.00000000000E+00 0.  1.
        -24    2    1    2    0    0  0.81699147330E+02 -0.20096744895E+02 -0.10511678618E+03  0.15608578322E+03  0.78959503285E+02 0.  0.
         25    2    1    2    0    0 -0.12054918176E+03  0.39759109221E+02  0.85912921463E+03  0.87742124739E+03  0.12510853669E+03 0.  0.
         24    2    1    2    0    0  0.38850034432E+02 -0.19662364325E+02  0.16695101897E+04  0.16720703631E+04  0.81603257508E+02 0.  0.
        -11    1    5    5    0    0  0.43880397976E+02 -0.30311418440E+02  0.56824373534E+03  0.57074093438E+03  0.00000000000E+00 0.  1.
         12    1    5    5    0    0 -0.50303635443E+01  0.10649054115E+02  0.11012664544E+04  0.11013294287E+04  0.00000000000E+00 0. -1.
         11    1    3    3    0    0  0.93339111890E+02 -0.20283308884E+02 -0.68171321566E+02  0.11734961232E+03  0.00000000000E+00 0. -1.
        -12    1    3    3    0    0 -0.11639964560E+02  0.18656398826E+00 -0.36945464609E+02  0.38736170904E+02  0.00000000000E+00 0.  1.
          5    1    4    4  501    0 -0.11653477609E+03  0.65442892554E+02  0.50793496441E+03  0.52524139849E+03  0.41800000000E+01 0.  1.
         -5    1    4    4    0  501 -0.40144056701E+01 -0.25683783333E+02  0.35119425022E+03  0.35217984890E+03  0.41800000000E+01 0.  1.
</event>
<event>
11    1  0.1003949E-008  0.1573023E+03  0.7561462E-02  0.1089642E+00
         22   -1    0    0    0    0  0.00000000000E+00  0.00000000000E+00  0.17137132986E+03  0.17137132986E+03  0.00000000000E+00 0. -1.
         22   -1    0    0    0    0 -0.00000000000E+00 -0.00000000000E+00 -0.57218756792E+03  0.57218756792E+03  0.00000000000E+00 0. -1.
        -24    2    1    2    0    0 -0.43588917056E+02  0.42289466376E+02 -0.43614908988E+03  0.44765718154E+03  0.80514165990E+02 0.  0.
         25    2    1    2    0    0 -0.30718079928E+02 -0.10237616512E+03 -0.45125683899E+01  0.16459787587E+03  0.12509043867E+03 0.  0.
         24    2    1    2    0    0  0.74306996984E+02  0.60086698748E+02  0.39845420209E+02  0.13130384037E+03  0.80753326968E+02 0.  0.
        -13    1    5    5    0    0 -0.14851475690E+02  0.38464280073E+01  0.17997910183E+02  0.23649230634E+02  0.00000000000E+00 0.  1.
         14    1    5    5    0    0  0.89158472675E+02  0.56240270740E+02  0.21847510026E+02  0.10765460973E+03  0.00000000000E+00 0. -1.
         11    1    3    3    0    0 -0.64509217396E+02  0.45893811622E+02 -0.32543765426E+03  0.33492886988E+03  0.00000000000E+00 0. -1.
        -12    1    3    3    0    0  0.20920300340E+02 -0.36043452462E+01 -0.11071143562E+03  0.11272831166E+03  0.00000000000E+00 0.  1.
          5    1    4    4  501    0  0.22135157939E+01  0.28816719946E+02 -0.25611961645E+00  0.29203441542E+02  0.41800000000E+01 0.  1.
         -5    1    4    4    0  501 -0.32931595722E+02 -0.13119288507E+03 -0.42564487735E+01  0.13539443432E+03  0.41800000000E+01 0.  1.
</event>
<event>
11    1  0.1003949E-008  0.1775978E+03  0.7561462E-02  0.1071603E+00
         22   -1    0    0    0    0  0.00000000000E+00  0.00000000000E+00  0.80126150486E+02  0.80126150486E+02  0.00000000000E+00 0.  1.
         22   -1    0    0    0    0 -0.00000000000E+00 -0.00000000000E+00 -0.21485474186E+04  0.21485474186E+04  0.00000000000E+00 0. -1.
        -24    2    1    2    0    0  0.79773789769E+02  0.27362334216E+00 -0.17617465743E+04  0.17653804466E+04  0.80331792687E+02 0.  0.
         25    2    1    2    0    0 -0.62822072509E+02 -0.12581644886E+03 -0.21762052708E+03  0.28771846896E+03  0.12508729741E+03 0.  0.
         24    2    1    2    0    0 -0.16951717260E+02  0.12554282552E+03 -0.89054166724E+02  0.17557465348E+03  0.82749335806E+02 0.  0.
        -11    1    5    5    0    0  0.20768091339E+02  0.65990795349E+02 -0.10408225037E+02  0.69960201809E+02  0.00000000000E+00 0.  1.
         12    1    5    5    0    0 -0.37719808599E+02  0.59552030171E+02 -0.78645941686E+02  0.10561445167E+03  0.00000000000E+00 0. -1.
         13    1    3    3    0    0  0.36536870337E+02  0.30660867518E+02 -0.12505947013E+04  0.12515039507E+04  0.00000000000E+00 0. -1.
        -14    1    3    3    0    0  0.43236919433E+02 -0.30387244176E+02 -0.51115187295E+03  0.51387649590E+03  0.00000000000E+00 0.  1.
          5    1    4    4  501    0 -0.87838678314E+02 -0.60768952342E+02 -0.17748161610E+03  0.20718517184E+03  0.41800000000E+01 0. -1.
         -5    1    4    4    0  501  0.25016605805E+02 -0.65047496520E+02 -0.40138910978E+02  0.80533297114E+02  0.41800000000E+01 0. -1.
</event>
<event>
11    1  0.1003949E-008  0.3959676E+03  0.7561462E-02  0.9661731E-01
         22   -1    0    0    0    0  0.00000000000E+00  0.00000000000E+00  0.20608310506E+04  0.20608310506E+04  0.00000000000E+00 0.  1.
         22   -1    0    0    0    0 -0.00000000000E+00 -0.00000000000E+00 -0.31332644728E+03  0.31332644728E+03  0.00000000000E+00 0.  1.
        -24    2    1    2    0    0  0.10416509314E+03 -0.50906057471E+02  0.22901545828E+02  0.14451139631E+03  0.83170124119E+02 0.  0.
         25    2    1    2    0    0 -0.42752947497E+03 -0.12936910677E+03 -0.69702417372E-01  0.46385929718E+03  0.12509046714E+03 0.  0.
         24    2    1    2    0    0  0.32336438183E+03  0.18027516424E+03  0.17246727599E+04  0.17657868044E+04  0.80269866476E+02 0.  0.
        -13    1    5    5    0    0  0.24158950861E+03  0.16806210927E+03  0.14138832589E+04  0.14441870491E+04  0.00000000000E+00 0.  1.
         14    1    5    5    0    0  0.81774873216E+02  0.12213054973E+02  0.31078950106E+03  0.32159975524E+03  0.00000000000E+00 0. -1.
         13    1    3    3    0    0  0.42263191496E+02 -0.43899088084E+02 -0.25061844567E+02  0.65889326473E+02  0.00000000000E+00 0. -1.
        -14    1    3    3    0    0  0.61901901647E+02 -0.70069693872E+01  0.47963390395E+02  0.78622069838E+02  0.00000000000E+00 0.  1.
          5    1    4    4  501    0 -0.23993492664E+03 -0.95125255869E+01 -0.15588365985E+02  0.24066517554E+03  0.41800000000E+01 0.  1.
         -5    1    4    4    0  501 -0.18759454833E+03 -0.11985658118E+03  0.15518663568E+02  0.22319412164E+03  0.41800000000E+01 0.  1.
</event>
<event>
11    1  0.1003949E-008  0.2048109E+03  0.7561462E-02  0.1051173E+00
         22   -1    0    0    0    0  0.00000000000E+00  0.00000000000E+00  0.20047972691E+04  0.20047972691E+04  0.00000000000E+00 0. -1.
         22   -1    0    0    0    0 -0.00000000000E+00 -0.00000000000E+00 -0.63914964812E+03  0.63914964812E+03  0.00000000000E+00 0.  1.
         24    2    1    2    0    0  0.86700877841E+02  0.13290985752E+03 -0.57119958382E+03  0.59822710602E+03  0.80153810749E+02 0.  0.
         25    2    1    2    0    0 -0.14045725604E+03 -0.26289071393E+03  0.47275261628E+03  0.57269716956E+03  0.12508894267E+03 0.  0.
        -24    2    1    2    0    0  0.53756378195E+02  0.12998085641E+03  0.14640945885E+04  0.14730226417E+04  0.80236945441E+02 0.  0.
        -13    1    3    3    0    0  0.85106292406E+01  0.82592578459E+02 -0.22771891580E+03  0.24238372354E+03  0.00000000000E+00 0.  1.
         14    1    3    3    0    0  0.78190248601E+02  0.50317279065E+02 -0.34348066802E+03  0.35584338248E+03  0.00000000000E+00 0. -1.
         11    1    5    5    0    0 -0.20336624526E+02  0.40189799113E+02  0.35958206577E+03  0.36239213605E+03  0.00000000000E+00 0. -1.
        -12    1    5    5    0    0  0.74093002721E+02  0.89791057296E+02  0.11045125228E+04  0.11106305056E+04  0.00000000000E+00 0.  1.
          5    1    4    4  501    0 -0.14517216032E+02 -0.14855157654E+03  0.26485946197E+03  0.30404987658E+03  0.41800000000E+01 0. -1.
         -5    1    4    4    0  501 -0.12594004000E+03 -0.11433913739E+03  0.20789315431E+03  0.26864729298E+03  0.41800000000E+01 0. -1.
</event>
<event>
11    1  0.1003949E-008  0.1505228E+03  0.7561462E-02  0.1096346E+00
         22   -1    0    0    0    0  0.00000000000E+00  0.00000000000E+00  0.22992930768E+03  0.22992930768E+03  0.00000000000E+00 0. -1.
         22   -1    0    0    0    0 -0.00000000000E+00 -0.00000000000E+00 -0.13290493107E+04  0.13290493107E+04  0.00000000000E+00 0. -1.
         24    2    1    2    0    0  0.82091786934E+02 -0.92857659450E+00 -0.11776778345E+04  0.11832414012E+04  0.79970043116E+02 0.  0.
         25    2    1    2    0    0 -0.11413724300E+03  0.17755260267E+01 -0.85947524661E+02  0.18990694024E+03  0.12508879336E+03 0.  0.
        -24    2    1    2    0    0  0.32045456071E+02 -0.84694943217E+00  0.16450535612E+03  0.18583027700E+03  0.80269864078E+02 0.  0.
        -13    1    3    3    0    0 -0.10263640778E+02 -0.17207485600E+02 -0.15938228729E+03  0.16063671244E+03  0.00000000000E+00 0.  1.
         14    1    3    3    0    0  0.92355427712E+02  0.16278909005E+02 -0.10182955472E+04  0.10226046887E+04  0.00000000000E+00 0. -1.
         13    1    5    5    0    0 -0.23766294936E+02  0.29363645999E+01  0.87068243367E+02  0.90301373273E+02  0.00000000000E+00 0. -1.
        -14    1    5    5    0    0  0.55811751007E+02 -0.37833140321E+01  0.77437112757E+02  0.95528903729E+02  0.00000000000E+00 0.  1.
          5    1    4    4  501    0 -0.13587203992E+03 -0.13272103280E+02 -0.88921846107E+02  0.16297830246E+03  0.41800000000E+01 0. -1.
         -5    1    4    4    0  501  0.21734796916E+02  0.15047629307E+02  0.29743214469E+01  0.26928637782E+02  0.41800000000E+01 0. -1.
</event>
<event>
11    1  0.1003949E-008  0.1384559E+03  0.7561462E-02  0.1109295E+00
         22   -1    0    0    0    0  0.00000000000E+00  0.00000000000E+00  0.23945316052E+03  0.23945316052E+03  0.00000000000E+00 0.  1.
         22   -1    0    0    0    0 -0.00000000000E+00 -0.00000000000E+00 -0.10868897699E+04  0.10868897699E+04  0.00000000000E+00 0.  1.
         24    2    1    2    0    0 -0.23821362969E+01  0.35974513643E+02 -0.95337626921E+03  0.95737618248E+03  0.79642977610E+02 0.  0.
         25    2    1    2    0    0 -0.52251019869E+02 -0.87304630224E+01 -0.79865046246E+02  0.15758016063E+03  0.12508673531E+03 0.  0.
        -24    2    1    2    0    0  0.54633156166E+02 -0.27244050621E+02  0.18580470607E+03  0.21138658732E+03  0.80211473350E+02 0.  0.
        -13    1    3    3    0    0  0.97625479795E+01  0.59394285717E+02 -0.59781471546E+03  0.60083726793E+03  0.00000000000E+00 0.  1.
         14    1    3    3    0    0 -0.12144684276E+02 -0.23419772074E+02 -0.35556155375E+03  0.35653891455E+03  0.00000000000E+00 0. -1.
         13    1    5    5    0    0  0.20686773566E+01 -0.25191431492E+02  0.88538873461E+01  0.26782064292E+02  0.00000000000E+00 0. -1.
        -14    1    5    5    0    0  0.52564478809E+02 -0.20526191291E+01  0.17695081872E+03  0.18460452303E+03  0.00000000000E+00 0.  1.
          5    1    4    4  501    0 -0.51865096639E+02 -0.58330944306E+02 -0.73682184010E+02  0.10741984897E+03  0.41800000000E+01 0. -1.
         -5    1    4    4    0  501 -0.38592323022E+00  0.49600481284E+02 -0.61828622364E+01  0.50160311659E+02  0.41800000000E+01 0. -1.
</event>
<event>
11    1  0.1003949E-008  0.1818653E+03  0.7561462E-02  0.1068144E+00
         22   -1    0    0    0    0  0.00000000000E+00  0.00000000000E+00  0.41028757023E+03  0.41028757023E+03  0.00000000000E+00 0. -1.
         22   -1    0    0    0    0 -0.00000000000E+00 -0.00000000000E+00 -0.24314409023E+03  0.24314409023E+03  0.00000000000E+00 0.  1.
        -24    2    1    2    0    0  0.23204327641E+02  0.12964172164E+03 -0.55204568234E+02  0.16327730410E+03  0.79161334440E+02 0.  0.
         25    2    1    2    0    0  0.95125760591E+02 -0.40066572076E+02 -0.49993524468E+02  0.16970957364E+03  0.12509095239E+03 0.  0.
         24    2    1    2    0    0 -0.11833008823E+03 -0.89575149560E+02  0.27234157270E+03  0.32044478272E+03  0.80555628940E+02 0.  0.
        -13    1    5    5    0    0 -0.30573504663E+02  0.69540487832E+01  0.96690255895E+02  0.10164695552E+03  0.00000000000E+00 0.  1.
         14    1    5    5    0    0 -0.87756583569E+02 -0.96529198343E+02  0.17565131680E+03  0.21879782720E+03  0.00000000000E+00 0. -1.
         11    1    3    3    0    0  0.16114434459E+02  0.13642497694E+03 -0.62625549302E+02  0.15097486134E+03  0.00000000000E+00 0. -1.
        -12    1    3    3    0    0  0.70898931811E+01 -0.67832553045E+01  0.74209810685E+01  0.12302442760E+02  0.00000000000E+00 0.  1.
          5    1    4    4  501    0 -0.26186896246E+02 -0.10158004732E+02  0.11193758876E+02  0.30523945238E+02  0.41800000000E+01 0.  1.
         -5    1    4    4    0  501  0.12131265684E+03 -0.29908567344E+02 -0.61187283344E+02  0.13918562840E+03  0.41800000000E+01 0.  1.
</event>
<event>
11    1  0.1003949E-008  0.1815267E+03  0.7561462E-02  0.1068415E+00
         22   -1    0    0    0    0  0.00000000000E+00  0.00000000000E+00  0.66304744375E+03  0.66304744375E+03  0.00000000000E+00 0. -1.
         22   -1    0    0    0    0 -0.00000000000E+00 -0.00000000000E+00 -0.28977848278E+04  0.28977848278E+04  0.00000000000E+00 0.  1.
        -24    2    1    2    0    0  0.17436519809E+01  0.44573725347E+02 -0.26748492468E+04  0.26763137850E+04  0.76466500184E+02 0.  0.
         25    2    1    2    0    0  0.12985088617E+03 -0.40207691763E+02 -0.17257715806E+03  0.25280267914E+03  0.12509359688E+03 0.  0.
         24    2    1    2    0    0 -0.13159453815E+03 -0.43660335842E+01  0.61268902077E+03  0.63171580740E+03  0.79629394277E+02 0.  0.
        -11    1    5    5    0    0 -0.29767896283E+02  0.29655463872E+02  0.11144423964E+03  0.11910244638E+03  0.00000000000E+00 0.  1.
         12    1    5    5    0    0 -0.10182664187E+03 -0.34021497456E+02  0.50124478113E+03  0.51261336102E+03  0.00000000000E+00 0. -1.
         13    1    3    3    0    0  0.30873383624E+02  0.41326846127E+02 -0.11189198348E+04  0.11201083299E+04  0.00000000000E+00 0. -1.
        -14    1    3    3    0    0 -0.29129731643E+02  0.32468792202E+01 -0.15559294120E+04  0.15562054552E+04  0.00000000000E+00 0.  1.
          5    1    4    4  501    0  0.14572427575E+03 -0.54291668752E+01 -0.14304269051E+03  0.20431280944E+03  0.41800000000E+01 0.  1.
         -5    1    4    4    0  501 -0.15873389574E+02 -0.34778524887E+02 -0.29534467552E+02  0.48489869699E+02  0.41800000000E+01 0.  1.
</event>
<event>
11    1  0.1003949E-008  0.2120111E+03  0.7561462E-02  0.1046341E+00
         22   -1    0    0    0    0  0.00000000000E+00  0.00000000000E+00  0.26164939271E+03  0.26164939271E+03  0.00000000000E+00 0. -1.
         22   -1    0    0    0    0 -0.00000000000E+00 -0.00000000000E+00 -0.17470673577E+04  0.17470673577E+04  0.00000000000E+00 0.  1.
         24    2    1    2    0    0 -0.55971385078E+02  0.16094339254E+03 -0.16027733943E+04  0.16140409044E+04  0.84911224997E+02 0.  0.
         25    2    1    2    0    0  0.10850651511E+02 -0.19261736917E+03 -0.17123479926E+02  0.23056440104E+03  0.12509013518E+03 0.  0.
        -24    2    1    2    0    0  0.45120733567E+02  0.31673976632E+02  0.13447890919E+03  0.16411144500E+03  0.76215929889E+02 0.  0.
        -11    1    3    3    0    0 -0.65534793611E+02  0.59890652297E+02 -0.72184835068E+03  0.72728724778E+03  0.00000000000E+00 0.  1.
         12    1    3    3    0    0  0.95634085329E+01  0.10105274024E+03 -0.88092504361E+03  0.88675365663E+03  0.00000000000E+00 0. -1.
         11    1    5    5    0    0  0.53208070965E+02  0.50509476153E+02  0.10938574396E+03  0.13171008685E+03  0.00000000000E+00 0. -1.
        -12    1    5    5    0    0 -0.80873373979E+01 -0.18835499520E+02  0.25093165231E+02  0.32401358145E+02  0.00000000000E+00 0.  1.
          5    1    4    4  501    0  0.20723639735E+02 -0.13614292504E+02 -0.42572224749E+02  0.49443755161E+02  0.41800000000E+01 0. -1.
         -5    1    4    4    0  501 -0.98729882246E+01 -0.17900307666E+03  0.25448744823E+02  0.18112064588E+03  0.41800000000E+01 0. -1.
</event>
<event>
11    1  0.1003949E-008  0.1309649E+03  0.7561462E-02  0.1118089E+00
         22   -1    0    0    0    0  0.00000000000E+00  0.00000000000E+00  0.10771734297E+04  0.10771734297E+04  0.00000000000E+00 0. -1.
         22   -1    0    0    0    0 -0.00000000000E+00 -0.00000000000E+00 -0.46423911766E+02  0.46423911766E+02  0.00000000000E+00 0.  1.
         24    2    1    2    0    0 -0.28380716636E+01 -0.11049561012E+03  0.15920636617E+03  0.21036582365E+03  0.81791064449E+02 0.  0.
         25    2    1    2    0    0  0.28307494279E+02  0.12831049919E+02  0.28724573786E+03  0.31483907656E+03  0.12509028794E+03 0.  0.
        -24    2    1    2    0    0 -0.25469422615E+02  0.97664560203E+02  0.58429741386E+03  0.59839244121E+03  0.80517004706E+02 0.  0.
        -13    1    3    3    0    0  0.28136932653E+01 -0.32143367201E+02 -0.62563994008E+00  0.32272346523E+02  0.00000000000E+00 0.  1.
         14    1    3    3    0    0 -0.56517649290E+01 -0.78352242921E+02  0.15983200611E+03  0.17809347713E+03  0.00000000000E+00 0. -1.
         11    1    5    5    0    0  0.76985979474E+01  0.42749865796E+01  0.23879374353E+03  0.23895605426E+03  0.00000000000E+00 0. -1.
        -12    1    5    5    0    0 -0.33168020563E+02  0.93389573623E+02  0.34550367033E+03  0.35943638695E+03  0.00000000000E+00 0.  1.
          5    1    4    4  501    0  0.20283933338E+02  0.60476925750E+02  0.82170652068E+02  0.10410756438E+03  0.41800000000E+01 0.  1.
         -5    1    4    4    0  501  0.80235609412E+01 -0.47645875831E+02  0.20507508579E+03  0.21073151218E+03  0.41800000000E+01 0.  1.
</event>
<event>
11    1  0.1003949E-008  0.2270598E+03  0.7561462E-02  0.1036883E+00
         22   -1    0    0    0    0  0.00000000000E+00  0.00000000000E+00  0.12336859433E+04  0.12336859433E+04  0.00000000000E+00 0.  1.
         22   -1    0    0    0    0 -0.00000000000E+00 -0.00000000000E+00 -0.25067933933E+03  0.25067933933E+03  0.00000000000E+00 0. -1.
         24    2    1    2    0    0  0.92094099625E+01 -0.44790409166E+02 -0.19837575950E+03  0.21858074593E+03  0.79583959131E+02 0.  0.
         25    2    1    2    0    0 -0.15876846148E+03 -0.82384932983E+02  0.39357851580E+03  0.45004784012E+03  0.12507721118E+03 0.  0.
        -24    2    1    2    0    0  0.14955905152E+03  0.12717534215E+03  0.78780384771E+03  0.81573669662E+03  0.79056803599E+02 0.  0.
        -13    1    3    3    0    0  0.31647239623E+02 -0.56845867830E+01 -0.28975175117E+02  0.43283057606E+02  0.00000000000E+00 0.  1.
         14    1    3    3    0    0 -0.22437829661E+02 -0.39105822383E+02 -0.16940058438E+03  0.17529768833E+03  0.00000000000E+00 0. -1.
         13    1    5    5    0    0  0.42597683365E+02  0.39188327698E+02  0.11407902079E+03  0.12792306532E+03  0.00000000000E+00 0. -1.
        -14    1    5    5    0    0  0.10696136815E+03  0.87987014450E+02  0.67372482693E+03  0.68781363130E+03  0.00000000000E+00 0.  1.
          5    1    4    4  501    0 -0.12030800508E+03 -0.29362764366E+02  0.13489546632E+03  0.18316781172E+03  0.41800000000E+01 0.  1.
         -5    1    4    4    0  501 -0.38460456401E+02 -0.53022168617E+02  0.25868304948E+03  0.26688002840E+03  0.41800000000E+01 0.  1.
</event>
<event>
11    1  0.1003949E-008  0.1775257E+03  0.7561462E-02  0.1071662E+00
         22   -1    0    0    0    0  0.00000000000E+00  0.00000000000E+00  0.64425329861E+03  0.64425329861E+03  0.00000000000E+00 0. -1.
         22   -1    0    0    0    0 -0.00000000000E+00 -0.00000000000E+00 -0.81527455518E+03  0.81527455518E+03  0.00000000000E+00 0.  1.
         24    2    1    2    0    0  0.35052858279E+02  0.98486898943E+02 -0.73278540683E+03  0.74446491828E+03  0.79531062869E+02 0.  0.
         25    2    1    2    0    0  0.74598496254E+02 -0.15471096321E+03  0.10508267617E+03  0.23704515947E+03  0.12509045134E+03 0.  0.
        -24    2    1    2    0    0 -0.10965135453E+03  0.56224064265E+02  0.45668147409E+03  0.47801777604E+03  0.68981595199E+02 0.  0.
        -13    1    3    3    0    0  0.68997237341E+01  0.69886476579E+02 -0.63342199271E+03  0.63730302576E+03  0.00000000000E+00 0.  1.
         14    1    3    3    0    0  0.28153134545E+02  0.28600422364E+02 -0.99363414116E+02  0.10716189252E+03  0.00000000000E+00 0. -1.
         11    1    5    5    0    0 -0.37388074295E+02  0.19945300421E+02  0.28634668042E+03  0.28946520429E+03  0.00000000000E+00 0. -1.
        -12    1    5    5    0    0 -0.72263280239E+02  0.36278763844E+02  0.17033479368E+03  0.18855257175E+03  0.00000000000E+00 0.  1.
          5    1    4    4  501    0 -0.24259042551E+02 -0.10519996528E+02 -0.90064653976E+01  0.28244650669E+02  0.41800000000E+01 0.  1.
         -5    1    4    4    0  501  0.98857538806E+02 -0.14419096668E+03  0.11408914157E+03  0.20880050880E+03  0.41800000000E+01 0.  1.
</event>
<event>
11    1  0.1003949E-008  0.1549408E+03  0.7561462E-02  0.1091935E+00
         22   -1    0    0    0    0  0.00000000000E+00  0.00000000000E+00  0.14609287920E+04  0.14609287920E+04  0.00000000000E+00 0. -1.
         22   -1    0    0    0    0 -0.00000000000E+00 -0.00000000000E+00 -0.81776146212E+03  0.81776146212E+03  0.00000000000E+00 0. -1.
        -24    2    1    2    0    0  0.36157127801E+02  0.58321256200E+02 -0.67629140960E+03  0.68427702191E+03  0.78461871033E+02 0.  0.
         25    2    1    2    0    0  0.54149098491E+02 -0.75360463478E+02 -0.89825955291E+02  0.17979831306E+03  0.12508959514E+03 0.  0.
         24    2    1    2    0    0 -0.90306226292E+02  0.17039207278E+02  0.14092846948E+04  0.14146149192E+04  0.81280191163E+02 0.  0.
        -11    1    5    5    0    0 -0.44810192188E+02  0.45536876601E+02  0.55939010270E+03  0.56302650689E+03  0.00000000000E+00 0.  1.
         12    1    5    5    0    0 -0.45496034104E+02 -0.28497669323E+02  0.84989459210E+03  0.85158841230E+03  0.00000000000E+00 0. -1.
         13    1    3    3    0    0  0.16465091075E+02  0.71930216424E+02 -0.38527399547E+03  0.39227682425E+03  0.00000000000E+00 0. -1.
        -14    1    3    3    0    0  0.19692036726E+02 -0.13608960223E+02 -0.29101741413E+03  0.29200019767E+03  0.00000000000E+00 0.  1.
          5    1    4    4  501    0  0.44720847120E+02 -0.32428934643E+02  0.21972110140E+02  0.59597281761E+02  0.41800000000E+01 0. -1.
         -5    1    4    4    0  501  0.94282513708E+01 -0.42931528835E+02 -0.11179806543E+03  0.12020103130E+03  0.41800000000E+01 0. -1.
</event>
<event>
11    1  0.1003949E-008  0.5727497E+03  0.7561462E-02  0.9244207E-01
         22   -1    0    0    0    0  0.00000000000E+00  0.00000000000E+00  0.29654787190E+03  0.29654787190E+03  0.00000000000E+00 0.  1.
         22   -1    0    0    0    0 -0.00000000000E+00 -0.00000000000E+00 -0.18975209227E+04  0.18975209227E+04  0.00000000000E+00 0.  1.
        -24    2    1    2    0    0 -0.75597281950E+02 -0.99968176774E+02 -0.28414437358E+03  0.32079264416E+03  0.80382274814E+02 0.  0.
         25    2    1    2    0    0  0.45367626587E+03 -0.31823269508E+03 -0.11458512060E+04  0.12789515085E+04  0.12509105683E+03 0.  0.
         24    2    1    2    0    0 -0.37807898392E+03  0.41820087185E+03 -0.17097747122E+03  0.59432464188E+03  0.78439766593E+02 0.  0.
        -11    1    5    5    0    0 -0.36264674836E+03  0.41848971293E+03 -0.16686272115E+03  0.57835064765E+03  0.00000000000E+00 0.  1.
         12    1    5    5    0    0 -0.15432235559E+02 -0.28884108339E+00 -0.41147500692E+01  0.15973994230E+02  0.00000000000E+00 0. -1.
         13    1    3    3    0    0 -0.77488591695E+02 -0.38583543271E+02 -0.14838607322E+03  0.17178940125E+03  0.00000000000E+00 0. -1.
        -14    1    3    3    0    0  0.18913097451E+01 -0.61384633503E+02 -0.13575830035E+03  0.14900324291E+03  0.00000000000E+00 0.  1.
          5    1    4    4  501    0  0.24305211410E+03 -0.21900823093E+03 -0.56095900462E+03  0.64940850983E+03  0.41800000000E+01 0.  1.
         -5    1    4    4    0  501  0.21062415177E+03 -0.99224464150E+02 -0.58489220137E+03  0.62954299871E+03  0.41800000000E+01 0.  1.
</event>
<event>
11    1  0.1003949E-008  0.1503812E+03  0.7561462E-02  0.1096490E+00
         22   -1    0    0    0    0  0.00000000000E+00  0.00000000000E+00  0.97845583592E+02  0.97845583592E+02  0.00000000000E+00 0.  1.
         22   -1    0    0    0    0 -0.00000000000E+00 -0.00000000000E+00 -0.18646878703E+04  0.18646878703E+04  0.00000000000E+00 0.  1.
        -24    2    1    2    0    0 -0.34918760326E+02  0.22625886540E+02 -0.13261224712E+04  0.13292434339E+04  0.80969422356E+02 0.  0.
         25    2    1    2    0    0  0.47418654841E+02  0.61135394147E+02 -0.48617710531E+03  0.50794093792E+03  0.12509897462E+03 0.  0.
         24    2    1    2    0    0 -0.12499894516E+02 -0.83761280687E+02  0.45457289801E+02  0.12534908207E+03  0.80460099895E+02 0.  0.
        -13    1    5    5    0    0 -0.18648489570E+02 -0.98521964618E+02  0.43273615269E+02  0.10921057391E+03  0.00000000000E+00 0.  1.
         14    1    5    5    0    0  0.61485950542E+01  0.14760683931E+02  0.21836745315E+01  0.16138508162E+02  0.00000000000E+00 0. -1.
         13    1    3    3    0    0 -0.11300202862E+02  0.49949689449E+02 -0.95363280871E+03  0.95500691093E+03  0.00000000000E+00 0. -1.
        -14    1    3    3    0    0 -0.23618557463E+02 -0.27323802909E+02 -0.37248966251E+03  0.37423652299E+03  0.00000000000E+00 0.  1.
          5    1    4    4  501    0  0.67746389221E+02  0.51261870874E+02 -0.47468550563E+03  0.48224594794E+03  0.41800000000E+01 0.  1.
         -5    1    4    4    0  501 -0.20327734380E+02  0.98735232738E+01 -0.11491599680E+02  0.25694989980E+02  0.41800000000E+01 0.  1.
</event>
<event>
11    1  0.1003949E-008  0.1580753E+03  0.7561462E-02  0.1088902E+00
         22   -1    0    0    0    0  0.00000000000E+00  0.00000000000E+00  0.11081489649E+04  0.11081489649E+04  0.00000000000E+00 0. -1.
         22   -1    0    0    0    0 -0.00000000000E+00 -0.00000000000E+00 -0.13435589486E+03  0.13435589486E+03  0.00000000000E+00 0.  1.
        -24    2    1    2    0    0 -0.13456015850E+02 -0.95649595810E+02 -0.32982473119E+02  0.13007450989E+03  0.80632654973E+02 0.  0.
         25    2    1    2    0    0 -0.25997411121E+01  0.97710051636E+02  0.72409759246E+02  0.17448473121E+03  0.12509090834E+03 0.  0.
         24    2    1    2    0    0  0.16055756962E+02 -0.20604558263E+01  0.93436578393E+03  0.93794561868E+03  0.80252929011E+02 0.  0.
        -13    1    5    5    0    0  0.32371419364E+02  0.24120405886E+02  0.28470631655E+03  0.28755415047E+03  0.00000000000E+00 0.  1.
         14    1    5    5    0    0 -0.16315662403E+02 -0.26180861712E+02  0.64965946738E+03  0.65039146820E+03  0.00000000000E+00 0. -1.
         11    1    3    3    0    0  0.66145074295E+01  0.11562924234E+02  0.54975047390E+01  0.14410950133E+02  0.00000000000E+00 0. -1.
        -12    1    3    3    0    0 -0.20070523279E+02 -0.10721252004E+03 -0.38479977858E+02  0.11566355975E+03  0.00000000000E+00 0.  1.
          5    1    4    4  501    0  0.49681505535E+02  0.24208775517E+01  0.20466192041E+02  0.53948587164E+02  0.41800000000E+01 0. -1.
         -5    1    4    4    0  501 -0.52281246647E+02  0.95289174084E+02  0.51943567205E+02  0.12053614405E+03  0.41800000000E+01 0. -1.
</event>
<event>
11    1  0.1003949E-008  0.2025155E+03  0.7561462E-02  0.1052759E+00
         22   -1    0    0    0    0  0.00000000000E+00  0.00000000000E+00  0.87207038863E+03  0.87207038863E+03  0.00000000000E+00 0. -1.
         22   -1    0    0    0    0 -0.00000000000E+00 -0.00000000000E+00 -0.35312474185E+03  0.35312474185E+03  0.00000000000E+00 0.  1.
        -24    2    1    2    0    0  0.21290170641E+02 -0.40215790809E+02 -0.29273446368E+03  0.30800034956E+03  0.84262494088E+02 0.  0.
         25    2    1    2    0    0 -0.44479333228E+01  0.18886808303E+03  0.28648377317E+03  0.36525887801E+03  0.12510059465E+03 0.  0.
         24    2    1    2    0    0 -0.16842237319E+02 -0.14865229222E+03  0.52519633729E+03  0.55193590290E+03  0.80130414157E+02 0.  0.
        -11    1    5    5    0    0  0.30620144762E+02 -0.52121998489E+02  0.15306254820E+03  0.16456743193E+03  0.00000000000E+00 0.  1.
         12    1    5    5    0    0 -0.47462382081E+02 -0.96530293731E+02  0.37213378909E+03  0.38736847097E+03  0.00000000000E+00 0. -1.
         11    1    3    3    0    0  0.10883820488E+02 -0.46762869758E+02 -0.69751932028E+02  0.84679132955E+02  0.00000000000E+00 0. -1.
        -12    1    3    3    0    0  0.10406350154E+02  0.65470789489E+01 -0.22298253165E+03  0.22332121661E+03  0.00000000000E+00 0.  1.
          5    1    4    4  501    0 -0.52827043264E+02  0.90758485696E+02  0.81942276950E+02  0.13326593105E+03  0.41800000000E+01 0.  1.
         -5    1    4    4    0  501  0.48379109941E+02  0.98109597333E+02  0.20454149622E+03  0.23199294697E+03  0.41800000000E+01 0.  1.
</event>
<event>
11    1  0.1003949E-008  0.1330955E+03  0.7561462E-02  0.1115523E+00
         22   -1    0    0    0    0  0.00000000000E+00  0.00000000000E+00  0.19203738070E+03  0.19203738070E+03  0.00000000000E+00 0. -1.
         22   -1    0    0    0    0 -0.00000000000E+00 -0.00000000000E+00 -0.13024227385E+04  0.13024227385E+04  0.00000000000E+00 0.  1.
        -24    2    1    2    0    0  0.94381648789E+01  0.44348474473E+02 -0.11964474122E+04  0.12001862141E+04  0.83094356999E+02 0.  0.
         25    2    1    2    0    0 -0.42529835663E+01 -0.49302771832E+02 -0.43932117187E+02  0.14150886224E+03  0.12508347610E+03 0.  0.
         24    2    1    2    0    0 -0.51851813126E+01  0.49542973582E+01  0.12999417160E+03  0.15276504286E+03  0.79920225869E+02 0.  0.
        -11    1    5    5    0    0 -0.38694144591E+01 -0.34264100612E+02  0.31351293528E+02  0.46603696901E+02  0.00000000000E+00 0.  1.
         12    1    5    5    0    0 -0.13157668535E+01  0.39218397970E+02  0.98642878071E+02  0.10616134596E+03  0.00000000000E+00 0. -1.
         13    1    3    3    0    0  0.20448013193E+02 -0.18024484856E+02 -0.54083716890E+03  0.54152363435E+03  0.00000000000E+00 0. -1.
        -14    1    3    3    0    0 -0.11009848314E+02  0.62372959330E+02 -0.65561024335E+03  0.65866257978E+03  0.00000000000E+00 0.  1.
          5    1    4    4  501    0  0.35248931402E+02 -0.56470584327E+02 -0.67395201155E+02  0.94820881655E+02  0.41800000000E+01 0. -1.
         -5    1    4    4    0  501 -0.39501914968E+02  0.71678124955E+01  0.23463083968E+02  0.46687980588E+02  0.41800000000E+01 0. -1.
</event>
<event>
11    1  0.1003949E-008  0.1276900E+03  0.7561462E-02  0.1122140E+00
         22   -1    0    0    0    0  0.00000000000E+00  0.00000000000E+00  0.32883714662E+03  0.32883714662E+03  0.00000000000E+00 0. -1.
         22   -1    0    0    0    0 -0.00000000000E+00 -0.00000000000E+00 -0.43335876421E+03  0.43335876421E+03  0.00000000000E+00 0.  1.
         24    2    1    2    0    0 -0.25546918884E+01  0.16818780692E+01 -0.32159205711E+03  0.33161208840E+03  0.80844114276E+02 0.  0.
         25    2    1    2    0    0 -0.13921878214E+02 -0.21370202402E+02 -0.57172180260E+02  0.13987897985E+03  0.12508783540E+03 0.  0.
        -24    2    1    2    0    0  0.16476570102E+02  0.19688324333E+02  0.27424261978E+03  0.29070484258E+03  0.92957966408E+02 0.  0.
        -11    1    3    3    0    0 -0.36528509049E+02 -0.12665685835E+02 -0.22344201297E+03  0.22676217659E+03  0.00000000000E+00 0.  1.
         12    1    3    3    0    0  0.33973817161E+02  0.14347563904E+02 -0.98150044140E+02  0.10484991181E+03  0.00000000000E+00 0. -1.
         13    1    5    5    0    0 -0.25227217684E+02 -0.99642867159E+01  0.19154413925E+03  0.19345505111E+03  0.00000000000E+00 0. -1.
        -14    1    5    5    0    0  0.41703787786E+02  0.29652611049E+02  0.82698480532E+02  0.97249791465E+02  0.00000000000E+00 0.  1.
          5    1    4    4  501    0  0.11452912380E+02 -0.38500337514E+02 -0.87632177513E+02  0.96489979409E+02  0.41800000000E+01 0. -1.
         -5    1    4    4    0  501 -0.25374790593E+02  0.17130135112E+02  0.30459997254E+02  0.43389000441E+02  0.41800000000E+01 0. -1.
</event>
<event>
11    1  0.1003949E-008  0.1287307E+03  0.7561462E-02  0.1120838E+00
         22   -1    0    0    0    0  0.00000000000E+00  0.00000000000E+00  0.30060945212E+03  0.30060945212E+03  0.00000000000E+00 0.  1.
         22   -1    0    0    0    0 -0.00000000000E+00 -0.00000000000E+00 -0.11396013830E+04  0.11396013830E+04  0.00000000000E+00 0. -1.
         24    2    1    2    0    0 -0.10351462919E+02 -0.21091451229E+02 -0.60287161473E+03  0.60848526764E+03  0.79045145234E+02 0.  0.
         25    2    1    2    0    0  0.34981543547E+02  0.38473521952E+02 -0.51876596884E+03  0.53616206197E+03  0.12509079099E+03 0.  0.
        -24    2    1    2    0    0 -0.24630080627E+02 -0.17382070723E+02  0.28264565270E+03  0.29556350551E+03  0.80996565010E+02 0.  0.
        -13    1    3    3    0    0  0.81967742023E+01  0.11333887005E+02 -0.19932823279E+02  0.24350801750E+02  0.00000000000E+00 0.  1.
         14    1    3    3    0    0 -0.18548237122E+02 -0.32425338234E+02 -0.58293879145E+03  0.58413446589E+03  0.00000000000E+00 0. -1.
         11    1    5    5    0    0  0.22657124337E+02 -0.18095067316E+02  0.47044427564E+02  0.55262599552E+02  0.00000000000E+00 0. -1.
        -12    1    5    5    0    0 -0.47287204965E+02  0.71299659344E+00  0.23560122513E+03  0.24030090595E+03  0.00000000000E+00 0.  1.
          5    1    4    4  501    0  0.66027252319E+02 -0.67633470509E+01 -0.39712089470E+03  0.40265098822E+03  0.41800000000E+01 0. -1.
         -5    1    4    4    0  501 -0.31045708772E+02  0.45236869003E+02 -0.12164507414E+03  0.13351107375E+03  0.41800000000E+01 0. -1.
</event>
<event>
11    1  0.1003949E-008  0.1742894E+03  0.7561462E-02  0.1074358E+00
         22   -1    0    0    0    0  0.00000000000E+00  0.00000000000E+00  0.92659514822E+03  0.92659514822E+03  0.00000000000E+00 0.  1.
         22   -1    0    0    0    0 -0.00000000000E+00 -0.00000000000E+00 -0.40056986478E+03  0.40056986478E+03  0.00000000000E+00 0.  1.
         24    2    1    2    0    0 -0.14340704331E+02 -0.26019493325E+02 -0.35206706930E+03  0.36269907679E+03  0.81955653785E+02 0.  0.
         25    2    1    2    0    0  0.12979829691E+03 -0.71472484430E+01  0.19243878246E+03  0.26377032710E+03  0.12507365598E+03 0.  0.
        -24    2    1    2    0    0 -0.11545759258E+03  0.33166741768E+02  0.68565357029E+03  0.70069560911E+03  0.80143806551E+02 0.  0.
        -11    1    3    3    0    0  0.24489992171E+02 -0.19599351310E+02 -0.26851770363E+03  0.27034358038E+03  0.00000000000E+00 0.  1.
         12    1    3    3    0    0 -0.38830696502E+02 -0.64201420148E+01 -0.83549365666E+02  0.92355496412E+02  0.00000000000E+00 0. -1.
         11    1    5    5    0    0 -0.12686312138E+03  0.25878554383E+02  0.58643356043E+03  0.60055663508E+03  0.00000000000E+00 0. -1.
        -12    1    5    5    0    0  0.11405528795E+02  0.72881873847E+01  0.99220009860E+02  0.10013897403E+03  0.00000000000E+00 0.  1.
          5    1    4    4  501    0  0.15287291123E+02  0.49644769286E+02  0.48001208992E+02  0.70851202192E+02  0.41800000000E+01 0.  1.
         -5    1    4    4    0  501  0.11451100579E+03 -0.56792017729E+02  0.14443757347E+03  0.19291912490E+03  0.41800000000E+01 0.  1.
</event>
<event>
11    1  0.1003949E-008  0.1303651E+03  0.7561462E-02  0.1118821E+00
         22   -1    0    0    0    0  0.00000000000E+00  0.00000000000E+00  0.25398482498E+03  0.25398482498E+03  0.00000000000E+00 0. -1.
         22   -1    0    0    0    0 -0.00000000000E+00 -0.00000000000E+00 -0.54144558509E+03  0.54144558509E+03  0.00000000000E+00 0. -1.
         24    2    1    2    0    0 -0.15834986809E+02 -0.30539789564E+02 -0.36416887274E+03  0.37494221362E+03  0.82336323233E+02 0.  0.
         25    2    1    2    0    0  0.16081609459E+02  0.46096327742E+02 -0.13635225942E+03  0.19137323048E+03  0.12509310572E+03 0.  0.
        -24    2    1    2    0    0 -0.24662264920E+00 -0.15556538178E+02  0.21306037205E+03  0.22911496597E+03  0.82806272649E+02 0.  0.
        -13    1    3    3    0    0  0.31037459804E+02 -0.76972189100E+01 -0.82360414455E+02  0.88350489298E+02  0.00000000000E+00 0.  1.
         14    1    3    3    0    0 -0.46872446613E+02 -0.22842570654E+02 -0.28180845829E+03  0.28659172432E+03  0.00000000000E+00 0. -1.
         11    1    5    5    0    0  0.28262417383E+02 -0.26851043374E+02  0.51074948865E+02  0.64252573242E+02  0.00000000000E+00 0. -1.
        -12    1    5    5    0    0 -0.28509040032E+02  0.11294505196E+02  0.16198542319E+03  0.16486239273E+03  0.00000000000E+00 0.  1.
          5    1    4    4  501    0  0.27278826285E+01  0.68682429589E+02 -0.14732690832E+03  0.16262659006E+03  0.41800000000E+01 0.  1.
         -5    1    4    4    0  501  0.13353726830E+02 -0.22586101847E+02  0.10974648900E+02  0.28746640419E+02  0.41800000000E+01 0.  1.
</event>
<event>
11    1  0.1003949E-008  0.1755191E+03  0.7561462E-02  0.1073326E+00
         22   -1    0    0    0    0  0.00000000000E+00  0.00000000000E+00  0.17814561800E+03  0.17814561800E+03  0.00000000000E+00 0. -1.
         22   -1    0    0    0    0 -0.00000000000E+00 -0.00000000000E+00 -0.46585097417E+03  0.46585097417E+03  0.00000000000E+00 0. -1.
         24    2    1    2    0    0 -0.38723801841E+02  0.94624101555E+01 -0.25695531668E+03  0.27049408727E+03  0.74511384656E+02 0.  0.
         25    2    1    2    0    0  0.15316790400E+03 -0.33129083211E+01 -0.94883237513E+02  0.21936174217E+03  0.12508142542E+03 0.  0.
        -24    2    1    2    0    0 -0.11444410216E+03 -0.61495018345E+01  0.64133198017E+02  0.15414076274E+03  0.80691007906E+02 0.  0.
        -11    1    3    3    0    0 -0.47997817869E+02  0.28293200399E+02 -0.12466877452E+03  0.13655255050E+03  0.00000000000E+00 0.  1.
         12    1    3    3    0    0  0.92740160284E+01 -0.18830790244E+02 -0.13228654216E+03  0.13394153677E+03  0.00000000000E+00 0. -1.
         13    1    5    5    0    0 -0.81769803836E+02 -0.17207260083E+02  0.26032010582E+01  0.83601239672E+02  0.00000000000E+00 0. -1.
        -14    1    5    5    0    0 -0.32674298327E+02  0.11057758249E+02  0.61529996959E+02  0.70539523066E+02  0.00000000000E+00 0.  1.
          5    1    4    4  501    0  0.11525075679E+03 -0.21594983260E+02 -0.20543864650E+01  0.11734893756E+03  0.41800000000E+01 0.  1.
         -5    1    4    4    0  501  0.37917147217E+02  0.18282074939E+02 -0.92828851048E+02  0.10201280461E+03  0.41800000000E+01 0.  1.
</event>
<event>
11    1  0.1003949E-008  0.1706064E+03  0.7561462E-02  0.1077505E+00
         22   -1    0    0    0    0  0.00000000000E+00  0.00000000000E+00  0.21859657312E+03  0.21859657312E+03  0.00000000000E+00 0.  1.
         22   -1    0    0    0    0 -0.00000000000E+00 -0.00000000000E+00 -0.47027453917E+03  0.47027453917E+03  0.00000000000E+00 0. -1.
        -24    2    1    2    0    0 -0.13452980765E+01  0.10671266375E+02 -0.30092726897E+03  0.31096561172E+03  0.77631853718E+02 0.  0.
         25    2    1    2    0    0 -0.60492878094E+02  0.89684670550E+02 -0.81532902444E+02  0.18438554774E+03  0.12509071750E+03 0.  0.
         24    2    1    2    0    0  0.61838176171E+02 -0.10035593692E+03  0.13078220536E+03  0.19351995282E+03  0.80316329553E+02 0.  0.
        -13    1    5    5    0    0  0.69868517627E+02 -0.92014190585E+02  0.13792055634E+03  0.17991748354E+03  0.00000000000E+00 0.  1.
         14    1    5    5    0    0 -0.80303414562E+01 -0.83417463397E+01 -0.71383509728E+01  0.13602469280E+02  0.00000000000E+00 0. -1.
         13    1    3    3    0    0 -0.20034377012E+02 -0.24985871775E+01 -0.27749071569E+03  0.27822421982E+03  0.00000000000E+00 0. -1.
        -14    1    3    3    0    0  0.18689078935E+02  0.13169853553E+02 -0.23436553275E+02  0.32741391899E+02  0.00000000000E+00 0.  1.
          5    1    4    4  501    0 -0.80762480685E+02  0.18045111498E+02 -0.14504928740E+02  0.84119377632E+02  0.41800000000E+01 0.  1.
         -5    1    4    4    0  501  0.20269602591E+02  0.71639559051E+02 -0.67027973704E+02  0.10026617011E+03  0.41800000000E+01 0.  1.
</event>
<event>
11    1  0.1003949E-008  0.1305408E+03  0.7561462E-02  0.1118606E+00
         22   -1    0    0    0    0  0.00000000000E+00  0.00000000000E+00  0.87245405697E+03  0.87245405697E+03  0.00000000000E+00 0.  1.
         22   -1    0    0    0    0 -0.00000000000E+00 -0.00000000000E+00 -0.10592300360E+04  0.10592300360E+04  0.00000000000E+00 0.  1.
         24    2    1    2    0    0  0.21469491407E+02  0.29493426352E+02 -0.98153613580E+03  0.98551981690E+03  0.80655578612E+02 0.  0.
         25    2    1    2    0    0 -0.15673987759E+02 -0.72423358860E+02 -0.11034815404E+01  0.14539407467E+03  0.12508957781E+03 0.  0.
        -24    2    1    2    0    0 -0.57955036480E+01  0.42929932508E+02  0.79586363833E+03  0.80077020137E+03  0.77184309438E+02 0.  0.
        -11    1    3    3    0    0  0.40395576210E+02  0.12651150599E+01 -0.78701825785E+03  0.78805529075E+03  0.00000000000E+00 0.  1.
         12    1    3    3    0    0 -0.18926084804E+02  0.28228311292E+02 -0.19451787796E+03  0.19746452615E+03  0.00000000000E+00 0. -1.
         11    1    5    5    0    0 -0.88957897735E+01 -0.10346050597E+02  0.28974731921E+02  0.32026722101E+02  0.00000000000E+00 0. -1.
        -12    1    5    5    0    0  0.31002861256E+01  0.53275983105E+02  0.76688890641E+03  0.76874347927E+03  0.00000000000E+00 0.  1.
          5    1    4    4  501    0  0.68304373052E+00 -0.29337486658E+02  0.61073515316E+02  0.67886680175E+02  0.41800000000E+01 0. -1.
         -5    1    4    4    0  501 -0.16357031489E+02 -0.43085872201E+02 -0.62176996857E+02  0.77507394490E+02  0.41800000000E+01 0. -1.
</event>
<event>
11    1  0.1003949E-008  0.1873224E+03  0.7561462E-02  0.1063869E+00
         22   -1    0    0    0    0  0.00000000000E+00  0.00000000000E+00  0.45649148583E+03  0.45649148583E+03  0.00000000000E+00 0.  1.
         22   -1    0    0    0    0 -0.00000000000E+00 -0.00000000000E+00 -0.70972996616E+03  0.70972996616E+03  0.00000000000E+00 0. -1.
        -24    2    1    2    0    0  0.13668141471E+03 -0.28914475064E+02 -0.65038255896E+03  0.66993952630E+03  0.79395465341E+02 0.  0.
         25    2    1    2    0    0 -0.13281860426E+03  0.19438908821E+02  0.15271555100E+03  0.23872287960E+03  0.12509165006E+03 0.  0.
         24    2    1    2    0    0 -0.38628104504E+01  0.94755662434E+01  0.24442852763E+03  0.25755904609E+03  0.80539738292E+02 0.  0.
        -13    1    5    5    0    0 -0.36739653245E+02  0.23344405598E+02  0.10563196043E+03  0.11424917706E+03  0.00000000000E+00 0.  1.
         14    1    5    5    0    0  0.32876842794E+02 -0.13868839355E+02  0.13879656720E+03  0.14330986903E+03  0.00000000000E+00 0. -1.
         13    1    3    3    0    0  0.10167876461E+03  0.11196690615E+02 -0.50147325401E+03  0.51180011874E+03  0.00000000000E+00 0. -1.
        -14    1    3    3    0    0  0.35002650094E+02 -0.40111165679E+02 -0.14890930495E+03  0.15813940757E+03  0.00000000000E+00 0.  1.
          5    1    4    4  501    0 -0.59522385964E+02 -0.11723281395E+02  0.14662588516E+03  0.15873554219E+03  0.41800000000E+01 0. -1.
         -5    1    4    4    0  501 -0.73296218293E+02  0.31162190216E+02  0.60896658391E+01  0.79987337405E+02  0.41800000000E+01 0. -1.
</event>
<event>
11    1  0.1003949E-008  0.3934644E+03  0.7561462E-02  0.9669241E-01
         22   -1    0    0    0    0  0.00000000000E+00  0.00000000000E+00  0.45412891423E+03  0.45412891423E+03  0.00000000000E+00 0.  1.
         22   -1    0    0    0    0 -0.00000000000E+00 -0.00000000000E+00 -0.23159297108E+04  0.23159297108E+04  0.00000000000E+00 0. -1.
        -24    2    1    2    0    0  0.27368267743E+02  0.30725212732E+03 -0.10497442601E+04  0.10980631544E+04  0.92880501646E+02 0.  0.
         25    2    1    2    0    0 -0.14150509557E+03 -0.55044044835E+03 -0.11158754702E+04  0.12585030580E+04  0.12507398875E+03 0.  0.
         24    2    1    2    0    0  0.11413682783E+03  0.24318832104E+03  0.30381893378E+03  0.41349241264E+03  0.80636566328E+02 0.  0.
        -13    1    5    5    0    0  0.11826466077E+03  0.17381450217E+03  0.24101553763E+03  0.31982260791E+03  0.00000000000E+00 0.  1.
         14    1    5    5    0    0 -0.41278329451E+01  0.69373818871E+02  0.62803396152E+02  0.93669804728E+02  0.00000000000E+00 0. -1.
         13    1    3    3    0    0  0.59801956861E+02  0.24183409835E+03 -0.80761619141E+03  0.84516502400E+03  0.00000000000E+00 0. -1.
        -14    1    3    3    0    0 -0.32433689119E+02  0.65418028968E+02 -0.24212806868E+03  0.25289813038E+03  0.00000000000E+00 0.  1.
          5    1    4    4  501    0 -0.54958812499E+02 -0.89924929065E+02 -0.29509031007E+03  0.31337314409E+03  0.41800000000E+01 0. -1.
         -5    1    4    4    0  501 -0.86546283073E+02 -0.46051551929E+03 -0.82078516016E+03  0.94512991391E+03  0.41800000000E+01 0. -1.
</event>
<event>
11    1  0.1129141E-008  0.1455330E+03  0.7561462E-02  0.1101533E+00
         22   -1    0    0    0    0  0.00000000000E+00  0.00000000000E+00  0.13523607591E+04  0.13523607591E+04  0.00000000000E+00 0. -1.
         22   -1    0    0    0    0 -0.00000000000E+00 -0.00000000000E+00 -0.24931782211E+03  0.24931782211E+03  0.00000000000E+00 0.  1.
         24    2    1    2    0    0  0.24758670922E+02 -0.23365607398E+02 -0.19822458537E+03  0.21684055125E+03  0.81042550706E+02 0.  0.
         25    2    1    2    0    0  0.47146616217E+02 -0.20898362446E+01  0.74509519321E+02  0.15304380319E+03  0.12507424350E+03 0.  0.
        -24    2    1    2    0    0 -0.71905287139E+02  0.25455443643E+02  0.12267580031E+04  0.12317942268E+04  0.81015240163E+02 0.  0.
        -11    1    3    3    0    0  0.13589739113E+02 -0.80982644125E+01 -0.19726641464E+03  0.19789972522E+03  0.00000000000E+00 0.  1.
         12    1    3    3    0    0  0.11168931809E+02 -0.15267342986E+02 -0.95817073065E+00  0.18940826031E+02  0.00000000000E+00 0. -1.
         13    1    5    5    0    0 -0.84727788016E+02  0.27352675426E+02  0.11774360944E+04  0.11807974946E+04  0.00000000000E+00 0. -1.
        -14    1    5    5    0    0  0.12822500878E+02 -0.18972317830E+01  0.49321908668E+02  0.50996732169E+02  0.00000000000E+00 0.  1.
          5    1    4    4  501    0 -0.42956999091E+02 -0.49002783939E+01  0.24208412209E+02  0.49727619297E+02  0.41800000000E+01 0. -1.
         -5    1    4    4    0  501  0.90103615308E+02  0.28104421492E+01  0.50301107112E+02  0.10331618389E+03  0.41800000000E+01 0. -1.
</event>
<event>
11    1  0.1003949E-008  0.1382077E+03  0.7561462E-02  0.1109576E+00
         22   -1    0    0    0    0  0.00000000000E+00  0.00000000000E+00  0.37788129994E+04  0.37788129994E+04  0.00000000000E+00 0.  1.
         22   -1    0    0    0    0 -0.00000000000E+00 -0.00000000000E+00 -0.44992726860E+03  0.44992726860E+03  0.00000000000E+00 0.  1.
        -24    2    1    2    0    0  0.57159351250E+02  0.10375238380E+02 -0.42433415324E+03  0.43605174137E+03  0.81895119107E+02 0.  0.
         25    2    1    2    0    0 -0.10102393966E+03 -0.42142877646E+01  0.31840060273E+03  0.35671435023E+03  0.12507032914E+03 0.  0.
         24    2    1    2    0    0  0.43864588414E+02 -0.61609506156E+01  0.34348192813E+04  0.34359741764E+04  0.77285097286E+02 0.  0.
        -11    1    5    5    0    0  0.73296437262E+01  0.14029371596E+02  0.26487849671E+04  0.26488322614E+04  0.00000000000E+00 0.  1.
         12    1    5    5    0    0  0.36534944688E+02 -0.20190322212E+02  0.78603431415E+03  0.78714191498E+03  0.00000000000E+00 0. -1.
         11    1    3    3    0    0  0.18095223901E+01  0.53406741602E+01  0.20953461164E+01  0.60156169354E+01  0.00000000000E+00 0. -1.
        -12    1    3    3    0    0  0.55349828860E+02  0.50345642200E+01 -0.42642949936E+03  0.43003612443E+03  0.00000000000E+00 0.  1.
          5    1    4    4  501    0 -0.18753005108E+02 -0.22089278328E+02  0.23941128787E+03  0.24119462800E+03  0.41800000000E+01 0.  1.
         -5    1    4    4    0  501 -0.82270934557E+02  0.17874990563E+02  0.78989314865E+02  0.11551972223E+03  0.41800000000E+01 0.  1.
</event>
<event>
11    1  0.1003949E-008  0.1999284E+03  0.7561462E-02  0.1054574E+00
         22   -1    0    0    0    0  0.00000000000E+00  0.00000000000E+00  0.11600916293E+03  0.11600916293E+03  0.00000000000E+00 0. -1.
         22   -1    0    0    0    0 -0.00000000000E+00 -0.00000000000E+00 -0.20852264946E+04  0.20852264946E+04  0.00000000000E+00 0.  1.
         24    2    1    2    0    0 -0.13293089450E+03 -0.78834098753E+02 -0.16071778017E+04  0.16165909197E+04  0.80375851584E+02 0.  0.
         25    2    1    2    0    0  0.10213012207E+03  0.14434184672E+03 -0.41312771762E+03  0.46646185052E+03  0.12508803451E+03 0.  0.
        -24    2    1    2    0    0  0.30800772438E+02 -0.65507747963E+02  0.51088187668E+02  0.11818288729E+03  0.78212782223E+02 0.  0.
        -13    1    3    3    0    0 -0.98477588309E+02 -0.70776460442E+02 -0.14674553768E+04  0.14724579538E+04  0.00000000000E+00 0.  1.
         14    1    3    3    0    0 -0.34453306196E+02 -0.80576383106E+01 -0.13972242490E+03  0.14413296591E+03  0.00000000000E+00 0. -1.
         11    1    5    5    0    0  0.37983822279E+02 -0.67011003666E+02  0.66082111779E+02  0.10148936331E+03  0.00000000000E+00 0. -1.
        -12    1    5    5    0    0 -0.71830498405E+01  0.15032557033E+01 -0.14993924111E+02  0.16693523983E+02  0.00000000000E+00 0.  1.
          5    1    4    4  501    0  0.71938484041E+02  0.31044596632E+02 -0.74939873714E+02  0.10850055087E+03  0.41800000000E+01 0. -1.
         -5    1    4    4    0  501  0.30191638025E+02  0.11329725008E+03 -0.33818784391E+03  0.35796129965E+03  0.41800000000E+01 0. -1.
</event>
<event>
11    1  0.1003949E-008  0.1499684E+03  0.7561462E-02  0.1096911E+00
         22   -1    0    0    0    0  0.00000000000E+00  0.00000000000E+00  0.32243968194E+03  0.32243968194E+03  0.00000000000E+00 0.  1.
         22   -1    0    0    0    0 -0.00000000000E+00 -0.00000000000E+00 -0.65068272745E+03  0.65068272745E+03  0.00000000000E+00 0.  1.
        -24    2    1    2    0    0  0.45997497200E+02 -0.71693756110E+02 -0.56876791620E+03  0.58095086695E+03  0.82165703898E+02 0.  0.
         25    2    1    2    0    0 -0.86675861961E+01  0.58198351694E+02  0.44368967195E+01  0.13830793137E+03  0.12508885896E+03 0.  0.
         24    2    1    2    0    0 -0.37329911004E+02  0.13495404416E+02  0.23608797398E+03  0.25386361107E+03  0.84460365681E+02 0.  0.
        -11    1    5    5    0    0 -0.50903090077E+02 -0.19540864639E+02  0.17273831642E+03  0.18113943781E+03  0.00000000000E+00 0.  1.
         12    1    5    5    0    0  0.13573179073E+02  0.33036269055E+02  0.63349657556E+02  0.72724173255E+02  0.00000000000E+00 0. -1.
         11    1    3    3    0    0  0.77091763033E+00  0.12998571752E+02 -0.20124221831E+02  0.23969595030E+02  0.00000000000E+00 0. -1.
        -12    1    3    3    0    0  0.45226579569E+02 -0.84692327862E+02 -0.54864369437E+03  0.55698127192E+03  0.00000000000E+00 0.  1.
          5    1    4    4  501    0 -0.51581776115E+01  0.87426990379E+02  0.36147420101E+02  0.94837723628E+02  0.41800000000E+01 0. -1.
         -5    1    4    4    0  501 -0.35094085846E+01 -0.29228638685E+02 -0.31710523382E+02  0.43470207742E+02  0.41800000000E+01 0. -1.
</event>
<event>
11    1  0.1003949E-008  0.1500780E+03  0.7561462E-02  0.1096799E+00
         22   -1    0    0    0    0  0.00000000000E+00  0.00000000000E+00  0.36661313154E+03  0.36661313154E+03  0.00000000000E+00 0.  1.
         22   -1    0    0    0    0 -0.00000000000E+00 -0.00000000000E+00 -0.31232325866E+04  0.31232325866E+04  0.00000000000E+00 0.  1.
         24    2    1    2    0    0 -0.11384950945E+02  0.82160915805E+02 -0.30519282842E+04  0.30541260834E+04  0.80869326669E+02 0.  0.
         25    2    1    2    0    0 -0.10441132193E+02 -0.82806622036E+02  0.23329306652E+02  0.15217868343E+03  0.12509253074E+03 0.  0.
        -24    2    1    2    0    0  0.21826083138E+02  0.64570623124E+00  0.27197952249E+03  0.28354095135E+03  0.77109114892E+02 0.  0.
        -11    1    3    3    0    0  0.32438118260E+02  0.38643387973E+02 -0.17592385288E+04  0.17599618587E+04  0.00000000000E+00 0.  1.
         12    1    3    3    0    0 -0.43823069205E+02  0.43517527832E+02 -0.12926897554E+04  0.12941642246E+04  0.00000000000E+00 0. -1.
         11    1    5    5    0    0 -0.16995451967E+01 -0.36218227380E+02  0.13202424110E+03  0.13691255854E+03  0.00000000000E+00 0. -1.
        -12    1    5    5    0    0  0.23525628334E+02  0.36863933612E+02  0.13995528139E+03  0.14662839281E+03  0.00000000000E+00 0.  1.
          5    1    4    4  501    0 -0.49677754489E+02  0.84835527595E+01  0.29269285314E+01  0.50654607580E+02  0.41800000000E+01 0.  1.
         -5    1    4    4    0  501  0.39236622296E+02 -0.91290174795E+02  0.20402378120E+02  0.10152407585E+03  0.41800000000E+01 0.  1.
</event>
<event>
11    1  0.1003949E-008  0.1346299E+03  0.7561462E-02  0.1113708E+00
         22   -1    0    0    0    0  0.00000000000E+00  0.00000000000E+00  0.17085751775E+03  0.17085751775E+03  0.00000000000E+00 0. -1.
         22   -1    0    0    0    0 -0.00000000000E+00 -0.00000000000E+00 -0.88383962293E+03  0.88383962293E+03  0.00000000000E+00 0.  1.
        -24    2    1    2    0    0  0.14053738232E+02  0.58121144975E+00 -0.70815619043E+03  0.71235940820E+03  0.75979543593E+02 0.  0.
         25    2    1    2    0    0 -0.58716675704E+02  0.18501248395E+02 -0.12635594293E+03  0.18816043841E+03  0.12509429272E+03 0.  0.
         24    2    1    2    0    0  0.44662937473E+02 -0.19082459844E+02  0.12153002819E+03  0.15417729407E+03  0.81499521458E+02 0.  0.
        -13    1    5    5    0    0  0.55705960962E+02  0.10794497020E+02  0.49037962788E+02  0.74995980206E+02  0.00000000000E+00 0.  1.
         14    1    5    5    0    0 -0.11043023489E+02 -0.29876956865E+02  0.72492065398E+02  0.79181313862E+02  0.00000000000E+00 0. -1.
         13    1    3    3    0    0 -0.14038132267E+02 -0.13753402901E+02 -0.54367134300E+02  0.57810124900E+02  0.00000000000E+00 0. -1.
        -14    1    3    3    0    0  0.28091870498E+02  0.14334614351E+02 -0.65378905613E+03  0.65454928330E+03  0.00000000000E+00 0.  1.
          5    1    4    4  501    0 -0.22738479501E+02  0.10821461251E+02  0.22953360101E+02  0.34328874341E+02  0.41800000000E+01 0. -1.
         -5    1    4    4    0  501 -0.35978196203E+02  0.76797871442E+01 -0.14930930303E+03  0.15383156407E+03  0.41800000000E+01 0. -1.
</event>
<event>
11    1  0.1003949E-008  0.2387276E+03  0.7561462E-02  0.1030082E+00
         22   -1    0    0    0    0  0.00000000000E+00  0.00000000000E+00  0.38474310546E+03  0.38474310546E+03  0.00000000000E+00 0.  1.
         22   -1    0    0    0    0 -0.00000000000E+00 -0.00000000000E+00 -0.94755972418E+03  0.94755972418E+03  0.00000000000E+00 0.  1.
        -24    2    1    2    0    0 -0.14140187618E+02  0.45180952707E+02 -0.78017888142E+03  0.78575787272E+03  0.80592084834E+02 0.  0.
         25    2    1    2    0    0 -0.58861988100E+02 -0.22376591883E+03  0.27585484246E+02  0.26446885120E+03  0.12508754629E+03 0.  0.
         24    2    1    2    0    0  0.73002175718E+02  0.17858496613E+03  0.18977677846E+03  0.28207610573E+03  0.79560015038E+02 0.  0.
        -13    1    5    5    0    0  0.82107108479E+02  0.16654704780E+03  0.19166940001E+03  0.26686448863E+03  0.00000000000E+00 0.  1.
         14    1    5    5    0    0 -0.91049327606E+01  0.12037918329E+02 -0.18926215498E+01  0.15211617094E+02  0.00000000000E+00 0. -1.
         13    1    3    3    0    0  0.29670055638E+01  0.27012043801E+02 -0.69247606233E+02  0.74388739748E+02  0.00000000000E+00 0. -1.
        -14    1    3    3    0    0 -0.17107193182E+02  0.18168908906E+02 -0.71093127519E+03  0.71136913298E+03  0.00000000000E+00 0.  1.
          5    1    4    4  501    0 -0.72878444180E+02 -0.22574216942E+03  0.47746692568E+01  0.23729952496E+03  0.41800000000E+01 0. -1.
         -5    1    4    4    0  501  0.14016456080E+02  0.19762505892E+01  0.22810814989E+02  0.27169326232E+02  0.41800000000E+01 0. -1.
</event>
<event>
11    1  0.1003949E-008  0.1802404E+03  0.7561462E-02  0.1069449E+00
         22   -1    0    0    0    0  0.00000000000E+00  0.00000000000E+00  0.18950665435E+04  0.18950665435E+04  0.00000000000E+00 0. -1.
         22   -1    0    0    0    0 -0.00000000000E+00 -0.00000000000E+00 -0.30087038376E+03  0.30087038376E+03  0.00000000000E+00 0.  1.
         24    2    1    2    0    0  0.26623036207E+02 -0.12109439469E+03 -0.22691409854E+03  0.27105015971E+03  0.81274488476E+02 0.  0.
         25    2    1    2    0    0 -0.65626311478E+01  0.21536421301E+03  0.26498303260E+03  0.36371309981E+03  0.12508556687E+03 0.  0.
        -24    2    1    2    0    0 -0.20060405059E+02 -0.94269818316E+02  0.15561272257E+04  0.15611736677E+04  0.80262443451E+02 0.  0.
        -13    1    3    3    0    0  0.13800542414E+02 -0.10189090505E+03 -0.22559453431E+03  0.24792157109E+03  0.00000000000E+00 0.  1.
         14    1    3    3    0    0  0.12822493793E+02 -0.19203489641E+02 -0.13195642328E+01  0.23128588613E+02  0.00000000000E+00 0. -1.
         11    1    5    5    0    0 -0.16152027960E+02 -0.43537211984E+02  0.12487683788E+04  0.12496314820E+04  0.00000000000E+00 0. -1.
        -12    1    5    5    0    0 -0.39083770995E+01 -0.50732606332E+02  0.30735884687E+03  0.31154218576E+03  0.00000000000E+00 0.  1.
          5    1    4    4  501    0 -0.36283295162E+00 -0.40229702749E+01 -0.10176496091E+02  0.11719616473E+02  0.41800000000E+01 0. -1.
         -5    1    4    4    0  501 -0.61997981962E+01  0.21938718328E+03  0.27515952869E+03  0.35199348334E+03  0.41800000000E+01 0. -1.
</event>
<event>
11    1  0.1003949E-008  0.2331556E+03  0.7561462E-02  0.1033276E+00
         22   -1    0    0    0    0  0.00000000000E+00  0.00000000000E+00  0.16383681471E+03  0.16383681471E+03  0.00000000000E+00 0.  1.
         22   -1    0    0    0    0 -0.00000000000E+00 -0.00000000000E+00 -0.64934416246E+03  0.64934416246E+03  0.00000000000E+00 0.  1.
         24    2    1    2    0    0  0.12650523974E+03 -0.16653606364E+03 -0.45912617389E+03  0.51041263636E+03  0.77371697882E+02 0.  0.
         25    2    1    2    0    0 -0.76876253279E+02  0.13652389078E+03 -0.32027541643E+02  0.20303316667E+03  0.12509185535E+03 0.  0.
        -24    2    1    2    0    0 -0.49628986464E+02  0.30012172868E+02  0.56463677868E+01  0.99735174133E+02  0.80941069133E+02 0.  0.
        -11    1    3    3    0    0  0.82477188319E+02 -0.15734830436E+03 -0.37756194263E+03  0.41726969216E+03  0.00000000000E+00 0.  1.
         12    1    3    3    0    0  0.44028051425E+02 -0.91877592843E+01 -0.81564231262E+02  0.93142944201E+02  0.00000000000E+00 0. -1.
         11    1    5    5    0    0  0.21893744936E+02  0.13536958791E+02 -0.26278306426E+01  0.25874520565E+02  0.00000000000E+00 0. -1.
        -12    1    5    5    0    0 -0.71522731400E+02  0.16475214077E+02  0.82741984294E+01  0.73860653568E+02  0.00000000000E+00 0.  1.
          5    1    4    4  501    0 -0.57856648366E+02  0.92030720685E+02 -0.79792983097E+02  0.13491270460E+03  0.41800000000E+01 0.  1.
         -5    1    4    4    0  501 -0.19019604913E+02  0.44493170091E+02  0.47765441455E+02  0.68120462074E+02  0.41800000000E+01 0.  1.
</event>
<event>
11    1  0.1003949E-008  0.1758442E+03  0.7561462E-02  0.1073055E+00
         22   -1    0    0    0    0  0.00000000000E+00  0.00000000000E+00  0.45332241533E+03  0.45332241533E+03  0.00000000000E+00 0. -1.
         22   -1    0    0    0    0 -0.00000000000E+00 -0.00000000000E+00 -0.79901223879E+03  0.79901223879E+03  0.00000000000E+00 0.  1.
        -24    2    1    2    0    0 -0.81139174938E+02  0.13287120562E+03 -0.63866331252E+03  0.66205853152E+03  0.78691482432E+02 0.  0.
         25    2    1    2    0    0  0.65734081027E+02  0.99225330043E+02 -0.40025920467E+02  0.17724589667E+03  0.12508956010E+03 0.  0.
         24    2    1    2    0    0  0.15405093911E+02 -0.23209653566E+03  0.33299940953E+03  0.41303022593E+03  0.74828082938E+02 0.  0.
        -13    1    5    5    0    0  0.17324911134E+02 -0.29012137540E+02  0.91177967426E+02  0.97238255920E+02  0.00000000000E+00 0.  1.
         14    1    5    5    0    0 -0.19198172231E+01 -0.20308439812E+03  0.24182144211E+03  0.31579197001E+03  0.00000000000E+00 0. -1.
         11    1    3    3    0    0 -0.40511415677E+02  0.12599900097E+03 -0.51376789367E+03  0.53054158330E+03  0.00000000000E+00 0. -1.
        -12    1    3    3    0    0 -0.40627759261E+02  0.68722046523E+01 -0.12489541885E+03  0.13151694822E+03  0.00000000000E+00 0.  1.
          5    1    4    4  501    0  0.87214736341E+02  0.11077532918E+03 -0.51253531186E+02  0.15007325095E+03  0.41800000000E+01 0.  1.
         -5    1    4    4    0  501 -0.21480655314E+02 -0.11549999140E+02  0.11227610718E+02  0.27172645718E+02  0.41800000000E+01 0.  1.
</event>
<event>
11    1  0.1003949E-008  0.1561236E+03  0.7561462E-02  0.1090781E+00
         22   -1    0    0    0    0  0.00000000000E+00  0.00000000000E+00  0.45254737291E+03  0.45254737291E+03  0.00000000000E+00 0. -1.
         22   -1    0    0    0    0 -0.00000000000E+00 -0.00000000000E+00 -0.84332061600E+03  0.84332061600E+03  0.00000000000E+00 0. -1.
         24    2    1    2    0    0  0.66428914310E+02 -0.66608878671E+02 -0.76347325797E+03  0.77348910600E+03  0.80897701430E+02 0.  0.
         25    2    1    2    0    0 -0.43604333351E+01  0.10698478613E+03  0.36144153615E+02  0.16857641761E+03  0.12508737304E+03 0.  0.
        -24    2    1    2    0    0 -0.62068480975E+02 -0.40375907457E+02  0.33655586126E+03  0.35380246530E+03  0.80147529389E+02 0.  0.
        -11    1    3    3    0    0  0.84809747036E+02 -0.48136571783E+02 -0.62893201328E+03  0.63644740558E+03  0.00000000000E+00 0.  1.
         12    1    3    3    0    0 -0.18380832726E+02 -0.18472306888E+02 -0.13454124469E+03  0.13704170043E+03  0.00000000000E+00 0. -1.
         13    1    5    5    0    0 -0.58422583349E+02 -0.58590671709E+02  0.20703692640E+03  0.22295818879E+03  0.00000000000E+00 0. -1.
        -14    1    5    5    0    0 -0.36458976260E+01  0.18214764252E+02  0.12951893486E+03  0.13084427651E+03  0.00000000000E+00 0.  1.
          5    1    4    4  501    0 -0.30223155782E+02 -0.46601293320E+00 -0.27410387452E+02  0.41017777289E+02  0.41800000000E+01 0. -1.
         -5    1    4    4    0  501  0.25862722447E+02  0.10745079906E+03  0.63554541067E+02  0.12755864033E+03  0.41800000000E+01 0. -1.
</event>
<event>
11    1  0.1003949E-008  0.1442744E+03  0.7561462E-02  0.1102877E+00
         22   -1    0    0    0    0  0.00000000000E+00  0.00000000000E+00  0.36083918884E+03  0.36083918884E+03  0.00000000000E+00 0.  1.
         22   -1    0    0    0    0 -0.00000000000E+00 -0.00000000000E+00 -0.71921312608E+03  0.71921312608E+03  0.00000000000E+00 0.  1.
        -24    2    1    2    0    0  0.25560024742E+02  0.71178879871E+01 -0.66188589312E+03  0.66715645999E+03  0.79377751292E+02 0.  0.
         25    2    1    2    0    0 -0.11567450915E+02 -0.76851284122E+02  0.89781835363E+02  0.17247514089E+03  0.12508785102E+03 0.  0.
         24    2    1    2    0    0 -0.13992573827E+02  0.69733396135E+02  0.21373012052E+03  0.24042071404E+03  0.84041755452E+02 0.  0.
        -11    1    5    5    0    0  0.46755803999E+01  0.61333565197E+02  0.21098229507E+03  0.21976623058E+03  0.00000000000E+00 0.  1.
         12    1    5    5    0    0 -0.18668154227E+02  0.83998309380E+01  0.27478254562E+01  0.20654483454E+02  0.00000000000E+00 0. -1.
         13    1    3    3    0    0 -0.22735912435E+02  0.12915874920E+02 -0.10724898674E+03  0.11039060964E+03  0.00000000000E+00 0. -1.
        -14    1    3    3    0    0  0.48295937177E+02 -0.57979869328E+01 -0.55463690638E+03  0.55676585036E+03  0.00000000000E+00 0.  1.
          5    1    4    4  501    0  0.30063559006E+02  0.23149276205E+02  0.30917795603E+02  0.49123202806E+02  0.41800000000E+01 0. -1.
         -5    1    4    4    0  501 -0.41631009921E+02 -0.10000056033E+03  0.58864039760E+02  0.12335193809E+03  0.41800000000E+01 0. -1.
</event>
<event>
11    1  0.1003949E-008  0.1409051E+03  0.7561462E-02  0.1106552E+00
         22   -1    0    0    0    0  0.00000000000E+00  0.00000000000E+00  0.20904069892E+03  0.20904069892E+03  0.00000000000E+00 0. -1.
         22   -1    0    0    0    0 -0.00000000000E+00 -0.00000000000E+00 -0.41872386537E+03  0.41872386537E+03  0.00000000000E+00 0. -1.
        -24    2    1    2    0    0 -0.13945161449E+02 -0.18212759582E+02 -0.30552750441E+03  0.31685568916E+03  0.80773136989E+02 0.  0.
         25    2    1    2    0    0 -0.47666145239E+02 -0.12097359679E+02 -0.35861396682E+02  0.13911107533E+03  0.12508974376E+03 0.  0.
         24    2    1    2    0    0  0.61611306688E+02  0.30310119260E+02  0.13170573465E+03  0.17179779980E+03  0.86333232510E+02 0.  0.
        -13    1    5    5    0    0  0.55392223957E+02  0.21506647967E+01  0.24190569763E+02  0.60482290792E+02  0.00000000000E+00 0.  1.
         14    1    5    5    0    0  0.62190827309E+01  0.28159454464E+02  0.10751516488E+03  0.11131550901E+03  0.00000000000E+00 0. -1.
         11    1    3    3    0    0  0.23151090290E+02  0.72541151247E+01 -0.20844810082E+03  0.20985520224E+03  0.00000000000E+00 0. -1.
        -12    1    3    3    0    0 -0.37096251739E+02 -0.25466874706E+02 -0.97079403586E+02  0.10700048692E+03  0.00000000000E+00 0.  1.
          5    1    4    4  501    0  0.17526001105E+02 -0.53767949321E+02 -0.11252972408E+02  0.57812238124E+02  0.41800000000E+01 0. -1.
         -5    1    4    4    0  501 -0.65192146343E+02  0.41670589642E+02 -0.24608424274E+02  0.81298837207E+02  0.41800000000E+01 0. -1.
</event>
<event>
11    1  0.1003949E-008  0.1534294E+03  0.7561462E-02  0.1093425E+00
         22   -1    0    0    0    0  0.00000000000E+00  0.00000000000E+00  0.77209979819E+03  0.77209979819E+03  0.00000000000E+00 0.  1.
         22   -1    0    0    0    0 -0.00000000000E+00 -0.00000000000E+00 -0.44515258499E+03  0.44515258499E+03  0.00000000000E+00 0.  1.
        -24    2    1    2    0    0  0.75695008115E+02 -0.35495791440E+02 -0.34262654345E+03  0.36177023838E+03  0.80592007283E+02 0.  0.
         25    2    1    2    0    0 -0.14000858877E+03  0.45852463476E+02  0.16478891027E+02  0.19397076184E+03  0.12509296248E+03 0.  0.
         24    2    1    2    0    0  0.64313580655E+02 -0.10356672036E+02  0.65309486562E+03  0.66151138295E+03  0.82588794427E+02 0.  0.
        -11    1    5    5    0    0 -0.53870996762E+01 -0.17388909074E+02  0.34805000106E+03  0.34852574975E+03  0.00000000000E+00 0.  1.
         12    1    5    5    0    0  0.69700680332E+02  0.70322370381E+01  0.30504486456E+03  0.31298563321E+03  0.00000000000E+00 0. -1.
         11    1    3    3    0    0 -0.11098738010E+02  0.75052173164E+01 -0.14940744220E+02  0.20068286181E+02  0.00000000000E+00 0. -1.
        -12    1    3    3    0    0  0.86793746124E+02 -0.43001008756E+02 -0.32768579923E+03  0.34170195220E+03  0.00000000000E+00 0.  1.
          5    1    4    4  501    0 -0.10815649123E+03 -0.83850959871E+01 -0.33403379360E+02  0.11358430606E+03  0.41800000000E+01 0.  1.
         -5    1    4    4    0  501 -0.31852097541E+02  0.54237559463E+02  0.49882270388E+02  0.80386455782E+02  0.41800000000E+01 0.  1.
</event>
<event>
11    1  0.1003949E-008  0.1364208E+03  0.7561462E-02  0.1111622E+00
         22   -1    0    0    0    0  0.00000000000E+00  0.00000000000E+00  0.51470486980E+03  0.51470486980E+03  0.00000000000E+00 0.  1.
         22   -1    0    0    0    0 -0.00000000000E+00 -0.00000000000E+00 -0.12385526383E+03  0.12385526383E+03  0.00000000000E+00 0.  1.
        -24    2    1    2    0    0  0.54505259730E+02  0.91290053430E+01 -0.40640877342E+02  0.10563528851E+03  0.80330387719E+02 0.  0.
         25    2    1    2    0    0 -0.51464772233E+02 -0.79217884302E+01  0.52127194368E+02  0.14516213061E+03  0.12507366732E+03 0.  0.
         24    2    1    2    0    0 -0.30404874969E+01 -0.12072169128E+01  0.37936328894E+03  0.38776271451E+03  0.80204213289E+02 0.  0.
        -11    1    5    5    0    0 -0.37185140842E+01 -0.35898039835E+02  0.28398784947E+03  0.28627189045E+03  0.00000000000E+00 0.  1.
         12    1    5    5    0    0  0.67802658735E+00  0.34690822922E+02  0.95375439468E+02  0.10149082406E+03  0.00000000000E+00 0. -1.
         13    1    3    3    0    0  0.30273092515E+02  0.41372434364E+02 -0.44730868310E+01  0.51460149256E+02  0.00000000000E+00 0. -1.
        -14    1    3    3    0    0  0.24232167215E+02 -0.32243429021E+02 -0.36167790511E+02  0.54175139256E+02  0.00000000000E+00 0.  1.
          5    1    4    4  501    0 -0.92724470356E+02 -0.65349227184E+01  0.28030820319E+02  0.97178865529E+02  0.41800000000E+01 0.  1.
         -5    1    4    4    0  501  0.41259698122E+02 -0.13868657118E+01  0.24096374048E+02  0.47983265082E+02  0.41800000000E+01 0.  1.
</event>
<event>
11    1  0.1003949E-008  0.1473388E+03  0.7561462E-02  0.1099629E+00
         22   -1    0    0    0    0  0.00000000000E+00  0.00000000000E+00  0.13083107004E+03  0.13083107004E+03  0.00000000000E+00 0. -1.
         22   -1    0    0    0    0 -0.00000000000E+00 -0.00000000000E+00 -0.37198699003E+04  0.37198699003E+04  0.00000000000E+00 0. -1.
         24    2    1    2    0    0 -0.77931144657E+00  0.85782925099E+02 -0.31714918968E+04  0.31737817488E+04  0.84678334402E+02 0.  0.
         25    2    1    2    0    0  0.28441609161E+02 -0.21002699889E+02 -0.51529154574E+03  0.53143532688E+03  0.12509232994E+03 0.  0.
        -24    2    1    2    0    0 -0.27662297714E+02 -0.64780225210E+02  0.97744612225E+02  0.14548389465E+03  0.81546760155E+02 0.  0.
        -13    1    3    3    0    0  0.29564472704E+02  0.68391780026E+00 -0.65153046935E+03  0.65220125597E+03  0.00000000000E+00 0.  1.
         14    1    3    3    0    0 -0.30343784150E+02  0.85099007299E+02 -0.25199614274E+04  0.25215804928E+04  0.00000000000E+00 0. -1.
         13    1    5    5    0    0 -0.55580004524E+02 -0.48989643191E+02  0.79125855875E+02  0.10839752355E+03  0.00000000000E+00 0. -1.
        -14    1    5    5    0    0  0.27917706810E+02 -0.15790582019E+02  0.18618756350E+02  0.37086371109E+02  0.00000000000E+00 0.  1.
          5    1    4    4  501    0  0.39774557701E+02 -0.63607567675E+02 -0.41578896042E+03  0.42252321843E+03  0.41800000000E+01 0.  1.
         -5    1    4    4    0  501 -0.11332948540E+02  0.42604867786E+02 -0.99502585330E+02  0.10891210846E+03  0.41800000000E+01 0.  1.
</event>
<event>
11    1  0.1003949E-008  0.1277537E+03  0.7561462E-02  0.1122060E+00
         22   -1    0    0    0    0  0.00000000000E+00  0.00000000000E+00  0.42562447301E+03  0.42562447301E+03  0.00000000000E+00 0.  1.
         22   -1    0    0    0    0 -0.00000000000E+00 -0.00000000000E+00 -0.22138960820E+03  0.22138960820E+03  0.00000000000E+00 0. -1.
         24    2    1    2    0    0 -0.98430084923E+01  0.14939816467E+02 -0.16366752450E+03  0.18374018349E+03  0.81567846126E+02 0.  0.
         25    2    1    2    0    0 -0.64203339558E+01  0.79520313275E+01  0.51792515339E+02  0.13577462654E+03  0.12509128298E+03 0.  0.
        -24    2    1    2    0    0  0.16263342448E+02 -0.22891847795E+02  0.31610987397E+03  0.32749927118E+03  0.80881315483E+02 0.  0.
        -13    1    3    3    0    0 -0.20767380331E+02  0.40750838867E+02 -0.55081499923E+02  0.71595297248E+02  0.00000000000E+00 0.  1.
         14    1    3    3    0    0  0.10924371839E+02 -0.25811022400E+02 -0.10858602458E+03  0.11214488625E+03  0.00000000000E+00 0. -1.
         11    1    5    5    0    0  0.46339777991E+02 -0.99533203393E+00  0.13900098926E+03  0.14652522215E+03  0.00000000000E+00 0. -1.
        -12    1    5    5    0    0 -0.30076435543E+02 -0.21896515761E+02  0.17710888471E+03  0.18097404903E+03  0.00000000000E+00 0.  1.
          5    1    4    4  501    0 -0.24482984884E+02  0.59303240006E+02  0.61031688652E+01  0.64583371654E+02  0.41800000000E+01 0.  1.
         -5    1    4    4    0  501  0.18062650928E+02 -0.51351208678E+02  0.45689346474E+02  0.71191254888E+02  0.41800000000E+01 0.  1.
</event>
<event>
11    1  0.1003949E-008  0.1503230E+03  0.7561462E-02  0.1096549E+00
         22   -1    0    0    0    0  0.00000000000E+00  0.00000000000E+00  0.84460258412E+03  0.84460258412E+03  0.00000000000E+00 0. -1.
         22   -1    0    0    0    0 -0.00000000000E+00 -0.00000000000E+00 -0.29912978765E+03  0.29912978765E+03  0.00000000000E+00 0.  1.
        -24    2    1    2    0    0  0.68096023360E+02 -0.52193753899E+02 -0.26180073677E+03  0.28677348519E+03  0.79612497053E+02 0.  0.
         25    2    1    2    0    0 -0.31318705773E+02  0.31211809125E+02  0.18102268151E+03  0.22443627079E+03  0.12508952820E+03 0.  0.
         24    2    1    2    0    0 -0.36777317587E+02  0.20981944774E+02  0.62625085173E+03  0.63252261579E+03  0.78114768792E+02 0.  0.
        -13    1    5    5    0    0 -0.53331106792E+01  0.34161383684E+02  0.11374241395E+03  0.11888136496E+03  0.00000000000E+00 0.  1.
         14    1    5    5    0    0 -0.31444206907E+02 -0.13179438910E+02  0.51250843778E+03  0.51364125083E+03  0.00000000000E+00 0. -1.
         11    1    3    3    0    0  0.83396480208E+02 -0.40379004705E+02 -0.17687301916E+03  0.19967348807E+03  0.00000000000E+00 0. -1.
        -12    1    3    3    0    0 -0.15300456848E+02 -0.11814749194E+02 -0.84927717611E+02  0.87099997112E+02  0.00000000000E+00 0.  1.
          5    1    4    4  501    0 -0.86770510589E+01  0.32535408724E+02 -0.72994036079E+01  0.34707315208E+02  0.41800000000E+01 0.  1.
         -5    1    4    4    0  501 -0.22641654714E+02 -0.13235995987E+01  0.18832208512E+03  0.18972895559E+03  0.41800000000E+01 0.  1.
</event>
<event>
11    1  0.1003949E-008  0.1517029E+03  0.7561462E-02  0.1095151E+00
         22   -1    0    0    0    0  0.00000000000E+00  0.00000000000E+00  0.43491686210E+03  0.43491686210E+03  0.00000000000E+00 0.  1.
         22   -1    0    0    0    0 -0.00000000000E+00 -0.00000000000E+00 -0.45659427485E+03  0.45659427485E+03  0.00000000000E+00 0.  1.
        -24    2    1    2    0    0 -0.80987748643E+02  0.36932868978E+02 -0.36862682301E+03  0.38779456887E+03  0.81091557929E+02 0.  0.
         25    2    1    2    0    0  0.29536841654E+02  0.44101072715E+02  0.10565104628E+01  0.13589224648E+03  0.12509299265E+03 0.  0.
         24    2    1    2    0    0  0.51450906989E+02 -0.81033941694E+02  0.34589289980E+03  0.36782432159E+03  0.80244238969E+02 0.  0.
        -13    1    5    5    0    0  0.42601295134E+02 -0.73631258327E+02  0.34598204674E+03  0.35628641458E+03  0.00000000000E+00 0.  1.
         14    1    5    5    0    0  0.88496118557E+01 -0.74026833663E+01 -0.89146940461E-01  0.11537907011E+02  0.00000000000E+00 0. -1.
         11    1    3    3    0    0  0.12596395927E+02 -0.95523901714E+01 -0.43103351277E+02  0.45910959908E+02  0.00000000000E+00 0. -1.
        -12    1    3    3    0    0 -0.93584144571E+02  0.46485259150E+02 -0.32552347173E+03  0.34188360897E+03  0.00000000000E+00 0.  1.
          5    1    4    4  501    0  0.35132995554E+02  0.25804814717E+02  0.59714830563E+02  0.74050990732E+02  0.41800000000E+01 0. -1.
         -5    1    4    4    0  501 -0.55961539003E+01  0.18296257998E+02 -0.58658320101E+02  0.61841255746E+02  0.41800000000E+01 0. -1.
</event>
<event>
11    1  0.1003949E-008  0.1490833E+03  0.7561462E-02  0.1097819E+00
         22   -1    0    0    0    0  0.00000000000E+00  0.00000000000E+00  0.27168935414E+03  0.27168935414E+03  0.00000000000E+00 0. -1.
         22   -1    0    0    0    0 -0.00000000000E+00 -0.00000000000E+00 -0.53944931438E+03  0.53944931438E+03  0.00000000000E+00 0.  1.
        -24    2    1    2    0    0 -0.80475448191E+02 -0.17844142286E+02 -0.43694422085E+03  0.45181612026E+03  0.80142642983E+02 0.  0.
         25    2    1    2    0    0  0.56512211459E+02  0.60177806675E+02 -0.19868856587E+02  0.15117899587E+03  0.12508124907E+03 0.  0.
         24    2    1    2    0    0  0.23963236732E+02 -0.42333664389E+02  0.18905311719E+03  0.20814355240E+03  0.72223828682E+02 0.  0.
        -13    1    5    5    0    0  0.36267928005E+02 -0.35604499672E+01  0.42184834625E+02  0.55745848977E+02  0.00000000000E+00 0.  1.
         14    1    5    5    0    0 -0.12304691274E+02 -0.38773214422E+02  0.14686828257E+03  0.15239770342E+03  0.00000000000E+00 0. -1.
         11    1    3    3    0    0 -0.53254316541E+02 -0.30507667748E+02 -0.13398239842E+03  0.14737036035E+03  0.00000000000E+00 0. -1.
        -12    1    3    3    0    0 -0.27221131649E+02  0.12663525461E+02 -0.30296182242E+03  0.30444575992E+03  0.00000000000E+00 0.  1.
          5    1    4    4  501    0  0.90296921654E+02  0.29446522158E+02  0.11285390869E+02  0.95736430759E+02  0.41800000000E+01 0. -1.
         -5    1    4    4    0  501 -0.33784710195E+02  0.30731284517E+02 -0.31154247457E+02  0.55442565107E+02  0.41800000000E+01 0. -1.
</event>
<event>
11    1  0.1003949E-008  0.1367909E+03  0.7561462E-02  0.1111196E+00
         22   -1    0    0    0    0  0.00000000000E+00  0.00000000000E+00  0.87525960158E+02  0.87525960158E+02  0.00000000000E+00 0.  1.
         22   -1    0    0    0    0 -0.00000000000E+00 -0.00000000000E+00 -0.28513799278E+04  0.28513799278E+04  0.00000000000E+00 0.  1.
        -24    2    1    2    0    0 -0.66419693228E+02  0.24592033895E+02 -0.26718856663E+04  0.26740785741E+04  0.81895437094E+02 0.  0.
         25    2    1    2    0    0 -0.31195642461E+01 -0.45083691104E+02 -0.81517945778E+02  0.15599439716E+03  0.12508719189E+03 0.  0.
         24    2    1    2    0    0  0.69539257474E+02  0.20491657208E+02 -0.10450355555E+02  0.10883291674E+03  0.80497065107E+02 0.  0.
        -13    1    5    5    0    0  0.19466846252E+02  0.42653505168E+02  0.13903360265E+02  0.48903814092E+02  0.00000000000E+00 0.  1.
         14    1    5    5    0    0  0.50072411222E+02 -0.22161847959E+02 -0.24353715820E+02  0.59929102653E+02  0.00000000000E+00 0. -1.
         13    1    3    3    0    0 -0.45892948376E+02  0.34831526636E+01 -0.53112334757E+03  0.53311378278E+03  0.00000000000E+00 0. -1.
        -14    1    3    3    0    0 -0.20526744852E+02  0.21108881232E+02 -0.21407623187E+04  0.21409647913E+04  0.00000000000E+00 0.  1.
          5    1    4    4  501    0  0.35929365634E+02  0.29723977063E+02 -0.17463907612E+02  0.49968936315E+02  0.41800000000E+01 0.  1.
         -5    1    4    4    0  501 -0.39048929880E+02 -0.74807668167E+02 -0.64054038166E+02  0.10602546084E+03  0.41800000000E+01 0.  1.
</event>
<event>
11    1  0.1003949E-008  0.2416591E+03  0.7561462E-02  0.1028439E+00
         22   -1    0    0    0    0  0.00000000000E+00  0.00000000000E+00  0.15860345461E+04  0.15860345461E+04  0.00000000000E+00 0. -1.
         22   -1    0    0    0    0 -0.00000000000E+00 -0.00000000000E+00 -0.48692809324E+03  0.48692809324E+03  0.00000000000E+00 0. -1.
         24    2    1    2    0    0  0.43988144433E+02 -0.38014573289E+02 -0.27113912509E+03  0.28921701269E+03  0.82158326659E+02 0.  0.
         25    2    1    2    0    0  0.47244879612E+02  0.22290290094E+03 -0.11346497424E+03  0.28361823853E+03  0.12508886022E+03 0.  0.
        -24    2    1    2    0    0 -0.91233024045E+02 -0.18488832765E+03  0.14837105522E+04  0.15001273881E+04  0.80486145080E+02 0.  0.
        -13    1    3    3    0    0  0.24202810599E+02  0.12170939996E+02 -0.23789940797E+02  0.36053697514E+02  0.00000000000E+00 0.  1.
         14    1    3    3    0    0  0.19785333834E+02 -0.50185513286E+02 -0.24734918429E+03  0.25316331517E+03  0.00000000000E+00 0. -1.
         11    1    5    5    0    0 -0.81826460159E+02 -0.16513421765E+03  0.10637034148E+04  0.10795507557E+04  0.00000000000E+00 0. -1.
        -12    1    5    5    0    0 -0.94065638861E+01 -0.19754110001E+02  0.42000713739E+03  0.42057663246E+03  0.00000000000E+00 0.  1.
          5    1    4    4  501    0  0.35693089134E+02  0.22732285268E+03 -0.12859357079E+03  0.26363507887E+03  0.41800000000E+01 0.  1.
         -5    1    4    4    0  501  0.11551790478E+02 -0.44199517409E+01  0.15128596545E+02  0.19983159662E+02  0.41800000000E+01 0.  1.
</event>
<event>
11    1  0.1003949E-008  0.2007198E+03  0.7561462E-02  0.1054016E+00
         22   -1    0    0    0    0  0.00000000000E+00  0.00000000000E+00  0.11687941684E+04  0.11687941684E+04  0.00000000000E+00 0. -1.
         22   -1    0    0    0    0 -0.00000000000E+00 -0.00000000000E+00 -0.18919425538E+04  0.18919425538E+04  0.00000000000E+00 0. -1.
        -24    2    1    2    0    0 -0.14245428800E+03  0.67502337204E+02 -0.18667528099E+04  0.18752018238E+04  0.82255925142E+02 0.  0.
         25    2    1    2    0    0  0.92363579443E+02 -0.40989906446E+02  0.33761273401E+03  0.37395353516E+03  0.12509070729E+03 0.  0.
         24    2    1    2    0    0  0.50090708553E+02 -0.26512430758E+02  0.80599169047E+03  0.81158136323E+03  0.76352576650E+02 0.  0.
        -13    1    5    5    0    0  0.59334228778E+01  0.12476740697E+02  0.26665433509E+02  0.30031981448E+02  0.00000000000E+00 0.  1.
         14    1    5    5    0    0  0.44157285675E+02 -0.38989171455E+02  0.77932625696E+03  0.78154938178E+03  0.00000000000E+00 0. -1.
         13    1    3    3    0    0 -0.69345707692E+02 -0.59688080755E+01 -0.96628025177E+03  0.96878376267E+03  0.00000000000E+00 0. -1.
        -14    1    3    3    0    0 -0.73108580304E+02  0.73471145279E+02 -0.90047255810E+03  0.90641806116E+03  0.00000000000E+00 0.  1.
          5    1    4    4  501    0  0.12012471142E+02 -0.70034166983E+02  0.11240018828E+03  0.13304269515E+03  0.41800000000E+01 0. -1.
         -5    1    4    4    0  501  0.80351108301E+02  0.29044260537E+02  0.22521254574E+03  0.24091084001E+03  0.41800000000E+01 0. -1.
</event>
<event>
11    1  0.1003949E-008  0.1498429E+03  0.7561462E-02  0.1097039E+00
         22   -1    0    0    0    0  0.00000000000E+00  0.00000000000E+00  0.11968664675E+03  0.11968664675E+03  0.00000000000E+00 0. -1.
         22   -1    0    0    0    0 -0.00000000000E+00 -0.00000000000E+00 -0.13792383395E+04  0.13792383395E+04  0.00000000000E+00 0. -1.
        -24    2    1    2    0    0  0.46292763084E+02 -0.13208597498E+02 -0.78031018643E+03  0.78582289762E+03  0.79474224840E+02 0.  0.
         25    2    1    2    0    0  0.38143976193E+01  0.79874834618E+02 -0.55398652049E+03  0.57353553312E+03  0.12508958400E+03 0.  0.
         24    2    1    2    0    0 -0.50107160703E+02 -0.66666237121E+02  0.74745014200E+02  0.13956655549E+03  0.83288003560E+02 0.  0.
        -13    1    5    5    0    0 -0.24268895454E+02  0.17339853967E+02  0.22021396117E+02  0.37075486634E+02  0.00000000000E+00 0.  1.
         14    1    5    5    0    0 -0.25838265249E+02 -0.84006091087E+02  0.52723618083E+02  0.10249106885E+03  0.00000000000E+00 0. -1.
         11    1    3    3    0    0  0.60382221575E+02 -0.32541327188E+02 -0.60894982404E+03  0.61280081499E+03  0.00000000000E+00 0. -1.
        -12    1    3    3    0    0 -0.14089458491E+02  0.19332729690E+02 -0.17136036239E+03  0.17302208263E+03  0.00000000000E+00 0.  1.
          5    1    4    4  501    0 -0.22159908067E+02 -0.28413707105E+02 -0.16232592286E+03  0.16632972648E+03  0.41800000000E+01 0. -1.
         -5    1    4    4    0  501  0.25974305687E+02  0.10828854172E+03 -0.39166059763E+03  0.40720580664E+03  0.41800000000E+01 0. -1.
</event>
<event>
11    1  0.1003949E-008  0.2131699E+03  0.7561462E-02  0.1045582E+00
         22   -1    0    0    0    0  0.00000000000E+00  0.00000000000E+00  0.18133525376E+03  0.18133525376E+03  0.00000000000E+00 0. -1.
         22   -1    0    0    0    0 -0.00000000000E+00 -0.00000000000E+00 -0.44773195116E+03  0.44773195116E+03  0.00000000000E+00 0. -1.
         24    2    1    2    0    0  0.99958070076E+02 -0.14110368469E+03 -0.22244646398E+03  0.29273736268E+03  0.79440975367E+02 0.  0.
         25    2    1    2    0    0 -0.33491360940E+02  0.18113494311E+03 -0.26313934652E+02  0.22421351870E+03  0.12509092668E+03 0.  0.
        -24    2    1    2    0    0 -0.66466709136E+02 -0.40031258424E+02 -0.17636298779E+02  0.11211632354E+03  0.78985479014E+02 0.  0.
        -13    1    3    3    0    0 -0.12682514813E+01  0.90811116263E+01 -0.11474671318E+02  0.14688197032E+02  0.00000000000E+00 0.  1.
         14    1    3    3    0    0  0.10122632156E+03 -0.15018479631E+03 -0.21097179266E+03  0.27804916565E+03  0.00000000000E+00 0. -1.
         11    1    5    5    0    0 -0.35186110921E+02 -0.13914269748E+02 -0.48128340974E+02  0.61220964622E+02  0.00000000000E+00 0. -1.
        -12    1    5    5    0    0 -0.31280598215E+02 -0.26116988676E+02  0.30492042195E+02  0.50895358918E+02  0.00000000000E+00 0.  1.
          5    1    4    4  501    0 -0.73389222961E+02  0.75825751331E+02 -0.34824298469E+02  0.11120128945E+03  0.41800000000E+01 0.  1.
         -5    1    4    4    0  501  0.39897862021E+02  0.10530919178E+03  0.85103638174E+01  0.11301222925E+03  0.41800000000E+01 0.  1.
</event>
<event>
11    1  0.1003949E-008  0.1452445E+03  0.7561462E-02  0.1101839E+00
         22   -1    0    0    0    0  0.00000000000E+00  0.00000000000E+00  0.22857031647E+04  0.22857031647E+04  0.00000000000E+00 0. -1.
         22   -1    0    0    0    0 -0.00000000000E+00 -0.00000000000E+00 -0.24306430324E+03  0.24306430324E+03  0.00000000000E+00 0. -1.
        -24    2    1    2    0    0 -0.68107515312E+02 -0.25144795531E+02 -0.20593537527E+03  0.23189970315E+03  0.78084564110E+02 0.  0.
         25    2    1    2    0    0  0.97867015561E+02  0.23233839751E+02  0.25701331008E+03  0.30302076660E+03  0.12509188378E+03 0.  0.
         24    2    1    2    0    0 -0.29759500250E+02  0.19109557807E+01  0.19915609266E+04  0.19938469981E+04  0.90673303690E+02 0.  0.
        -11    1    5    5    0    0  0.31851311049E+02 -0.65184965130E+01  0.56973356939E+03  0.57066043923E+03  0.00000000000E+00 0.  1.
         12    1    5    5    0    0 -0.61610811299E+02  0.84294522937E+01  0.14218273572E+04  0.14231865589E+04  0.00000000000E+00 0. -1.
         11    1    3    3    0    0 -0.77535814471E+02 -0.22942516433E+02 -0.11574771126E+03  0.14119381802E+03  0.00000000000E+00 0. -1.
        -12    1    3    3    0    0  0.94282991590E+01 -0.22022790986E+01 -0.90187664010E+02  0.90705885134E+02  0.00000000000E+00 0.  1.
          5    1    4    4  501    0  0.51327484326E+02 -0.40248004630E+02  0.18517557254E+03  0.19637178410E+03  0.41800000000E+01 0. -1.
         -5    1    4    4    0  501  0.46539531235E+02  0.63481844381E+02  0.71837737540E+02  0.10664898250E+03  0.41800000000E+01 0. -1.
</event>
<event>
11    1  0.1003949E-008  0.3289748E+03  0.7561462E-02  0.9886231E-01
         22   -1    0    0    0    0  0.00000000000E+00  0.00000000000E+00  0.30831870332E+03  0.30831870332E+03  0.00000000000E+00 0.  1.
         22   -1    0    0    0    0 -0.00000000000E+00 -0.00000000000E+00 -0.27069817911E+04  0.27069817911E+04  0.00000000000E+00 0.  1.
        -24    2    1    2    0    0 -0.60822077782E+02  0.27739530529E+02 -0.13038309465E+04  0.13080693066E+04  0.81248797487E+02 0.  0.
         25    2    1    2    0    0 -0.15375090446E+03 -0.24542928644E+03 -0.12950990234E+04  0.13329681235E+04  0.12509061801E+03 0.  0.
         24    2    1    2    0    0  0.21457298224E+03  0.21768975591E+03  0.20026688217E+03  0.37426306423E+03  0.80843197728E+02 0.  0.
        -13    1    5    5    0    0  0.20368005094E+03  0.16438055434E+03  0.16398490640E+03  0.30886498559E+03  0.00000000000E+00 0.  1.
         14    1    5    5    0    0  0.10892931296E+02  0.53309201566E+02  0.36281975770E+02  0.65398078638E+02  0.00000000000E+00 0. -1.
         13    1    3    3    0    0  0.48123348033E+01  0.14303340637E+02 -0.45123715405E+02  0.47580393143E+02  0.00000000000E+00 0. -1.
        -14    1    3    3    0    0 -0.65634412585E+02  0.13436189892E+02 -0.12587072311E+04  0.12604889135E+04  0.00000000000E+00 0.  1.
          5    1    4    4  501    0 -0.99570990679E+02 -0.23512186345E+03 -0.96249091827E+03  0.99579260542E+03  0.41800000000E+01 0. -1.
         -5    1    4    4    0  501 -0.54179913777E+02 -0.10307422990E+02 -0.33260810511E+03  0.33717551811E+03  0.41800000000E+01 0. -1.
</event>
<event>
11    1  0.1003949E-008  0.2463667E+03  0.7561462E-02  0.1025853E+00
         22   -1    0    0    0    0  0.00000000000E+00  0.00000000000E+00  0.63539420238E+02  0.63539420238E+02  0.00000000000E+00 0.  1.
         22   -1    0    0    0    0 -0.00000000000E+00 -0.00000000000E+00 -0.31268453733E+04  0.31268453733E+04  0.00000000000E+00 0.  1.
        -24    2    1    2    0    0 -0.65010773689E+02  0.19152530260E+03 -0.21245533976E+04  0.21356738980E+04  0.80420875768E+02 0.  0.
         25    2    1    2    0    0  0.14496545230E+03 -0.21665544126E+03 -0.87967039763E+03  0.92597069298E+03  0.12508858140E+03 0.  0.
         24    2    1    2    0    0 -0.79954678611E+02  0.25130138666E+02 -0.59082157866E+02  0.12874020256E+03  0.77839988927E+02 0.  0.
        -13    1    5    5    0    0  0.10141165871E+02  0.20707289772E+02 -0.19646635447E+02  0.30292332022E+02  0.00000000000E+00 0.  1.
         14    1    5    5    0    0 -0.90095844481E+02  0.44228488940E+01 -0.39435522419E+02  0.98447870539E+02  0.00000000000E+00 0. -1.
         13    1    3    3    0    0 -0.15088145490E+02  0.23308615497E+02 -0.66999057453E+03  0.67056566692E+03  0.00000000000E+00 0. -1.
        -14    1    3    3    0    0 -0.49922628199E+02  0.16821668710E+03 -0.14545628230E+04  0.14651082311E+04  0.00000000000E+00 0.  1.
          5    1    4    4  501    0  0.12422386763E+03 -0.21972760809E+03 -0.86208545580E+03  0.89828759122E+03  0.41800000000E+01 0. -1.
         -5    1    4    4    0  501  0.20741584666E+02  0.30721668260E+01 -0.17584941829E+02  0.27683101752E+02  0.41800000000E+01 0. -1.
</event>
<event>
11    1  0.1003949E-008  0.1554777E+03  0.7561462E-02  0.1091409E+00
         22   -1    0    0    0    0  0.00000000000E+00  0.00000000000E+00  0.10013299153E+04  0.10013299153E+04  0.00000000000E+00 0. -1.
         22   -1    0    0    0    0 -0.00000000000E+00 -0.00000000000E+00 -0.29650830956E+03  0.29650830956E+03  0.00000000000E+00 0.  1.
        -24    2    1    2    0    0  0.44491381239E+02  0.41716758262E+02 -0.25276281821E+03  0.27055786554E+03  0.74784660275E+02 0.  0.
         25    2    1    2    0    0  0.43180790710E+02  0.76440817340E+01  0.11661269654E+03  0.17654622677E+03  0.12508811503E+03 0.  0.
         24    2    1    2    0    0 -0.87672171949E+02 -0.49360839996E+02  0.84097172743E+03  0.85073413255E+03  0.79951333288E+02 0.  0.
        -11    1    5    5    0    0 -0.58142118839E+02 -0.49656522695E+02  0.32321291242E+03  0.33213380283E+03  0.00000000000E+00 0.  1.
         12    1    5    5    0    0 -0.29530053110E+02  0.29568269924E+00  0.51775881501E+03  0.51860032972E+03  0.00000000000E+00 0. -1.
         11    1    3    3    0    0 -0.26495599776E+01  0.28088728961E+02 -0.25408867661E+02  0.37968505613E+02  0.00000000000E+00 0. -1.
        -12    1    3    3    0    0  0.47140941216E+02  0.13628029301E+02 -0.22735395055E+03  0.23258935993E+03  0.00000000000E+00 0.  1.
          5    1    4    4  501    0  0.26280915993E+02 -0.14228634726E+02  0.13805505623E+03  0.14131458361E+03  0.41800000000E+01 0.  1.
         -5    1    4    4    0  501  0.16899874717E+02  0.21872716459E+02 -0.21442359689E+02  0.35231643160E+02  0.41800000000E+01 0.  1.
</event>
<event>
11    1  0.1003949E-008  0.1432249E+03  0.7561462E-02  0.1104010E+00
         22   -1    0    0    0    0  0.00000000000E+00  0.00000000000E+00  0.14420395890E+03  0.14420395890E+03  0.00000000000E+00 0.  1.
         22   -1    0    0    0    0 -0.00000000000E+00 -0.00000000000E+00 -0.20260954716E+04  0.20260954716E+04  0.00000000000E+00 0. -1.
        -24    2    1    2    0    0 -0.64750902542E+02 -0.27028878073E+02 -0.18638198115E+04  0.18668514744E+04  0.79918070241E+02 0.  0.
         25    2    1    2    0    0  0.45253720778E+02  0.47576392546E+02 -0.10756884775E+03  0.17756665919E+03  0.12508976408E+03 0.  0.
         24    2    1    2    0    0  0.19497181764E+02 -0.20547514473E+02  0.89497146538E+02  0.12588129697E+03  0.83869072009E+02 0.  0.
        -13    1    5    5    0    0 -0.30307727506E+02  0.48811142110E+01  0.44718697173E+02  0.54241547723E+02  0.00000000000E+00 0.  1.
         14    1    5    5    0    0  0.49804909270E+02 -0.25428628684E+02  0.44778449365E+02  0.71639749244E+02  0.00000000000E+00 0. -1.
         13    1    3    3    0    0 -0.79613590794E+02 -0.13994107356E+02 -0.11902954485E+04  0.11930370546E+04  0.00000000000E+00 0. -1.
        -14    1    3    3    0    0  0.14862688253E+02 -0.13034770717E+02 -0.67352436304E+03  0.67381441982E+03  0.00000000000E+00 0.  1.
          5    1    4    4  501    0 -0.53897240033E+01  0.37533051462E+02 -0.11861919567E+03  0.12460242798E+03  0.41800000000E+01 0.  1.
         -5    1    4    4    0  501  0.50643444781E+02  0.10043341084E+02  0.11050347915E+02  0.52964231218E+02  0.41800000000E+01 0.  1.
</event>
<event>
11    1  0.1003949E-008  0.1636791E+03  0.7561462E-02  0.1083667E+00
         22   -1    0    0    0    0  0.00000000000E+00  0.00000000000E+00  0.22937981601E+03  0.22937981601E+03  0.00000000000E+00 0. -1.
         22   -1    0    0    0    0 -0.00000000000E+00 -0.00000000000E+00 -0.10493656024E+04  0.10493656024E+04  0.00000000000E+00 0. -1.
        -24    2    1    2    0    0  0.75955065452E+02 -0.35822307056E+02 -0.85564589442E+03  0.86353910753E+03  0.80730935473E+02 0.  0.
         25    2    1    2    0    0 -0.73918613488E+02 -0.74192047432E+02 -0.12412843555E+03  0.20499650271E+03  0.12508907342E+03 0.  0.
         24    2    1    2    0    0 -0.20364519648E+01  0.11001435449E+03  0.15978854357E+03  0.21020980819E+03  0.80922675908E+02 0.  0.
        -11    1    5    5    0    0  0.14409205769E+02  0.84732263750E+02  0.57108459825E+02  0.10319185004E+03  0.00000000000E+00 0.  1.
         12    1    5    5    0    0 -0.16445657734E+02  0.25282090737E+02  0.10268008374E+03  0.10701795815E+03  0.00000000000E+00 0. -1.
         11    1    3    3    0    0  0.70785617428E+02 -0.47053084292E+00 -0.71226618341E+03  0.71577506318E+03  0.00000000000E+00 0. -1.
        -12    1    3    3    0    0  0.51694480240E+01 -0.35351776213E+02 -0.14337971101E+03  0.14776404435E+03  0.00000000000E+00 0.  1.
          5    1    4    4  501    0 -0.55182216583E+01 -0.90889885551E+02 -0.83397232542E+02  0.12354753280E+03  0.41800000000E+01 0.  1.
         -5    1    4    4    0  501 -0.68400391829E+02  0.16697838119E+02 -0.40731203011E+02  0.81448969908E+02  0.41800000000E+01 0.  1.
</event>
<event>
11    1  0.1003949E-008  0.1391587E+03  0.7561462E-02  0.1108502E+00
         22   -1    0    0    0    0  0.00000000000E+00  0.00000000000E+00  0.44445588456E+03  0.44445588456E+03  0.00000000000E+00 0.  1.
         22   -1    0    0    0    0 -0.00000000000E+00 -0.00000000000E+00 -0.21225196379E+04  0.21225196379E+04  0.00000000000E+00 0.  1.
         24    2    1    2    0    0 -0.24335628776E+01  0.57179590490E+02 -0.19443709603E+04  0.19468542523E+04  0.79922590634E+02 0.  0.
         25    2    1    2    0    0 -0.30752539011E+02 -0.10631871106E+03 -0.12959942088E+03  0.21140644497E+03  0.12508912065E+03 0.  0.
        -24    2    1    2    0    0  0.33186101888E+02  0.49139120567E+02  0.39590662788E+03  0.40871482520E+03  0.82400120211E+02 0.  0.
        -13    1    3    3    0    0 -0.24860260957E+02  0.66027711711E+02 -0.11832339297E+04  0.11853354900E+04  0.00000000000E+00 0.  1.
         14    1    3    3    0    0  0.22426698080E+02 -0.88481212211E+01 -0.76113703060E+03  0.76151876233E+03  0.00000000000E+00 0. -1.
         11    1    5    5    0    0  0.53610368176E+02  0.61997740145E+01  0.21092516249E+03  0.21771984968E+03  0.00000000000E+00 0. -1.
        -12    1    5    5    0    0 -0.20424266288E+02  0.42939346553E+02  0.18498146539E+03  0.19099497552E+03  0.00000000000E+00 0.  1.
          5    1    4    4  501    0  0.33278155039E+01 -0.12661529604E+03 -0.92094325350E+02  0.15665677358E+03  0.41800000000E+01 0. -1.
         -5    1    4    4    0  501 -0.34080354515E+02  0.20296584986E+02 -0.37505095529E+02  0.54749671383E+02  0.41800000000E+01 0. -1.
</event>
<event>
11    1  0.1003949E-008  0.1331190E+03  0.7561462E-02  0.1115495E+00
         22   -1    0    0    0    0  0.00000000000E+00  0.00000000000E+00  0.53809256576E+03  0.53809256576E+03  0.00000000000E+00 0.  1.
         22   -1    0    0    0    0 -0.00000000000E+00 -0.00000000000E+00 -0.33498796184E+03  0.33498796184E+03  0.00000000000E+00 0. -1.
        -24    2    1    2    0    0  0.19799510160E+02  0.42260090670E+02 -0.28815391339E+03  0.30278590636E+03  0.80428175571E+02 0.  0.
         25    2    1    2    0    0 -0.15157008094E+02 -0.23126259745E+02  0.80085592978E+02  0.15108553713E+03  0.12509427862E+03 0.  0.
         24    2    1    2    0    0 -0.46425020652E+01 -0.19133830925E+02  0.41117292433E+03  0.41920908411E+03  0.79280679802E+02 0.  0.
        -13    1    5    5    0    0 -0.10489668440E+02 -0.35460723142E+02  0.39040474868E+03  0.39215222021E+03  0.00000000000E+00 0.  1.
         14    1    5    5    0    0  0.58471663749E+01  0.16326892216E+02  0.20768175651E+02  0.27056863897E+02  0.00000000000E+00 0. -1.
         13    1    3    3    0    0  0.22484637312E+02  0.60890685911E+02 -0.15119062118E+03  0.16453521957E+03  0.00000000000E+00 0. -1.
        -14    1    3    3    0    0 -0.26851271520E+01 -0.18630595241E+02 -0.13696329221E+03  0.13825068679E+03  0.00000000000E+00 0.  1.
          5    1    4    4  501    0 -0.28432191383E+02  0.24260545499E+02 -0.17676838177E+02  0.41556065534E+02  0.41800000000E+01 0. -1.
         -5    1    4    4    0  501  0.13275183289E+02 -0.47386805243E+02  0.97762431155E+02  0.10952947160E+03  0.41800000000E+01 0. -1.
</event>
<event>
11    1  0.1003949E-008  0.1588491E+03  0.7561462E-02  0.1088165E+00
         22   -1    0    0    0    0  0.00000000000E+00  0.00000000000E+00  0.21025732263E+04  0.21025732263E+04  0.00000000000E+00 0.  1.
         22   -1    0    0    0    0 -0.00000000000E+00 -0.00000000000E+00 -0.61651025926E+03  0.61651025926E+03  0.00000000000E+00 0. -1.
        -24    2    1    2    0    0  0.82367197427E+01  0.18286099202E+02 -0.59457379104E+03  0.60488473218E+03  0.10938611089E+03 0.  0.
         25    2    1    2    0    0  0.88563128372E+02  0.53331250467E+01  0.39428431457E+03  0.42305958487E+03  0.12508965466E+03 0.  0.
         24    2    1    2    0    0 -0.96799848115E+02 -0.23619224248E+02  0.16863524435E+04  0.16911391685E+04  0.78987627028E+02 0.  0.
        -13    1    5    5    0    0 -0.92935121986E+02 -0.38892925393E+02  0.16115294247E+04  0.16146754111E+04  0.00000000000E+00 0.  1.
         14    1    5    5    0    0 -0.38647261292E+01  0.15273701145E+02  0.74823018814E+02  0.76463757422E+02  0.00000000000E+00 0. -1.
         11    1    3    3    0    0  0.27543315829E+01 -0.14150823733E+01 -0.57942974167E+03  0.57943801595E+03  0.00000000000E+00 0. -1.
        -12    1    3    3    0    0  0.54823881598E+01  0.19701181575E+02 -0.15144049372E+02  0.25446716228E+02  0.00000000000E+00 0.  1.
          5    1    4    4  501    0 -0.14149300542E+02  0.30591074559E+02  0.36118294649E+02  0.49578424308E+02  0.41800000000E+01 0. -1.
         -5    1    4    4    0  501  0.10271242891E+03 -0.25257949512E+02  0.35816601992E+03  0.37348116056E+03  0.41800000000E+01 0. -1.
</event>
<event>
11    1  0.1003949E-008  0.1376070E+03  0.7561462E-02  0.1110260E+00
         22   -1    0    0    0    0  0.00000000000E+00  0.00000000000E+00  0.12000584329E+04  0.12000584329E+04  0.00000000000E+00 0. -1.
         22   -1    0    0    0    0 -0.00000000000E+00 -0.00000000000E+00 -0.65552466982E+03  0.65552466982E+03  0.00000000000E+00 0. -1.
        -24    2    1    2    0    0 -0.37208057017E+02  0.48916991401E+02 -0.52914926695E+03  0.53771518408E+03  0.73221314691E+02 0.  0.
         25    2    1    2    0    0  0.20847305600E+02 -0.15242046335E+02 -0.86457150546E+02  0.15423600854E+03  0.12508787840E+03 0.  0.
         24    2    1    2    0    0  0.16360751417E+02 -0.33674945066E+02  0.11601401805E+04  0.11636319101E+04  0.81928673497E+02 0.  0.
        -13    1    5    5    0    0 -0.26824178408E+02  0.87890223742E+01  0.46620193603E+03  0.46705570184E+03  0.00000000000E+00 0.  1.
         14    1    5    5    0    0  0.43184929825E+02 -0.42463967440E+02  0.69393824451E+03  0.69657620824E+03  0.00000000000E+00 0. -1.
         11    1    3    3    0    0 -0.39024767191E+02  0.43840209499E+02 -0.52907703868E+03  0.53232265524E+03  0.00000000000E+00 0. -1.
        -12    1    3    3    0    0  0.18167101740E+01  0.50767819017E+01 -0.72228263544E-01  0.53925288368E+01  0.00000000000E+00 0.  1.
          5    1    4    4  501    0  0.46898908416E+02 -0.40012694231E+02 -0.14067326549E+01  0.61805943137E+02  0.41800000000E+01 0. -1.
         -5    1    4    4    0  501 -0.26051602816E+02  0.24770647896E+02 -0.85050417891E+02  0.92430065401E+02  0.41800000000E+01 0. -1.
</event>
<event>
11    1  0.1003949E-008  0.1957132E+03  0.7561462E-02  0.1057597E+00
         22   -1    0    0    0    0  0.00000000000E+00  0.00000000000E+00  0.34247416898E+03  0.34247416898E+03  0.00000000000E+00 0. -1.
         22   -1    0    0    0    0 -0.00000000000E+00 -0.00000000000E+00 -0.19768491081E+04  0.19768491081E+04  0.00000000000E+00 0. -1.
         24    2    1    2    0    0  0.14898006327E+03 -0.28972652998E+02 -0.16929618755E+04  0.17016737267E+04  0.80864618723E+02 0.  0.
         25    2    1    2    0    0 -0.13234161874E+03  0.56321282547E+02 -0.24048727745E+03  0.30686679784E+03  0.12508681020E+03 0.  0.
        -24    2    1    2    0    0 -0.16638444533E+02 -0.27348629549E+02  0.29907421379E+03  0.31078275252E+03  0.78203251459E+02 0.  0.
        -11    1    3    3    0    0  0.83776359544E+02 -0.48666365361E+02 -0.12187780982E+04  0.12226229779E+04  0.00000000000E+00 0.  1.
         12    1    3    3    0    0  0.65203703725E+02  0.19693712362E+02 -0.47418377728E+03  0.47905074879E+03  0.00000000000E+00 0. -1.
         13    1    5    5    0    0 -0.32651575023E+02 -0.44700651323E+02  0.25329246352E+03  0.25927079600E+03  0.00000000000E+00 0. -1.
        -14    1    5    5    0    0  0.16013130490E+02  0.17352021775E+02  0.45781750268E+02  0.51511956528E+02  0.00000000000E+00 0.  1.
          5    1    4    4  501    0  0.51453303082E+01  0.45364131181E+02 -0.28681085333E+02  0.54078238485E+02  0.41800000000E+01 0.  1.
         -5    1    4    4    0  501 -0.13748694904E+03  0.10957151366E+02 -0.21180619211E+03  0.25278855935E+03  0.41800000000E+01 0.  1.
</event>
<event>
11    1  0.1003949E-008  0.1723072E+03  0.7561462E-02  0.1076041E+00
         22   -1    0    0    0    0  0.00000000000E+00  0.00000000000E+00  0.80707578345E+03  0.80707578345E+03  0.00000000000E+00 0.  1.
         22   -1    0    0    0    0 -0.00000000000E+00 -0.00000000000E+00 -0.79732881421E+02  0.79732881421E+02  0.00000000000E+00 0. -1.
         24    2    1    2    0    0 -0.24522397663E+02  0.92954779783E+02  0.52157688406E+02  0.13477332160E+03  0.78749505922E+02 0.  0.
         25    2    1    2    0    0  0.88721773436E+02  0.38342791443E+02  0.25876531279E+03  0.30323027096E+03  0.12508951749E+03 0.  0.
        -24    2    1    2    0    0 -0.64199375773E+02 -0.13129757123E+03  0.41641990083E+03  0.44880507231E+03  0.81607886053E+02 0.  0.
        -11    1    3    3    0    0 -0.38838967082E+02  0.64715167346E+02  0.20527137420E+01  0.75503191206E+02  0.00000000000E+00 0.  1.
         12    1    3    3    0    0  0.14316569419E+02  0.28239612437E+02  0.50104974664E+02  0.59270130391E+02  0.00000000000E+00 0. -1.
         11    1    5    5    0    0 -0.72515127884E+02 -0.83263830170E+02  0.34575322607E+03  0.36295537263E+03  0.00000000000E+00 0. -1.
        -12    1    5    5    0    0  0.83157521107E+01 -0.48033741056E+02  0.70666674761E+02  0.85849699678E+02  0.00000000000E+00 0.  1.
          5    1    4    4  501    0 -0.92601970867E+01 -0.13589701758E+02 -0.44809859710E+01  0.17549440995E+02  0.41800000000E+01 0. -1.
         -5    1    4    4    0  501  0.97981970522E+02  0.51932493201E+02  0.26324629876E+03  0.28568082997E+03  0.41800000000E+01 0. -1.
</event>
<event>
11    1  0.1003949E-008  0.1764774E+03  0.7561462E-02  0.1072528E+00
         22   -1    0    0    0    0  0.00000000000E+00  0.00000000000E+00  0.31972228120E+04  0.31972228120E+04  0.00000000000E+00 0. -1.
         22   -1    0    0    0    0 -0.00000000000E+00 -0.00000000000E+00 -0.15584203273E+04  0.15584203273E+04  0.00000000000E+00 0.  1.
        -24    2    1    2    0    0  0.85982252162E+02 -0.90034538646E+02 -0.15484029668E+04  0.15557367329E+04  0.85240065995E+02 0.  0.
         25    2    1    2    0    0 -0.11719241072E+03  0.54873029856E+02  0.16325286328E+04  0.16424195843E+04  0.12508894211E+03 0.  0.
         24    2    1    2    0    0  0.31210158560E+02  0.35161508790E+02  0.15546768188E+04  0.15574868221E+04  0.80838013703E+02 0.  0.
        -13    1    5    5    0    0  0.41276676688E+02 -0.13117120454E+02  0.83472949295E+03  0.83585234897E+03  0.00000000000E+00 0.  1.
         14    1    5    5    0    0 -0.10066518127E+02  0.48278629245E+02  0.71994732581E+03  0.72163447310E+03  0.00000000000E+00 0. -1.
         11    1    3    3    0    0  0.61096664845E+01 -0.29977468458E+02 -0.11986562146E+03  0.12370830145E+03  0.00000000000E+00 0. -1.
        -12    1    3    3    0    0  0.79872585678E+02 -0.60057070188E+02 -0.14285373453E+04  0.14320284315E+04  0.00000000000E+00 0.  1.
          5    1    4    4  501    0 -0.42680737059E+02  0.18147286007E+02  0.13932118605E+03  0.14689736072E+03  0.41800000000E+01 0. -1.
         -5    1    4    4    0  501 -0.74511673663E+02  0.36725743849E+02  0.14932074468E+04  0.14955222236E+04  0.41800000000E+01 0. -1.
</event>
<event>
11    1  0.1003949E-008  0.1510394E+03  0.7561462E-02  0.1095821E+00
         22   -1    0    0    0    0  0.00000000000E+00  0.00000000000E+00  0.17007883170E+04  0.17007883170E+04  0.00000000000E+00 0.  1.
         22   -1    0    0    0    0 -0.00000000000E+00 -0.00000000000E+00 -0.12599481999E+04  0.12599481999E+04  0.00000000000E+00 0.  1.
        -24    2    1    2    0    0 -0.28102700180E+02 -0.25199784156E+01 -0.11931612524E+04  0.11960389888E+04  0.77970357663E+02 0.  0.
         25    2    1    2    0    0 -0.40936197725E+02 -0.47824186543E+02  0.14383923607E+02  0.14077352308E+03  0.12508941778E+03 0.  0.
         24    2    1    2    0    0  0.69038897905E+02  0.50344164959E+02  0.16196174459E+04  0.16239240050E+04  0.81655363727E+02 0.  0.
        -11    1    5    5    0    0  0.61516272914E+02  0.51147229631E+02  0.16084317779E+04  0.16104201548E+04  0.00000000000E+00 0.  1.
         12    1    5    5    0    0  0.75226249915E+01 -0.80306467229E+00  0.11185668042E+02  0.13503850161E+02  0.00000000000E+00 0. -1.
         11    1    3    3    0    0 -0.17242544888E+02 -0.92632646750E+01 -0.66883884188E+02  0.69689076553E+02  0.00000000000E+00 0. -1.
        -12    1    3    3    0    0 -0.10860155292E+02  0.67432862593E+01 -0.11262773682E+04  0.11263499123E+04  0.00000000000E+00 0.  1.
          5    1    4    4  501    0  0.40832788122E+02 -0.70522805794E+01 -0.15668038324E+02  0.44497315336E+02  0.41800000000E+01 0. -1.
         -5    1    4    4    0  501 -0.81768985847E+02 -0.40771905964E+02  0.30051961931E+02  0.96276207748E+02  0.41800000000E+01 0. -1.
</event>
<event>
11    1  0.1003949E-008  0.1515961E+03  0.7561462E-02  0.1095259E+00
         22   -1    0    0    0    0  0.00000000000E+00  0.00000000000E+00  0.81868822320E+02  0.81868822320E+02  0.00000000000E+00 0.  1.
         22   -1    0    0    0    0 -0.00000000000E+00 -0.00000000000E+00 -0.15594166008E+04  0.15594166008E+04  0.00000000000E+00 0. -1.
         24    2    1    2    0    0  0.48743432148E+02  0.66446029652E+02 -0.11916997822E+04  0.11973384357E+04  0.81731031850E+02 0.  0.
         25    2    1    2    0    0 -0.49324814952E+02 -0.99271998104E+02 -0.31494632049E+03  0.35654820719E+03  0.12509025655E+03 0.  0.
        -24    2    1    2    0    0  0.58138280409E+00  0.32825968452E+02  0.29098324220E+02  0.87398780264E+02  0.75590687974E+02 0.  0.
        -11    1    3    3    0    0  0.93543204611E+01  0.47128431082E+02 -0.24754029437E+03  0.25216024600E+03  0.00000000000E+00 0.  1.
         12    1    3    3    0    0  0.39389111687E+02  0.19317598569E+02 -0.94415948787E+03  0.94517818969E+03  0.00000000000E+00 0. -1.
         11    1    5    5    0    0  0.11712341608E+00  0.11381318662E+01 -0.24825521399E+02  0.24851872662E+02  0.00000000000E+00 0. -1.
        -12    1    5    5    0    0  0.46425938801E+00  0.31687836586E+02  0.53923845619E+02  0.62546907602E+02  0.00000000000E+00 0.  1.
          5    1    4    4  501    0 -0.80443645284E+02 -0.62898521099E+02 -0.12945783221E+03  0.16493697809E+03  0.41800000000E+01 0.  1.
         -5    1    4    4    0  501  0.31118830332E+02 -0.36373477005E+02 -0.18548848828E+03  0.19161122910E+03  0.41800000000E+01 0.  1.
</event>
<event>
11    1  0.1003949E-008  0.3769024E+03  0.7561462E-02  0.9720479E-01
         22   -1    0    0    0    0  0.00000000000E+00  0.00000000000E+00  0.52058426069E+03  0.52058426069E+03  0.00000000000E+00 0.  1.
         22   -1    0    0    0    0 -0.00000000000E+00 -0.00000000000E+00 -0.66034128057E+03  0.66034128057E+03  0.00000000000E+00 0.  1.
         24    2    1    2    0    0 -0.76547730431E+02  0.14591120011E+03 -0.31049300974E+03  0.36152056403E+03  0.84507844409E+02 0.  0.
         25    2    1    2    0    0  0.36762184064E+03 -0.25930408766E+03  0.35317530745E+02  0.46827275909E+03  0.12509045262E+03 0.  0.
        -24    2    1    2    0    0 -0.29107411021E+03  0.11339288755E+03  0.13541845911E+03  0.35113221815E+03  0.85869616117E+02 0.  0.
        -13    1    3    3    0    0 -0.28404372674E+02  0.10849667922E+03 -0.13371126154E+03  0.17451945235E+03  0.00000000000E+00 0.  1.
         14    1    3    3    0    0 -0.48143357757E+02  0.37414520890E+02 -0.17678174820E+03  0.18700111167E+03  0.00000000000E+00 0. -1.
         11    1    5    5    0    0 -0.11312689948E+03  0.70484646555E+02  0.94991001218E+02  0.16367367259E+03  0.00000000000E+00 0. -1.
        -12    1    5    5    0    0 -0.17794721073E+03  0.42908240998E+02  0.40427457894E+02  0.18745854556E+03  0.00000000000E+00 0.  1.
          5    1    4    4  501    0  0.14415221026E+01 -0.24807440232E+02  0.21628571156E+02  0.33207748600E+02  0.41800000000E+01 0. -1.
         -5    1    4    4    0  501  0.36618031853E+03 -0.23449664743E+03  0.13688959589E+02  0.43506501049E+03  0.41800000000E+01 0. -1.
</event>
<event>
11    1  0.1003949E-008  0.2234619E+03  0.7561462E-02  0.1039070E+00
         22   -1    0    0    0    0  0.00000000000E+00  0.00000000000E+00  0.53740993555E+03  0.53740993555E+03  0.00000000000E+00 0.  1.
         22   -1    0    0    0    0 -0.00000000000E+00 -0.00000000000E+00 -0.78819603761E+03  0.78819603761E+03  0.00000000000E+00 0.  1.
        -24    2    1    2    0    0  0.21948070187E+02 -0.34622432957E+02 -0.49923725039E+03  0.50709819738E+03  0.78932369577E+02 0.  0.
         25    2    1    2    0    0 -0.19791646385E+03  0.84377842375E+02 -0.20489759246E+03  0.32236682364E+03  0.12508716416E+03 0.  0.
         24    2    1    2    0    0  0.17596839367E+03 -0.49755409418E+02  0.45334874079E+03  0.49614095214E+03  0.84795561703E+02 0.  0.
        -11    1    5    5    0    0  0.66211847406E+02 -0.55267373708E+02  0.14400495605E+03  0.16785683990E+03  0.00000000000E+00 0.  1.
         12    1    5    5    0    0  0.10975654626E+03  0.55119642901E+01  0.30934378474E+03  0.32828411225E+03  0.00000000000E+00 0. -1.
         11    1    3    3    0    0 -0.16313513406E+02  0.17663608906E+02 -0.14649158783E+03  0.14845173998E+03  0.00000000000E+00 0. -1.
        -12    1    3    3    0    0  0.38261583593E+02 -0.52286041863E+02 -0.35274566256E+03  0.35864645740E+03  0.00000000000E+00 0.  1.
          5    1    4    4  501    0 -0.86039223480E+02  0.49424816107E+02 -0.17518449208E+03  0.20137685838E+03  0.41800000000E+01 0.  1.
         -5    1    4    4    0  501 -0.11187724037E+03  0.34953026268E+02 -0.29713100376E+02  0.12098996526E+03  0.41800000000E+01 0.  1.
</event>
<event>
11    1  0.1003949E-008  0.2057605E+03  0.7561462E-02  0.1050523E+00
         22   -1    0    0    0    0  0.00000000000E+00  0.00000000000E+00  0.40976444319E+03  0.40976444319E+03  0.00000000000E+00 0. -1.
         22   -1    0    0    0    0 -0.00000000000E+00 -0.00000000000E+00 -0.18297345938E+04  0.18297345938E+04  0.00000000000E+00 0. -1.
        -24    2    1    2    0    0  0.18091271840E+02 -0.15894921605E+02 -0.14994169352E+04  0.15017663249E+04  0.80442567447E+02 0.  0.
         25    2    1    2    0    0 -0.10045208562E+03 -0.12552874160E+03 -0.27303888370E+03  0.34066368638E+03  0.12511366326E+03 0.  0.
         24    2    1    2    0    0  0.82360813779E+02  0.14142366321E+03  0.35248566824E+03  0.39706902567E+03  0.81447582344E+02 0.  0.
        -13    1    5    5    0    0  0.58161246550E+02  0.37524335905E+02  0.19440636686E+03  0.20636046584E+03  0.00000000000E+00 0.  1.
         14    1    5    5    0    0  0.24199567229E+02  0.10389932730E+03  0.15807930138E+03  0.19070855983E+03  0.00000000000E+00 0. -1.
         11    1    3    3    0    0  0.41207023225E+01 -0.48154444224E+02 -0.94623817699E+03  0.94747164511E+03  0.00000000000E+00 0. -1.
        -12    1    3    3    0    0  0.13970569517E+02  0.32259522619E+02 -0.55317875817E+03  0.55429467984E+03  0.00000000000E+00 0.  1.
          5    1    4    4  501    0 -0.47527494477E+02 -0.96024658716E+02 -0.68356812100E+02  0.12716022953E+03  0.41800000000E+01 0.  1.
         -5    1    4    4    0  501 -0.52924591141E+02 -0.29504082884E+02 -0.20468207160E+03  0.21350345686E+03  0.41800000000E+01 0.  1.
</event>
<event>
11    1  0.1003949E-008  0.1522987E+03  0.7561462E-02  0.1094553E+00
         22   -1    0    0    0    0  0.00000000000E+00  0.00000000000E+00  0.30795912668E+03  0.30795912668E+03  0.00000000000E+00 0. -1.
         22   -1    0    0    0    0 -0.00000000000E+00 -0.00000000000E+00 -0.27112568855E+04  0.27112568855E+04  0.00000000000E+00 0. -1.
        -24    2    1    2    0    0  0.79917043352E+02  0.31188035246E+02 -0.22117029073E+04  0.22151032868E+04  0.87711994564E+02 0.  0.
         25    2    1    2    0    0 -0.10038628398E+03 -0.27107529673E+01 -0.47818909984E+03  0.50437778777E+03  0.12508950158E+03 0.  0.
         24    2    1    2    0    0  0.20469240626E+02 -0.28477282278E+02  0.28659424829E+03  0.29973493757E+03  0.80466292510E+02 0.  0.
        -11    1    5    5    0    0  0.83093413175E+01 -0.52044409322E+02  0.12028467731E+03  0.13132429056E+03  0.00000000000E+00 0.  1.
         12    1    5    5    0    0  0.12159899309E+02  0.23567127043E+02  0.16630957098E+03  0.16841064701E+03  0.00000000000E+00 0. -1.
         11    1    3    3    0    0  0.95859168551E+02  0.10849906878E+02 -0.18114515770E+04  0.18140186097E+04  0.00000000000E+00 0. -1.
        -12    1    3    3    0    0 -0.15942125199E+02  0.20338128368E+02 -0.40025133026E+03  0.40108467709E+03  0.00000000000E+00 0.  1.
          5    1    4    4  501    0 -0.88857530611E+02  0.16849004508E+02 -0.14879122782E+03  0.17417190237E+03  0.41800000000E+01 0.  1.
         -5    1    4    4    0  501 -0.11528753367E+02 -0.19559757475E+02 -0.32939787202E+03  0.33020588541E+03  0.41800000000E+01 0.  1.
</event>
<event>
11    1  0.1003949E-008  0.1479768E+03  0.7561462E-02  0.1098964E+00
         22   -1    0    0    0    0  0.00000000000E+00  0.00000000000E+00  0.16724473470E+04  0.16724473470E+04  0.00000000000E+00 0. -1.
         22   -1    0    0    0    0 -0.00000000000E+00 -0.00000000000E+00 -0.94048971926E+03  0.94048971926E+03  0.00000000000E+00 0.  1.
         24    2    1    2    0    0 -0.14030482376E+02  0.74414399612E+02 -0.85666412927E+03  0.86348540317E+03  0.77454850120E+02 0.  0.
         25    2    1    2    0    0 -0.34892451658E+02 -0.13494953944E+03  0.33364578042E+02  0.19023615616E+03  0.12509092160E+03 0.  0.
        -24    2    1    2    0    0  0.48922934033E+02  0.60535139830E+02  0.15552571789E+04  0.15592155069E+04  0.79184264066E+02 0.  0.
        -11    1    3    3    0    0  0.22045619511E+02  0.58214319028E+02 -0.36837479044E+03  0.37359724639E+03  0.00000000000E+00 0.  1.
         12    1    3    3    0    0 -0.36076101887E+02  0.16200080584E+02 -0.48828933884E+03  0.48988815679E+03  0.00000000000E+00 0. -1.
         11    1    5    5    0    0  0.59104576019E+02  0.41912995103E+02  0.14516317253E+04  0.14534389275E+04  0.00000000000E+00 0. -1.
        -12    1    5    5    0    0 -0.10181641985E+02  0.18622144727E+02  0.10362545367E+03  0.10577657943E+03  0.00000000000E+00 0.  1.
          5    1    4    4  501    0 -0.18761309050E+02 -0.12976302760E+03 -0.21260717131E+02  0.13289063376E+03  0.41800000000E+01 0.  1.
         -5    1    4    4    0  501 -0.16131142608E+02 -0.51865118452E+01  0.54625295174E+02  0.57345522404E+02  0.41800000000E+01 0.  1.
</event>
<event>
11    1  0.1003949E-008  0.6166330E+03  0.7561462E-02  0.9165068E-01
         22   -1    0    0    0    0  0.00000000000E+00  0.00000000000E+00  0.33395663540E+04  0.33395663540E+04  0.00000000000E+00 0. -1.
         22   -1    0    0    0    0 -0.00000000000E+00 -0.00000000000E+00 -0.28464491731E+02  0.28464491731E+02  0.00000000000E+00 0. -1.
         24    2    1    2    0    0 -0.16039543268E+03  0.87171610401E+02  0.10998070753E+04  0.11166126693E+04  0.62631189780E+02 0.  0.
         25    2    1    2    0    0  0.24679203011E+03 -0.57727059599E+02  0.11997149753E+04  0.12325592936E+04  0.12509064989E+03 0.  0.
        -24    2    1    2    0    0 -0.86396597427E+02 -0.29444550802E+02  0.10115798117E+04  0.10188588828E+04  0.80301644572E+02 0.  0.
        -13    1    3    3    0    0 -0.73936668407E+02  0.75637112920E+02  0.60034299025E+03  0.60958945999E+03  0.00000000000E+00 0.  1.
         14    1    3    3    0    0 -0.86458764278E+02  0.11534497480E+02  0.49946408507E+03  0.50702320935E+03  0.00000000000E+00 0. -1.
         11    1    5    5    0    0 -0.56361579026E+02  0.21849042821E+02  0.42545046540E+03  0.42972329093E+03  0.00000000000E+00 0. -1.
        -12    1    5    5    0    0 -0.30035018400E+02 -0.51293593623E+02  0.58612934626E+03  0.58913559189E+03  0.00000000000E+00 0.  1.
          5    1    4    4  501    0  0.21913289996E+03 -0.91884401650E+02  0.10438784833E+04  0.10705894318E+04  0.41800000000E+01 0.  1.
         -5    1    4    4    0  501  0.27659130152E+02  0.34157342051E+02  0.15583649198E+03  0.16196986180E+03  0.41800000000E+01 0.  1.
</event>
<event>
11    1  0.1003949E-008  0.1312109E+03  0.7561462E-02  0.1117790E+00
         22   -1    0    0    0    0  0.00000000000E+00  0.00000000000E+00  0.15304882520E+03  0.15304882520E+03  0.00000000000E+00 0. -1.
         22   -1    0    0    0    0 -0.00000000000E+00 -0.00000000000E+00 -0.30031428313E+04  0.30031428313E+04  0.00000000000E+00 0. -1.
        -24    2    1    2    0    0 -0.92429916241E+01  0.38654812173E+02 -0.28123513712E+04  0.28137738157E+04  0.80145016509E+02 0.  0.
         25    2    1    2    0    0  0.35648399807E+02 -0.26974885134E+02 -0.15130766235E+03  0.20134536049E+03  0.12508993831E+03 0.  0.
         24    2    1    2    0    0 -0.26405408183E+02 -0.11679927039E+02  0.11356502748E+03  0.14107248025E+03  0.78554203838E+02 0.  0.
        -11    1    5    5    0    0  0.43844384418E+01 -0.39188181592E+02  0.36944041697E+02  0.54035165345E+02  0.00000000000E+00 0.  1.
         12    1    5    5    0    0 -0.30789846625E+02  0.27508254553E+02  0.76620985779E+02  0.87037314902E+02  0.00000000000E+00 0. -1.
         11    1    3    3    0    0  0.32372572406E+02 -0.28700303508E+00 -0.10804866093E+04  0.10809714976E+04  0.00000000000E+00 0. -1.
        -12    1    3    3    0    0 -0.41615564030E+02  0.38941815208E+02 -0.17318647619E+04  0.17328023181E+04  0.00000000000E+00 0.  1.
          5    1    4    4  501    0 -0.16619140899E+02 -0.63705594432E+02 -0.56007922103E+02  0.86538767870E+02  0.41800000000E+01 0.  1.
         -5    1    4    4    0  501  0.52267540706E+02  0.36730709298E+02 -0.95299740248E+02  0.11480659262E+03  0.41800000000E+01 0.  1.
</event>
<event>
11    1  0.1003949E-008  0.1421838E+03  0.7561462E-02  0.1105144E+00
         22   -1    0    0    0    0  0.00000000000E+00  0.00000000000E+00  0.24160001610E+03  0.24160001610E+03  0.00000000000E+00 0. -1.
         22   -1    0    0    0    0 -0.00000000000E+00 -0.00000000000E+00 -0.27465765848E+03  0.27465765848E+03  0.00000000000E+00 0.  1.
        -24    2    1    2    0    0 -0.50731099424E+02  0.57391655075E+02 -0.12652194654E+03  0.16949052422E+03  0.82775529738E+02 0.  0.
         25    2    1    2    0    0 -0.90203002479E+01 -0.65268098210E+02 -0.68919754263E+02  0.15728599313E+03  0.12509060974E+03 0.  0.
         24    2    1    2    0    0  0.59751399672E+02  0.78764431346E+01  0.16238405843E+03  0.18948115723E+03  0.76826156951E+02 0.  0.
        -11    1    5    5    0    0 -0.89367541099E+00 -0.27233535038E+02  0.38795137053E+02  0.47408087341E+02  0.00000000000E+00 0.  1.
         12    1    5    5    0    0  0.60645075083E+02  0.35109978172E+02  0.12358892138E+03  0.14207306989E+03  0.00000000000E+00 0. -1.
         13    1    3    3    0    0 -0.64018628375E+02  0.17700335294E+02 -0.53352004492E+02  0.85194618561E+02  0.00000000000E+00 0. -1.
        -14    1    3    3    0    0  0.13287528951E+02  0.39691319781E+02 -0.73169942052E+02  0.84295905662E+02  0.00000000000E+00 0.  1.
          5    1    4    4  501    0 -0.59350966024E+02 -0.11339442956E+01 -0.33611698135E+02  0.68345019198E+02  0.41800000000E+01 0.  1.
         -5    1    4    4    0  501  0.50330665776E+02 -0.64134153914E+02 -0.35308056127E+02  0.88940973928E+02  0.41800000000E+01 0.  1.
</event>
<event>
11    1  0.1003949E-008  0.1984495E+03  0.7561462E-02  0.1055626E+00
         22   -1    0    0    0    0  0.00000000000E+00  0.00000000000E+00  0.10755861144E+04  0.10755861144E+04  0.00000000000E+00 0.  1.
         22   -1    0    0    0    0 -0.00000000000E+00 -0.00000000000E+00 -0.20488908805E+03  0.20488908805E+03  0.00000000000E+00 0.  1.
        -24    2    1    2    0    0 -0.12355263131E+03  0.91204417534E+02 -0.10824279820E+03  0.20481134584E+03  0.81533340074E+02 0.  0.
         25    2    1    2    0    0  0.16270884541E+03 -0.39305253477E+02  0.19806609498E+03  0.28791874472E+03  0.12509178334E+03 0.  0.
         24    2    1    2    0    0 -0.39156214100E+02 -0.51899164057E+02  0.78087372957E+03  0.78774511187E+03  0.80943482832E+02 0.  0.
        -13    1    5    5    0    0 -0.39924760471E+02 -0.50119186119E+02  0.78255792659E+03  0.78517694043E+03  0.00000000000E+00 0.  1.
         14    1    5    5    0    0  0.76854637133E+00 -0.17799779380E+01 -0.16841970156E+01  0.25681714452E+01  0.00000000000E+00 0. -1.
         13    1    3    3    0    0  0.11661584359E+02  0.35815496317E+01 -0.12108125364E+02  0.17187982643E+02  0.00000000000E+00 0. -1.
        -14    1    3    3    0    0 -0.13521421566E+03  0.87622867902E+02 -0.96134672836E+02  0.18762336320E+03  0.00000000000E+00 0.  1.
          5    1    4    4  501    0  0.17873493917E+03 -0.16895007293E+02  0.15849138778E+03  0.23951745688E+03  0.41800000000E+01 0.  1.
         -5    1    4    4    0  501 -0.16026093759E+02 -0.22410246183E+02  0.39574707197E+02  0.48401287844E+02  0.41800000000E+01 0.  1.
</event>
<event>
11    1  0.1003949E-008  0.1417138E+03  0.7561462E-02  0.1105660E+00
         22   -1    0    0    0    0  0.00000000000E+00  0.00000000000E+00  0.12703565542E+04  0.12703565542E+04  0.00000000000E+00 0. -1.
         22   -1    0    0    0    0 -0.00000000000E+00 -0.00000000000E+00 -0.87113707626E+02  0.87113707626E+02  0.00000000000E+00 0. -1.
         24    2    1    2    0    0  0.42511131278E+02 -0.34393133188E+02 -0.29926904023E+02  0.10314636487E+03  0.82179493239E+02 0.  0.
         25    2    1    2    0    0 -0.84918952960E+02 -0.16140350071E+02  0.31157949417E+03  0.34670013495E+03  0.12508981939E+03 0.  0.
        -24    2    1    2    0    0  0.42407821681E+02  0.50533483259E+02  0.90159025644E+03  0.90762376202E+03  0.81017569683E+02 0.  0.
        -11    1    3    3    0    0  0.30389605094E+02 -0.27097122716E+02  0.24089145429E+02  0.47308234851E+02  0.00000000000E+00 0.  1.
         12    1    3    3    0    0  0.12121526185E+02 -0.72960104718E+01 -0.54016049452E+02  0.55838130021E+02  0.00000000000E+00 0. -1.
         11    1    5    5    0    0 -0.24066682822E+02  0.10367127259E+02  0.18751797848E+03  0.18934010352E+03  0.00000000000E+00 0. -1.
        -12    1    5    5    0    0  0.66474504503E+02  0.40166356000E+02  0.71407227796E+03  0.71828365849E+03  0.00000000000E+00 0.  1.
          5    1    4    4  501    0  0.11166103438E+02  0.34427160563E+02  0.13078842264E+03  0.13576816691E+03  0.41800000000E+01 0. -1.
         -5    1    4    4    0  501 -0.96085056398E+02 -0.50567510634E+02  0.18079107153E+03  0.21093196804E+03  0.41800000000E+01 0. -1.
</event>
<event>
11    1  0.1003949E-008  0.1465837E+03  0.7561462E-02  0.1100422E+00
         22   -1    0    0    0    0  0.00000000000E+00  0.00000000000E+00  0.54659533246E+03  0.54659533246E+03  0.00000000000E+00 0.  1.
         22   -1    0    0    0    0 -0.00000000000E+00 -0.00000000000E+00 -0.42505736712E+03  0.42505736712E+03  0.00000000000E+00 0.  1.
         24    2    1    2    0    0 -0.70193134638E+01 -0.76883735844E+02 -0.39483617296E+03  0.41021055196E+03  0.80104393536E+02 0.  0.
         25    2    1    2    0    0  0.26521600818E+01  0.46449302425E+02  0.27663034976E+03  0.30714223055E+03  0.12508967875E+03 0.  0.
        -24    2    1    2    0    0  0.43671533820E+01  0.30434433419E+02  0.23974378853E+03  0.25429991707E+03  0.79031872775E+02 0.  0.
        -11    1    3    3    0    0 -0.16783297046E+02 -0.91844582945E+02 -0.32838379058E+03  0.34139862389E+03  0.00000000000E+00 0.  1.
         12    1    3    3    0    0  0.97639835819E+01  0.14960847101E+02 -0.66452382374E+02  0.68811928069E+02  0.00000000000E+00 0. -1.
         11    1    5    5    0    0  0.24485432068E+02  0.31512913071E+02  0.52351272712E+02  0.65827470165E+02  0.00000000000E+00 0. -1.
        -12    1    5    5    0    0 -0.20118278686E+02 -0.10784796521E+01  0.18739251582E+03  0.18847244690E+03  0.00000000000E+00 0.  1.
          5    1    4    4  501    0  0.27836457967E+02 -0.18903458842E+02  0.16485846695E+02  0.37702316767E+02  0.41800000000E+01 0.  1.
         -5    1    4    4    0  501 -0.25184297885E+02  0.65352761268E+02  0.26014450306E+03  0.26943991378E+03  0.41800000000E+01 0.  1.
</event>
<event>
11    1  0.1003949E-008  0.1433511E+03  0.7561462E-02  0.1103873E+00
         22   -1    0    0    0    0  0.00000000000E+00  0.00000000000E+00  0.60057236508E+03  0.60057236508E+03  0.00000000000E+00 0. -1.
         22   -1    0    0    0    0 -0.00000000000E+00 -0.00000000000E+00 -0.57874461236E+03  0.57874461236E+03  0.00000000000E+00 0. -1.
         24    2    1    2    0    0  0.49863921780E+02  0.36652958819E+02 -0.46337119581E+03  0.47447097259E+03  0.81117129169E+02 0.  0.
         25    2    1    2    0    0 -0.10778936697E+03  0.68623017153E+00 -0.39506548644E+02  0.16978805310E+03  0.12509275377E+03 0.  0.
        -24    2    1    2    0    0  0.57925445188E+02 -0.37339188991E+02  0.52470549717E+03  0.53505795175E+03  0.78876997505E+02 0.  0.
        -13    1    3    3    0    0  0.38899113178E+02  0.23805566749E+02 -0.91683967922E+02  0.10240017572E+03  0.00000000000E+00 0.  1.
         14    1    3    3    0    0  0.10964808602E+02  0.12847392070E+02 -0.37168722788E+03  0.37207079687E+03  0.00000000000E+00 0. -1.
         13    1    5    5    0    0  0.11762985143E+02 -0.54165551957E+02  0.29381360676E+03  0.29899617114E+03  0.00000000000E+00 0. -1.
        -14    1    5    5    0    0  0.46162460046E+02  0.16826362966E+02  0.23089189041E+03  0.23606178062E+03  0.00000000000E+00 0.  1.
          5    1    4    4  501    0 -0.10565725016E+02  0.50630340067E+02  0.40627532229E+01  0.52048479749E+02  0.41800000000E+01 0. -1.
         -5    1    4    4    0  501 -0.97223641953E+02 -0.49944109895E+02 -0.43569301867E+02  0.11773957335E+03  0.41800000000E+01 0. -1.
</event>
<event>
11    1  0.1003949E-008  0.1747536E+03  0.7561462E-02  0.1073967E+00
         22   -1    0    0    0    0  0.00000000000E+00  0.00000000000E+00  0.10664599129E+03  0.10664599129E+03  0.00000000000E+00 0. -1.
         22   -1    0    0    0    0 -0.00000000000E+00 -0.00000000000E+00 -0.16366743951E+04  0.16366743951E+04  0.00000000000E+00 0.  1.
        -24    2    1    2    0    0  0.13330092574E+02 -0.24331509059E+02 -0.12815344975E+04  0.12853904078E+04  0.95541187911E+02 0.  0.
         25    2    1    2    0    0 -0.11715743377E+03  0.79124256175E+02 -0.25162702933E+03  0.31456316166E+03  0.12508920249E+03 0.  0.
         24    2    1    2    0    0  0.10382734120E+03 -0.54792747116E+02  0.31331229653E+01  0.14336681694E+03  0.82230565019E+02 0.  0.
        -13    1    5    5    0    0  0.19308477088E+02 -0.40590207179E+02 -0.27100711763E+02  0.52486481920E+02  0.00000000000E+00 0.  1.
         14    1    5    5    0    0  0.84518864109E+02 -0.14202539938E+02  0.30233834728E+02  0.90880335020E+02  0.00000000000E+00 0. -1.
         11    1    3    3    0    0 -0.13897147853E+02 -0.18403755510E+02 -0.73464785605E+02  0.76999374409E+02  0.00000000000E+00 0. -1.
        -12    1    3    3    0    0  0.27227240427E+02 -0.59277535481E+01 -0.12080697119E+04  0.12083910334E+04  0.00000000000E+00 0.  1.
          5    1    4    4  501    0 -0.30192151292E+02  0.94873225367E+02 -0.12030146963E+03  0.15621271039E+03  0.41800000000E+01 0. -1.
         -5    1    4    4    0  501 -0.86965282480E+02 -0.15748969193E+02 -0.13132555970E+03  0.15835045128E+03  0.41800000000E+01 0. -1.
</event>
<event>
11    1  0.1003949E-008  0.1471257E+03  0.7561462E-02  0.1099852E+00
         22   -1    0    0    0    0  0.00000000000E+00  0.00000000000E+00  0.10434393518E+04  0.10434393518E+04  0.00000000000E+00 0.  1.
         22   -1    0    0    0    0 -0.00000000000E+00 -0.00000000000E+00 -0.11082483646E+03  0.11082483646E+03  0.00000000000E+00 0. -1.
         24    2    1    2    0    0  0.35300963042E+01 -0.76672687448E+02 -0.61937684244E+02  0.12508953040E+03  0.76941219817E+02 0.  0.
         25    2    1    2    0    0 -0.36025883587E+02  0.85119008290E+02  0.41345408963E+03  0.44173752543E+03  0.12507856443E+03 0.  0.
        -24    2    1    2    0    0  0.32495787282E+02 -0.84463208427E+01  0.58109810994E+03  0.58743713240E+03  0.79246795660E+02 0.  0.
        -13    1    3    3    0    0  0.25306218888E+02 -0.33636765766E+02  0.52104954239E+01  0.42414454944E+02  0.00000000000E+00 0.  1.
         14    1    3    3    0    0 -0.21776122583E+02 -0.43035921681E+02 -0.67148179668E+02  0.82675075461E+02  0.00000000000E+00 0. -1.
         13    1    5    5    0    0 -0.40958478269E+01  0.24216615623E+02  0.73934147460E+02  0.77906858506E+02  0.00000000000E+00 0. -1.
        -14    1    5    5    0    0  0.36591635109E+02 -0.32662936465E+02  0.50716396248E+03  0.50953027389E+03  0.00000000000E+00 0.  1.
          5    1    4    4  501    0  0.20337379517E+01  0.29675116051E+02  0.85005962997E+01  0.31216680480E+02  0.41800000000E+01 0. -1.
         -5    1    4    4    0  501 -0.38059621538E+02  0.55443892239E+02  0.40495349333E+03  0.41052084495E+03  0.41800000000E+01 0. -1.
</event>
<event>
11    1  0.1003949E-008  0.1739542E+03  0.7561462E-02  0.1074641E+00
         22   -1    0    0    0    0  0.00000000000E+00  0.00000000000E+00  0.82535068972E+02  0.82535068972E+02  0.00000000000E+00 0. -1.
         22   -1    0    0    0    0 -0.00000000000E+00 -0.00000000000E+00 -0.74228121194E+03  0.74228121194E+03  0.00000000000E+00 0. -1.
         24    2    1    2    0    0 -0.33062874479E+02 -0.34083902334E-01 -0.33510844693E+03  0.34632031298E+03  0.80913121003E+02 0.  0.
         25    2    1    2    0    0  0.41328262346E+01  0.11915027629E+03 -0.27443360399E+03  0.32430866065E+03  0.12509370800E+03 0.  0.
        -24    2    1    2    0    0  0.28930048244E+02 -0.11911619239E+03 -0.50204092049E+02  0.15418730728E+03  0.78915523733E+02 0.  0.
        -13    1    3    3    0    0 -0.13175840510E+02  0.18916232145E+02 -0.21536892781E+02  0.31547810738E+02  0.00000000000E+00 0.  1.
         14    1    3    3    0    0 -0.19887033969E+02 -0.18950316047E+02 -0.31357155415E+03  0.31477250224E+03  0.00000000000E+00 0. -1.
         13    1    5    5    0    0  0.55006047433E+02 -0.97278633661E+02 -0.37421173401E+02  0.11785220422E+03  0.00000000000E+00 0. -1.
        -14    1    5    5    0    0 -0.26075999189E+02 -0.21837558731E+02 -0.12782918648E+02  0.36335103058E+02  0.00000000000E+00 0.  1.
          5    1    4    4  501    0 -0.52854221052E+02  0.53945175526E+02 -0.18443727458E+03  0.19934450406E+03  0.41800000000E+01 0.  1.
         -5    1    4    4    0  501  0.56987047287E+02  0.65205100768E+02 -0.89996329411E+02  0.12496415659E+03  0.41800000000E+01 0.  1.
</event>
<event>
11    1  0.1003949E-008  0.1364474E+03  0.7561462E-02  0.1111592E+00
         22   -1    0    0    0    0  0.00000000000E+00  0.00000000000E+00  0.16455014809E+04  0.16455014809E+04  0.00000000000E+00 0.  1.
         22   -1    0    0    0    0 -0.00000000000E+00 -0.00000000000E+00 -0.13502450847E+03  0.13502450847E+03  0.00000000000E+00 0.  1.
         24    2    1    2    0    0 -0.20572299566E+02  0.22734933748E+02 -0.64054848484E+02  0.10827753983E+03  0.81736805018E+02 0.  0.
         25    2    1    2    0    0 -0.34356026269E+02 -0.27111139908E+02  0.45657095676E+02  0.14017157845E+03  0.12509256801E+03 0.  0.
        -24    2    1    2    0    0  0.54928325835E+02  0.43762061603E+01  0.15288747252E+04  0.15320768711E+04  0.82251695003E+02 0.  0.
        -11    1    3    3    0    0 -0.37245237122E+02  0.13933961097E+02 -0.76129001202E+02  0.85889392734E+02  0.00000000000E+00 0.  1.
         12    1    3    3    0    0  0.16672937556E+02  0.88009726512E+01  0.12074152718E+02  0.22388147092E+02  0.00000000000E+00 0. -1.
         13    1    5    5    0    0  0.18256927992E+02 -0.27259135419E+02  0.23311486078E+03  0.23541222186E+03  0.00000000000E+00 0. -1.
        -14    1    5    5    0    0  0.36671397843E+02  0.31635341579E+02  0.12957598645E+04  0.12966646492E+04  0.00000000000E+00 0.  1.
          5    1    4    4  501    0 -0.36139394277E+02  0.31074452215E+02  0.63164415383E+02  0.79239467249E+02  0.41800000000E+01 0.  1.
         -5    1    4    4    0  501  0.17833680087E+01 -0.58185592123E+02 -0.17507319707E+02  0.60932111202E+02  0.41800000000E+01 0.  1.
</event>
<event>
11    1  0.1603587E-008  0.1489894E+03  0.7561462E-02  0.1097916E+00
         22   -1    0    0    0    0  0.00000000000E+00  0.00000000000E+00  0.13800007872E+04  0.13800007872E+04  0.00000000000E+00 0. -1.
         22   -1    0    0    0    0 -0.00000000000E+00 -0.00000000000E+00 -0.10647936192E+04  0.10647936192E+04  0.00000000000E+00 0.  1.
        -24    2    1    2    0    0 -0.72001947203E+01 -0.18204943652E+02 -0.74679626633E+03  0.75146240962E+03  0.81288540995E+02 0.  0.
         25    2    1    2    0    0 -0.12651926000E+02  0.96542272904E+02 -0.29318475909E+03  0.33329421228E+03  0.12508895748E+03 0.  0.
         24    2    1    2    0    0  0.19852120720E+02 -0.78337329253E+02  0.13551881935E+04  0.13600377845E+04  0.81467119856E+02 0.  0.
        -13    1    5    5    0    0  0.21098024425E+02 -0.63513240490E+02  0.13217080213E+04  0.13234013570E+04  0.00000000000E+00 0.  1.
         14    1    5    5    0    0 -0.12459037045E+01 -0.14824088763E+02  0.33480172204E+02  0.36636427425E+02  0.00000000000E+00 0. -1.
         11    1    3    3    0    0 -0.11869495644E+02  0.23819379334E+02 -0.10661603387E+03  0.10988733520E+03  0.00000000000E+00 0. -1.
        -12    1    3    3    0    0  0.46693009239E+01 -0.42024322985E+02 -0.64018023245E+03  0.64157507442E+03  0.00000000000E+00 0.  1.
          5    1    4    4  501    0  0.23008489293E+02  0.86149219536E+02 -0.27963179881E+03  0.29353448504E+03  0.41800000000E+01 0.  1.
         -5    1    4    4    0  501 -0.35660415293E+02  0.10393053368E+02 -0.13552960288E+02  0.39759727234E+02  0.41800000000E+01 0.  1.
</event>
<event>
11    1  0.1003949E-008  0.2027939E+03  0.7561462E-02  0.1052565E+00
         22   -1    0    0    0    0  0.00000000000E+00  0.00000000000E+00  0.39907321325E+03  0.39907321325E+03  0.00000000000E+00 0. -1.
         22   -1    0    0    0    0 -0.00000000000E+00 -0.00000000000E+00 -0.20702526763E+03  0.20702526763E+03  0.00000000000E+00 0.  1.
        -24    2    1    2    0    0 -0.11696240926E+03  0.49004996849E+02  0.65534745754E+02  0.16691565525E+03  0.86512069514E+02 0.  0.
         25    2    1    2    0    0  0.45394608503E+02 -0.17797920359E+03 -0.10438577917E+02  0.22247120173E+03  0.12508878567E+03 0.  0.
         24    2    1    2    0    0  0.71567800758E+02  0.12897420675E+03  0.13695177778E+03  0.21671162389E+03  0.80323361372E+02 0.  0.
        -13    1    5    5    0    0  0.71405836130E+02  0.83159274485E+02  0.54558935055E+02  0.12243747694E+03  0.00000000000E+00 0.  1.
         14    1    5    5    0    0  0.16196462737E+00  0.45814932261E+02  0.82392842721E+02  0.94274146945E+02  0.00000000000E+00 0. -1.
         13    1    3    3    0    0 -0.94611824920E+02  0.30657614052E+02  0.86006920574E+02  0.13148565359E+03  0.00000000000E+00 0. -1.
        -14    1    3    3    0    0 -0.22350584340E+02  0.18347382797E+02 -0.20472174820E+02  0.35430001661E+02  0.00000000000E+00 0.  1.
          5    1    4    4  501    0  0.14990151490E+02 -0.12648311611E+03 -0.63528962538E+02  0.14239411780E+03  0.41800000000E+01 0. -1.
         -5    1    4    4    0  501  0.30404457013E+02 -0.51496087483E+02  0.53090384621E+02  0.80077083935E+02  0.41800000000E+01 0. -1.
</event>
<event>
11    1  0.1003949E-008  0.1447927E+03  0.7561462E-02  0.1102322E+00
         22   -1    0    0    0    0  0.00000000000E+00  0.00000000000E+00  0.10518275719E+04  0.10518275719E+04  0.00000000000E+00 0.  1.
         22   -1    0    0    0    0 -0.00000000000E+00 -0.00000000000E+00 -0.73662959084E+03  0.73662959084E+03  0.00000000000E+00 0.  1.
         24    2    1    2    0    0  0.15411894992E+02  0.25637060455E+02 -0.65851160073E+03  0.66429363652E+03  0.82181030991E+02 0.  0.
         25    2    1    2    0    0  0.43219750137E+02  0.19595676141E+02 -0.10133511129E+02  0.13417505275E+03  0.12509324285E+03 0.  0.
        -24    2    1    2    0    0 -0.58631645129E+02 -0.45232736596E+02  0.98384309297E+03  0.98998847351E+03  0.81524694675E+02 0.  0.
        -11    1    3    3    0    0  0.29248618786E+02  0.75898643306E+01 -0.60965845184E+03  0.61040684436E+03  0.00000000000E+00 0.  1.
         12    1    3    3    0    0 -0.13836723794E+02  0.18047196125E+02 -0.48853148889E+02  0.53886792164E+02  0.00000000000E+00 0. -1.
         11    1    5    5    0    0  0.22030661725E+01  0.20220718345E+02  0.15055493473E+03  0.15192274129E+03  0.00000000000E+00 0. -1.
        -12    1    5    5    0    0 -0.60834711301E+02 -0.65453454941E+02  0.83328815824E+03  0.83806573222E+03  0.00000000000E+00 0.  1.
          5    1    4    4  501    0  0.86070464757E+01  0.63482431880E+02  0.24012748985E+02  0.68543306896E+02  0.41800000000E+01 0. -1.
         -5    1    4    4    0  501  0.34612703661E+02 -0.43886755739E+02 -0.34146260114E+02  0.65631745854E+02  0.41800000000E+01 0. -1.
</event>
<event>
11    1  0.1003949E-008  0.1630700E+03  0.7561462E-02  0.1084225E+00
         22   -1    0    0    0    0  0.00000000000E+00  0.00000000000E+00  0.12377401002E+04  0.12377401002E+04  0.00000000000E+00 0.  1.
         22   -1    0    0    0    0 -0.00000000000E+00 -0.00000000000E+00 -0.22764234316E+03  0.22764234316E+03  0.00000000000E+00 0.  1.
        -24    2    1    2    0    0 -0.48100151027E+02 -0.21564686144E+01 -0.15717366094E+03  0.18255423691E+03  0.79399085843E+02 0.  0.
         25    2    1    2    0    0  0.10596872387E+03  0.86833201646E+02  0.10634839508E+03  0.21383837800E+03  0.12508994932E+03 0.  0.
         24    2    1    2    0    0 -0.57868572843E+02 -0.84676733031E+02  0.10609230228E+04  0.10689898284E+04  0.81625192152E+02 0.  0.
        -13    1    5    5    0    0 -0.41538982444E+02 -0.96708828453E+02  0.74268601682E+03  0.75010706179E+03  0.00000000000E+00 0.  1.
         14    1    5    5    0    0 -0.16329590399E+02  0.12032095422E+02  0.31823700602E+03  0.31888276662E+03  0.00000000000E+00 0. -1.
         11    1    3    3    0    0 -0.17466269588E+02 -0.14184201130E+02 -0.54656648836E+00  0.22506907161E+02  0.00000000000E+00 0. -1.
        -12    1    3    3    0    0 -0.30633881439E+02  0.12027732516E+02 -0.15662709445E+03  0.16004732974E+03  0.00000000000E+00 0.  1.
          5    1    4    4  501    0  0.65671264387E+02  0.49542217360E+02  0.13000986659E+03  0.15390641337E+03  0.41800000000E+01 0.  1.
         -5    1    4    4    0  501  0.40297459483E+02  0.37290984286E+02 -0.23661471509E+02  0.59931964624E+02  0.41800000000E+01 0.  1.
</event>
<event>
11    1  0.1003949E-008  0.1429952E+03  0.7561462E-02  0.1104259E+00
         22   -1    0    0    0    0  0.00000000000E+00  0.00000000000E+00  0.32737673315E+03  0.32737673315E+03  0.00000000000E+00 0.  1.
         22   -1    0    0    0    0 -0.00000000000E+00 -0.00000000000E+00 -0.57003919530E+03  0.57003919530E+03  0.00000000000E+00 0. -1.
        -24    2    1    2    0    0 -0.61687781153E+02  0.24673776476E+02 -0.48439592829E+03  0.49451386227E+03  0.74097011015E+02 0.  0.
         25    2    1    2    0    0 -0.14204763963E+02 -0.39781979224E+02 -0.49614381688E+01  0.13212759658E+03  0.12509478294E+03 0.  0.
         24    2    1    2    0    0  0.75892545115E+02  0.15108202748E+02  0.24669490431E+03  0.27077446961E+03  0.80451857560E+02 0.  0.
        -13    1    5    5    0    0  0.16051797992E+02  0.25305158933E+02  0.17167690571E+03  0.17427269219E+03  0.00000000000E+00 0.  1.
         14    1    5    5    0    0  0.59840747124E+02 -0.10196956185E+02  0.75017998597E+02  0.96501777421E+02  0.00000000000E+00 0. -1.
         13    1    3    3    0    0 -0.59175229619E+02  0.20205918246E+01 -0.44561309770E+03  0.44952955791E+03  0.00000000000E+00 0. -1.
        -14    1    3    3    0    0 -0.25125515342E+01  0.22653184652E+02 -0.38782830592E+02  0.44984304361E+02  0.00000000000E+00 0.  1.
          5    1    4    4  501    0 -0.14390790429E+02  0.23669747227E+02 -0.47835100662E+02  0.55434835963E+02  0.41800000000E+01 0. -1.
         -5    1    4    4    0  501  0.18602646601E+00 -0.63451726451E+02  0.42873662493E+02  0.76692760617E+02  0.41800000000E+01 0. -1.
</event>
<event>
11    1  0.1003949E-008  0.2389705E+03  0.7561462E-02  0.1029944E+00
         22   -1    0    0    0    0  0.00000000000E+00  0.00000000000E+00  0.95070983790E+02  0.95070983790E+02  0.00000000000E+00 0. -1.
         22   -1    0    0    0    0 -0.00000000000E+00 -0.00000000000E+00 -0.33177191867E+04  0.33177191867E+04  0.00000000000E+00 0.  1.
         24    2    1    2    0    0  0.17287061054E+03  0.12856804686E+03 -0.25972491922E+04  0.26078298165E+04  0.93053721147E+02 0.  0.
         25    2    1    2    0    0 -0.90544396300E+02 -0.15011780028E+03 -0.64981140181E+03  0.68457013751E+03  0.12509106115E+03 0.  0.
        -24    2    1    2    0    0 -0.82326214243E+02  0.21549753420E+02  0.24412391101E+02  0.12039021644E+03  0.81583343584E+02 0.  0.
        -11    1    3    3    0    0  0.10642868423E+03  0.12402311580E+03 -0.15885452895E+04  0.15969298466E+04  0.00000000000E+00 0.  1.
         12    1    3    3    0    0  0.66441926316E+02  0.45449310535E+01 -0.10087039026E+04  0.10108999699E+04  0.00000000000E+00 0. -1.
         11    1    5    5    0    0 -0.22510595309E+02  0.34513661341E+01  0.48368941996E+02  0.53462074213E+02  0.00000000000E+00 0. -1.
        -12    1    5    5    0    0 -0.59815618933E+02  0.18098387286E+02 -0.23956550894E+02  0.66928142224E+02  0.00000000000E+00 0.  1.
          5    1    4    4  501    0  0.75289507575E+01 -0.56492319610E+02 -0.36091232067E+03  0.36540832350E+03  0.41800000000E+01 0. -1.
         -5    1    4    4    0  501 -0.98073347058E+02 -0.93625480669E+02 -0.28889908114E+03  0.31916181400E+03  0.41800000000E+01 0. -1.
</event>
<event>
11    1  0.1003949E-008  0.1538181E+03  0.7561462E-02  0.1093040E+00
         22   -1    0    0    0    0  0.00000000000E+00  0.00000000000E+00  0.55325313424E+03  0.55325313424E+03  0.00000000000E+00 0. -1.
         22   -1    0    0    0    0 -0.00000000000E+00 -0.00000000000E+00 -0.41989470288E+03  0.41989470288E+03  0.00000000000E+00 0.  1.
        -24    2    1    2    0    0 -0.42896623295E+02  0.73922414229E+02 -0.29037213406E+03  0.31323655134E+03  0.80600975456E+02 0.  0.
         25    2    1    2    0    0  0.33422438638E+00 -0.12901456022E+03 -0.40470449586E+02  0.18420122982E+03  0.12508943730E+03 0.  0.
         24    2    1    2    0    0  0.42562398908E+02  0.55092145991E+02  0.46420101500E+03  0.47571005596E+03  0.77270774919E+02 0.  0.
        -11    1    5    5    0    0  0.57445696216E+02  0.29377490638E+02  0.20762161316E+03  0.21741614297E+03  0.00000000000E+00 0.  1.
         12    1    5    5    0    0 -0.14883297308E+02  0.25714655353E+02  0.25657940184E+03  0.25829391299E+03  0.00000000000E+00 0. -1.
         11    1    3    3    0    0 -0.39389844490E+02  0.15542606206E+01 -0.15218042385E+03  0.15720323463E+03  0.00000000000E+00 0. -1.
        -12    1    3    3    0    0 -0.35067788046E+01  0.72368153608E+02 -0.13819171021E+03  0.15603331671E+03  0.00000000000E+00 0.  1.
          5    1    4    4  501    0  0.61552874008E+02 -0.74003828815E+02 -0.31192682949E+02  0.10127081933E+03  0.41800000000E+01 0.  1.
         -5    1    4    4    0  501 -0.61218649621E+02 -0.55010731405E+02 -0.92777666373E+01  0.82930410495E+02  0.41800000000E+01 0.  1.
</event>
<event>
11    1  0.1003949E-008  0.1936704E+03  0.7561462E-02  0.1059092E+00
         22   -1    0    0    0    0  0.00000000000E+00  0.00000000000E+00  0.41330741688E+03  0.41330741688E+03  0.00000000000E+00 0. -1.
         22   -1    0    0    0    0 -0.00000000000E+00 -0.00000000000E+00 -0.20023963813E+04  0.20023963813E+04  0.00000000000E+00 0. -1.
         24    2    1    2    0    0 -0.69534300328E+01 -0.13715958205E+03 -0.13633536966E+04  0.13723631234E+04  0.76066677249E+02 0.  0.
         25    2    1    2    0    0  0.16180230729E+02  0.19882386981E+03 -0.60567775247E+03  0.64983502555E+03  0.12508912631E+03 0.  0.
        -24    2    1    2    0    0 -0.92268006960E+01 -0.61664287755E+02  0.37994248462E+03  0.39350564922E+03  0.81257529570E+02 0.  0.
        -11    1    3    3    0    0  0.79944121825E+01 -0.80555251853E+02 -0.45652437525E+03  0.46364594728E+03  0.00000000000E+00 0.  1.
         12    1    3    3    0    0 -0.14947842215E+02 -0.56604330199E+02 -0.90682932134E+03  0.90871717615E+03  0.00000000000E+00 0. -1.
         11    1    5    5    0    0 -0.24009336206E+02 -0.76105123115E+02  0.26632896039E+03  0.27802797185E+03  0.00000000000E+00 0. -1.
        -12    1    5    5    0    0  0.14782535510E+02  0.14440835360E+02  0.11361352423E+03  0.11547767737E+03  0.00000000000E+00 0.  1.
          5    1    4    4  501    0 -0.35609742797E+02  0.85146949710E+02 -0.38779020358E+03  0.39864366446E+03  0.41800000000E+01 0. -1.
         -5    1    4    4    0  501  0.51789973526E+02  0.11367692010E+03 -0.21788754890E+03  0.25119136109E+03  0.41800000000E+01 0. -1.
</event>
<event>
11    1  0.1003949E-008  0.1755811E+03  0.7561462E-02  0.1073274E+00
         22   -1    0    0    0    0  0.00000000000E+00  0.00000000000E+00  0.23713370846E+03  0.23713370846E+03  0.00000000000E+00 0.  1.
         22   -1    0    0    0    0 -0.00000000000E+00 -0.00000000000E+00 -0.19219233927E+04  0.19219233927E+04  0.00000000000E+00 0. -1.
         24    2    1    2    0    0 -0.46967986460E+02 -0.12029986649E+02 -0.17462946604E+04  0.17488454325E+04  0.81022179440E+02 0.  0.
         25    2    1    2    0    0  0.16196506164E+03  0.57702631429E+01 -0.71408238085E+02  0.21682325489E+03  0.12508880951E+03 0.  0.
        -24    2    1    2    0    0 -0.11499707518E+03  0.62597235062E+01  0.13291321427E+03  0.19338841374E+03  0.80434101005E+02 0.  0.
        -13    1    3    3    0    0 -0.16398294980E+02 -0.23360548788E+02 -0.18312840691E+03  0.18533923690E+03  0.00000000000E+00 0.  1.
         14    1    3    3    0    0 -0.30569691480E+02  0.11330562139E+02 -0.15631662535E+04  0.15635061956E+04  0.00000000000E+00 0. -1.
         11    1    5    5    0    0 -0.40685551139E+02  0.37823255982E+02  0.31844989890E+02  0.64031368451E+02  0.00000000000E+00 0. -1.
        -12    1    5    5    0    0 -0.74311524037E+02 -0.31563532476E+02  0.10106822438E+03  0.12935704529E+03  0.00000000000E+00 0.  1.
          5    1    4    4  501    0  0.13221934137E+03 -0.48432760701E+02 -0.35795981749E+02  0.14534961730E+03  0.41800000000E+01 0. -1.
         -5    1    4    4    0  501  0.29745720270E+02  0.54203023843E+02 -0.35612256336E+02  0.71473637584E+02  0.41800000000E+01 0. -1.
</event>
<event>
11    1  0.1033871E-008  0.1400621E+03  0.7561462E-02  0.1107489E+00
         22   -1    0    0    0    0  0.00000000000E+00  0.00000000000E+00  0.27108083316E+03  0.27108083316E+03  0.00000000000E+00 0.  1.
         22   -1    0    0    0    0 -0.00000000000E+00 -0.00000000000E+00 -0.17181501562E+04  0.17181501562E+04  0.00000000000E+00 0. -1.
        -24    2    1    2    0    0  0.32615470102E+01 -0.41800454161E+02 -0.10204805139E+04  0.10242123837E+04  0.76632970028E+02 0.  0.
         25    2    1    2    0    0 -0.18725724425E+02  0.10223667894E+03 -0.67572191963E+03  0.69501880873E+03  0.12509212824E+03 0.  0.
         24    2    1    2    0    0  0.15464177415E+02 -0.60436224776E+02  0.24913311053E+03  0.26999979685E+03  0.83312096893E+02 0.  0.
        -11    1    5    5    0    0 -0.40679858057E+01 -0.77071983282E+02  0.20357516568E+03  0.21771423287E+03  0.00000000000E+00 0.  1.
         12    1    5    5    0    0  0.19532163220E+02  0.16635758506E+02  0.45557944853E+02  0.52285563976E+02  0.00000000000E+00 0. -1.
         11    1    3    3    0    0 -0.20866186059E+02 -0.49960027646E+02 -0.86195664955E+03  0.86365541032E+03  0.00000000000E+00 0. -1.
        -12    1    3    3    0    0  0.24127733069E+02  0.81595734845E+01 -0.15852386435E+03  0.16055697341E+03  0.00000000000E+00 0.  1.
          5    1    4    4  501    0 -0.15813066080E+01  0.11810006178E+03 -0.64726787303E+03  0.65796906993E+03  0.41800000000E+01 0. -1.
         -5    1    4    4    0  501 -0.17144417817E+02 -0.15863382847E+02 -0.28454046597E+02  0.37049738803E+02  0.41800000000E+01 0. -1.
</event>
<event>
11    1  0.1003949E-008  0.1695084E+03  0.7561462E-02  0.1078460E+00
         22   -1    0    0    0    0  0.00000000000E+00  0.00000000000E+00  0.20248634718E+03  0.20248634718E+03  0.00000000000E+00 0. -1.
         22   -1    0    0    0    0 -0.00000000000E+00 -0.00000000000E+00 -0.81259411220E+03  0.81259411220E+03  0.00000000000E+00 0. -1.
         24    2    1    2    0    0 -0.67260876178E+02 -0.81898675085E+02 -0.56510467173E+03  0.58049991821E+03  0.80034033919E+02 0.  0.
         25    2    1    2    0    0  0.65869584128E+02  0.17960990067E+03 -0.14720781729E+03  0.27187558066E+03  0.12509065256E+03 0.  0.
        -24    2    1    2    0    0  0.13912920493E+01 -0.97711225590E+02  0.10220472400E+03  0.16270496051E+03  0.80484031123E+02 0.  0.
        -13    1    3    3    0    0 -0.41403150899E+02 -0.34651271751E+02 -0.11341181911E+03  0.12560721418E+03  0.00000000000E+00 0.  1.
         14    1    3    3    0    0 -0.25857725278E+02 -0.47247403334E+02 -0.45169285261E+03  0.45489270403E+03  0.00000000000E+00 0. -1.
         11    1    5    5    0    0 -0.13314198008E+02 -0.58102856283E+02  0.10459396119E+03  0.12038731866E+03  0.00000000000E+00 0. -1.
        -12    1    5    5    0    0  0.14705490058E+02 -0.39608369307E+02 -0.23892371905E+01  0.42317641845E+02  0.00000000000E+00 0.  1.
          5    1    4    4  501    0  0.59323255307E+02  0.11379879810E+03 -0.22083752658E+02  0.13028652885E+03  0.41800000000E+01 0.  1.
         -5    1    4    4    0  501  0.65463288217E+01  0.65811102574E+02 -0.12512406463E+03  0.14158905181E+03  0.41800000000E+01 0.  1.
</event>
<event>
11    1  0.1003949E-008  0.1295753E+03  0.7561462E-02  0.1119792E+00
         22   -1    0    0    0    0  0.00000000000E+00  0.00000000000E+00  0.14784834687E+04  0.14784834687E+04  0.00000000000E+00 0.  1.
         22   -1    0    0    0    0 -0.00000000000E+00 -0.00000000000E+00 -0.63315725872E+03  0.63315725872E+03  0.00000000000E+00 0. -1.
         24    2    1    2    0    0 -0.24403882146E+02  0.22362872372E+02 -0.61884289895E+03  0.62497126724E+03  0.80789255310E+02 0.  0.
         25    2    1    2    0    0 -0.42305897629E+01 -0.41863508386E+02  0.45759105615E+03  0.47624300610E+03  0.12508946785E+03 0.  0.
        -24    2    1    2    0    0  0.28634471909E+02  0.19500636014E+02  0.10065780527E+04  0.10104264541E+04  0.81006388628E+02 0.  0.
        -13    1    3    3    0    0 -0.34401155061E+02 -0.71437505446E+01 -0.11698487279E+03  0.12214717804E+03  0.00000000000E+00 0.  1.
         14    1    3    3    0    0  0.99972729152E+01  0.29506622916E+02 -0.50185802616E+03  0.50282408920E+03  0.00000000000E+00 0. -1.
         13    1    5    5    0    0 -0.12281312432E+02  0.11016687222E+02  0.44804476745E+02  0.47745567006E+02  0.00000000000E+00 0. -1.
        -14    1    5    5    0    0  0.40915784340E+02  0.84839487925E+01  0.96177357600E+03  0.96268088705E+03  0.00000000000E+00 0.  1.
          5    1    4    4  501    0 -0.46395781627E+02  0.21078306550E+02  0.25110248153E+03  0.25625532617E+03  0.41800000000E+01 0.  1.
         -5    1    4    4    0  501  0.42165191864E+02 -0.62941814936E+02  0.20648857462E+03  0.21998767993E+03  0.41800000000E+01 0.  1.
</event>
<event>
11    1  0.1003949E-008  0.1390984E+03  0.7561462E-02  0.1108569E+00
         22   -1    0    0    0    0  0.00000000000E+00  0.00000000000E+00  0.53799583378E+03  0.53799583378E+03  0.00000000000E+00 0.  1.
         22   -1    0    0    0    0 -0.00000000000E+00 -0.00000000000E+00 -0.72019706593E+03  0.72019706593E+03  0.00000000000E+00 0.  1.
        -24    2    1    2    0    0 -0.60224851516E+02 -0.59447712961E+01 -0.65501199414E+03  0.66290657797E+03  0.82109960441E+02 0.  0.
         25    2    1    2    0    0  0.67466709417E+02  0.85246970254E+01  0.30578274598E+02  0.14562497189E+03  0.12508866544E+03 0.  0.
         24    2    1    2    0    0 -0.72418579011E+01 -0.25799257293E+01  0.44223248739E+03  0.44966134985E+03  0.81034906819E+02 0.  0.
        -11    1    5    5    0    0 -0.40846336562E+02 -0.12831739313E+02  0.30557736317E+03  0.30856215196E+03  0.00000000000E+00 0.  1.
         12    1    5    5    0    0  0.33604478661E+02  0.10251813584E+02  0.13665512422E+03  0.14109919789E+03  0.00000000000E+00 0. -1.
         11    1    3    3    0    0 -0.25800466993E+01 -0.32107736927E+02 -0.12324542451E+03  0.12738523492E+03  0.00000000000E+00 0. -1.
        -12    1    3    3    0    0 -0.57644804817E+02  0.26162965631E+02 -0.53176656962E+03  0.53552134305E+03  0.00000000000E+00 0.  1.
          5    1    4    4  501    0  0.73041260705E+02  0.50943564943E+02 -0.57608596923E+01  0.89336064827E+02  0.41800000000E+01 0.  1.
         -5    1    4    4    0  501 -0.55745512876E+01 -0.42418867917E+02  0.36339134290E+02  0.56288907064E+02  0.41800000000E+01 0.  1.
</event>
<event>
11    1  0.1003949E-008  0.1441587E+03  0.7561462E-02  0.1103001E+00
         22   -1    0    0    0    0  0.00000000000E+00  0.00000000000E+00  0.10713893451E+04  0.10713893451E+04  0.00000000000E+00 0. -1.
         22   -1    0    0    0    0 -0.00000000000E+00 -0.00000000000E+00 -0.49215509737E+03  0.49215509737E+03  0.00000000000E+00 0.  1.
        -24    2    1    2    0    0 -0.48043418371E+02  0.21667143681E+02 -0.40871652059E+03  0.41965275333E+03  0.79256570772E+02 0.  0.
         25    2    1    2    0    0  0.94790662613E+02 -0.73618146960E+02  0.24877022181E+02  0.17513362360E+03  0.12509204052E+03 0.  0.
         24    2    1    2    0    0 -0.46747244242E+02  0.51951003279E+02  0.96307374609E+03  0.96875806549E+03  0.78082888384E+02 0.  0.
        -13    1    5    5    0    0 -0.24837900314E+02 -0.17325221070E+02  0.37311378952E+03  0.37434073317E+03  0.00000000000E+00 0.  1.
         14    1    5    5    0    0 -0.21909343928E+02  0.69276224349E+02  0.58995995657E+03  0.59441733232E+03  0.00000000000E+00 0. -1.
         13    1    3    3    0    0  0.70051361285E+00 -0.18450437621E+02 -0.26743706540E+02  0.32498233910E+02  0.00000000000E+00 0. -1.
        -14    1    3    3    0    0 -0.48743931984E+02  0.40117581302E+02 -0.38197281405E+03  0.38715451942E+03  0.00000000000E+00 0.  1.
          5    1    4    4  501    0 -0.84481114456E+01  0.18012844577E+02 -0.21369112744E+02  0.29494822193E+02  0.41800000000E+01 0.  1.
         -5    1    4    4    0  501  0.10323877406E+03 -0.91630991537E+02  0.46246134925E+02  0.14563880141E+03  0.41800000000E+01 0.  1.
</event>
<event>
11    1  0.1003949E-008  0.1460634E+03  0.7561462E-02  0.1100970E+00
         22   -1    0    0    0    0  0.00000000000E+00  0.00000000000E+00  0.74297101895E+03  0.74297101895E+03  0.00000000000E+00 0. -1.
         22   -1    0    0    0    0 -0.00000000000E+00 -0.00000000000E+00 -0.11746065625E+04  0.11746065625E+04  0.00000000000E+00 0. -1.
        -24    2    1    2    0    0 -0.57859737933E+02  0.51531806008E+02 -0.11092584753E+04  0.11152533704E+04  0.85629660203E+02 0.  0.
         25    2    1    2    0    0  0.41121167038E+02  0.15715944911E+02  0.17771186138E+02  0.13384821376E+03  0.12514626629E+03 0.  0.
         24    2    1    2    0    0  0.16738570895E+02 -0.67247750919E+02  0.65985174563E+03  0.66847599734E+03  0.81568333601E+02 0.  0.
        -13    1    5    5    0    0 -0.10848666196E+02 -0.18518263172E+02  0.34559451601E+02  0.40681387933E+02  0.00000000000E+00 0.  1.
         14    1    5    5    0    0  0.27587237090E+02 -0.48729487746E+02  0.62529229403E+03  0.62779460941E+03  0.00000000000E+00 0. -1.
         13    1    3    3    0    0 -0.66910091412E+02  0.38871591729E+02 -0.10731212724E+04  0.10759076290E+04  0.00000000000E+00 0. -1.
        -14    1    3    3    0    0  0.90503534793E+01  0.12660214279E+02 -0.36137202960E+02  0.39345741338E+02  0.00000000000E+00 0.  1.
          5    1    4    4  501    0  0.64171131408E+02 -0.89504003176E+01  0.53783079402E+02  0.84309761012E+02  0.41800000000E+01 0. -1.
         -5    1    4    4    0  501 -0.23049964370E+02  0.24666345228E+02 -0.36011893264E+02  0.49538452750E+02  0.41800000000E+01 0. -1.
</event>
<event>
11    1  0.1003949E-008  0.1804368E+03  0.7561462E-02  0.1069290E+00
         22   -1    0    0    0    0  0.00000000000E+00  0.00000000000E+00  0.47706600811E+03  0.47706600811E+03  0.00000000000E+00 0.  1.
         22   -1    0    0    0    0 -0.00000000000E+00 -0.00000000000E+00 -0.68499045696E+03  0.68499045696E+03  0.00000000000E+00 0. -1.
        -24    2    1    2    0    0 -0.26333998590E+02 -0.15250283095E+02 -0.53728020243E+03  0.54426847882E+03  0.81437770705E+02 0.  0.
         25    2    1    2    0    0  0.91073008728E+02 -0.97500461409E+02 -0.65577213235E+02  0.19428945191E+03  0.12508951729E+03 0.  0.
         24    2    1    2    0    0 -0.64739010138E+02  0.11275074450E+03  0.39493296681E+03  0.42349853434E+03  0.80467946977E+02 0.  0.
        -11    1    5    5    0    0 -0.68543368335E+02  0.12327021421E+03  0.35398241596E+03  0.38104762152E+03  0.00000000000E+00 0.  1.
         12    1    5    5    0    0  0.38043581964E+01 -0.10519469708E+02  0.40950550851E+02  0.42450912820E+02  0.00000000000E+00 0. -1.
         13    1    3    3    0    0  0.11080102598E+02  0.10161100998E+02 -0.38790844089E+03  0.38819965889E+03  0.00000000000E+00 0. -1.
        -14    1    3    3    0    0 -0.37414101188E+02 -0.25411384093E+02 -0.14937176153E+03  0.15606881992E+03  0.00000000000E+00 0.  1.
          5    1    4    4  501    0  0.58195803794E+02 -0.11761514537E+03 -0.17383159811E+02  0.13243761038E+03  0.41800000000E+01 0. -1.
         -5    1    4    4    0  501  0.32877204934E+02  0.20114683959E+02 -0.48194053424E+02  0.61851841529E+02  0.41800000000E+01 0. -1.
</event>
<event>
11    1  0.1003949E-008  0.1309954E+03  0.7561462E-02  0.1118052E+00
         22   -1    0    0    0    0  0.00000000000E+00  0.00000000000E+00  0.38982005424E+03  0.38982005424E+03  0.00000000000E+00 0. -1.
         22   -1    0    0    0    0 -0.00000000000E+00 -0.00000000000E+00 -0.44081940020E+03  0.44081940020E+03  0.00000000000E+00 0. -1.
         24    2    1    2    0    0  0.13367408499E+02 -0.23833070810E+02 -0.37122482013E+03  0.38075953458E+03  0.80145200844E+02 0.  0.
         25    2    1    2    0    0 -0.85451216377E+01 -0.17132002677E+02  0.95158319632E+01  0.12690812289E+03  0.12509434831E+03 0.  0.
        -24    2    1    2    0    0 -0.48222868616E+01  0.40965073487E+02  0.31070964220E+03  0.32297179698E+03  0.77903197560E+02 0.  0.
        -13    1    3    3    0    0 -0.57296654608E+01 -0.50959822546E+02 -0.21180138366E+03  0.21792099188E+03  0.00000000000E+00 0.  1.
         14    1    3    3    0    0  0.19097073960E+02  0.27126751737E+02 -0.15942343646E+03  0.16283854269E+03  0.00000000000E+00 0. -1.
         13    1    5    5    0    0 -0.15950396415E+02  0.43787266700E+02  0.30755533448E+03  0.31106594741E+03  0.00000000000E+00 0. -1.
        -14    1    5    5    0    0  0.11128109553E+02 -0.28221932126E+01  0.31543077220E+01  0.11905849569E+02  0.00000000000E+00 0.  1.
          5    1    4    4  501    0 -0.51165630162E+02 -0.50226828351E+02  0.11572755261E+02  0.72746526105E+02  0.41800000000E+01 0. -1.
         -5    1    4    4    0  501  0.42620508524E+02  0.33094825674E+02 -0.20569232974E+01  0.54161596788E+02  0.41800000000E+01 0. -1.
</event>
<event>
11    1  0.1003949E-008  0.1469536E+03  0.7561462E-02  0.1100033E+00
         22   -1    0    0    0    0  0.00000000000E+00  0.00000000000E+00  0.33656664170E+03  0.33656664170E+03  0.00000000000E+00 0. -1.
         22   -1    0    0    0    0 -0.00000000000E+00 -0.00000000000E+00 -0.22368612546E+04  0.22368612546E+04  0.00000000000E+00 0.  1.
         24    2    1    2    0    0 -0.38561829316E+02  0.65467783585E+02 -0.19517598987E+04  0.19548871500E+04  0.80274663721E+02 0.  0.
         25    2    1    2    0    0  0.47573431554E+02 -0.80027379499E+02 -0.25475968495E+03  0.29869427731E+03  0.12509261116E+03 0.  0.
        -24    2    1    2    0    0 -0.90116022379E+01  0.14559595914E+02  0.30622497073E+03  0.31984646902E+03  0.90746020507E+02 0.  0.
        -11    1    3    3    0    0 -0.15836725142E+01  0.72523809189E+02 -0.13561734234E+04  0.13581121328E+04  0.00000000000E+00 0.  1.
         12    1    3    3    0    0 -0.36978156802E+02 -0.70560256035E+01 -0.59558647526E+03  0.59677501715E+03  0.00000000000E+00 0. -1.
         13    1    5    5    0    0  0.89777963986E+01  0.27445301633E+02  0.29225347667E+03  0.29367659089E+03  0.00000000000E+00 0. -1.
        -14    1    5    5    0    0 -0.17989398637E+02 -0.12885705719E+02  0.13971494060E+02  0.26169878132E+02  0.00000000000E+00 0.  1.
          5    1    4    4  501    0  0.26809813517E+01  0.33439063209E+02 -0.57819116401E+02  0.66976721558E+02  0.41800000000E+01 0.  1.
         -5    1    4    4    0  501  0.44892450202E+02 -0.11346644271E+03 -0.19694056854E+03  0.23171755575E+03  0.41800000000E+01 0.  1.
</event>
<event>
11    1  0.1130090E-008  0.2043651E+03  0.7561462E-02  0.1051479E+00
         22   -1    0    0    0    0  0.00000000000E+00  0.00000000000E+00  0.14725897123E+04  0.14725897123E+04  0.00000000000E+00 0.  1.
         22   -1    0    0    0    0 -0.00000000000E+00 -0.00000000000E+00 -0.13693493645E+04  0.13693493645E+04  0.00000000000E+00 0.  1.
         24    2    1    2    0    0 -0.31108460371E+02 -0.51475835427E+02 -0.57599049790E+03  0.58463631754E+03  0.80106630038E+02 0.  0.
         25    2    1    2    0    0 -0.12881553246E+03  0.26369750978E+02 -0.77294136602E+03  0.79396145321E+03  0.12509048208E+03 0.  0.
        -24    2    1    2    0    0  0.15992399283E+03  0.25106084449E+02  0.14521722117E+04  0.14633413061E+04  0.79734853144E+02 0.  0.
        -13    1    3    3    0    0  0.14916968456E+02 -0.25933415223E+02 -0.39541572017E+03  0.39654589864E+03  0.00000000000E+00 0.  1.
         14    1    3    3    0    0 -0.46025428827E+02 -0.25542420204E+02 -0.18057477773E+03  0.18809041889E+03  0.00000000000E+00 0. -1.
         13    1    5    5    0    0  0.42276594248E+02 -0.19806623387E+02  0.22945105161E+03  0.23415250978E+03  0.00000000000E+00 0. -1.
        -14    1    5    5    0    0  0.11764739859E+03  0.44912707836E+02  0.12227211601E+04  0.12291887963E+04  0.00000000000E+00 0.  1.
          5    1    4    4  501    0 -0.96558734703E+02  0.55554538588E+02 -0.70083891987E+03  0.70964960368E+03  0.41800000000E+01 0. -1.
         -5    1    4    4    0  501 -0.32256797759E+02 -0.29184787610E+02 -0.72102446153E+02  0.84311849528E+02  0.41800000000E+01 0. -1.
</event>
<event>
11    1  0.1003949E-008  0.1485866E+03  0.7561462E-02  0.1098332E+00
         22   -1    0    0    0    0  0.00000000000E+00  0.00000000000E+00  0.31919043178E+04  0.31919043178E+04  0.00000000000E+00 0.  1.
         22   -1    0    0    0    0 -0.00000000000E+00 -0.00000000000E+00 -0.13507698616E+03  0.13507698616E+03  0.00000000000E+00 0.  1.
        -24    2    1    2    0    0 -0.63795963687E+01  0.25265107768E+02 -0.74856152835E+02  0.11287686192E+03  0.80366145979E+02 0.  0.
         25    2    1    2    0    0 -0.73980469137E+02 -0.24866025089E+02  0.95234077893E+02  0.17552106929E+03  0.12508671854E+03 0.  0.
         24    2    1    2    0    0  0.80360065505E+02 -0.39908267834E+00  0.30364494065E+04  0.30385833727E+04  0.80659872570E+02 0.  0.
        -11    1    5    5    0    0  0.44819971387E+02 -0.33248341076E+00  0.26782785120E+04  0.26786535290E+04  0.00000000000E+00 0.  1.
         12    1    5    5    0    0  0.35540094119E+02 -0.66599267577E-01  0.35817089454E+03  0.35992984375E+03  0.00000000000E+00 0. -1.
         13    1    3    3    0    0  0.72051357149E+00 -0.28938515366E+02 -0.18451941394E+02  0.34328282110E+02  0.00000000000E+00 0. -1.
        -14    1    3    3    0    0 -0.71001099402E+01  0.54203623134E+02 -0.56404211441E+02  0.78548579811E+02  0.00000000000E+00 0.  1.
          5    1    4    4  501    0 -0.46066932735E+02 -0.24204582480E+01  0.12207479732E+03  0.13056703049E+03  0.41800000000E+01 0. -1.
         -5    1    4    4    0  501 -0.27913536401E+02 -0.22445566841E+02 -0.26840719428E+02  0.44954038802E+02  0.41800000000E+01 0. -1.
</event>
<event>
11    1  0.1003949E-008  0.1872440E+03  0.7561462E-02  0.1063929E+00
         22   -1    0    0    0    0  0.00000000000E+00  0.00000000000E+00  0.17681790174E+03  0.17681790174E+03  0.00000000000E+00 0. -1.
         22   -1    0    0    0    0 -0.00000000000E+00 -0.00000000000E+00 -0.24051172969E+04  0.24051172969E+04  0.00000000000E+00 0. -1.
        -24    2    1    2    0    0 -0.13197956880E+03 -0.24906269943E+02 -0.17649826689E+04  0.17718607664E+04  0.79295808633E+02 0.  0.
         25    2    1    2    0    0  0.14305640231E+03  0.14932382023E+03 -0.57791938830E+03  0.62641949129E+03  0.12509125535E+03 0.  0.
         24    2    1    2    0    0 -0.11076833507E+02 -0.12441755029E+03  0.11460266203E+03  0.18365494092E+03  0.70660767889E+02 0.  0.
        -13    1    5    5    0    0  0.19249291124E+02 -0.83517308359E+01  0.59706530866E+01  0.21815941763E+02  0.00000000000E+00 0.  1.
         14    1    5    5    0    0 -0.30326124631E+02 -0.11606581945E+03  0.10863200894E+03  0.16183899915E+03  0.00000000000E+00 0. -1.
         13    1    3    3    0    0 -0.89924902754E+02 -0.52910388641E+02 -0.12837696210E+04  0.12880024989E+04  0.00000000000E+00 0. -1.
        -14    1    3    3    0    0 -0.42054666049E+02  0.28004118698E+02 -0.48121304791E+03  0.48385826755E+03  0.00000000000E+00 0.  1.
          5    1    4    4  501    0  0.67049165936E+02  0.31491114827E+02 -0.35770813195E+03  0.36532158577E+03  0.41800000000E+01 0.  1.
         -5    1    4    4    0  501  0.76007236374E+02  0.11783270541E+03 -0.22021125635E+03  0.26109790552E+03  0.41800000000E+01 0.  1.
</event>
<event>
11    1  0.1003949E-008  0.1422763E+03  0.7561462E-02  0.1105043E+00
         22   -1    0    0    0    0  0.00000000000E+00  0.00000000000E+00  0.20474476265E+03  0.20474476265E+03  0.00000000000E+00 0.  1.
         22   -1    0    0    0    0 -0.00000000000E+00 -0.00000000000E+00 -0.22060585430E+04  0.22060585430E+04  0.00000000000E+00 0. -1.
         24    2    1    2    0    0 -0.28008541031E+02  0.58295412564E+02 -0.17040048962E+04  0.17071323969E+04  0.80532607240E+02 0.  0.
         25    2    1    2    0    0 -0.79402153849E+00 -0.10356019039E+03 -0.47448035623E+03  0.50150335540E+03  0.12509461828E+03 0.  0.
        -24    2    1    2    0    0  0.28802562569E+02  0.45264777830E+02  0.17717147208E+03  0.20216755333E+03  0.81261930678E+02 0.  0.
        -11    1    3    3    0    0 -0.71602260948E+01 -0.18251066323E+02 -0.18013455838E+03  0.18119831507E+03  0.00000000000E+00 0.  1.
         12    1    3    3    0    0 -0.20848314936E+02  0.76546478887E+02 -0.15238703378E+04  0.15259340819E+04  0.00000000000E+00 0. -1.
         11    1    5    5    0    0  0.31999253142E+02  0.58265926625E+02  0.79710564090E+02  0.10379135048E+03  0.00000000000E+00 0. -1.
        -12    1    5    5    0    0 -0.31966905726E+01 -0.13001148795E+02  0.97460907990E+02  0.98376202848E+02  0.00000000000E+00 0.  1.
          5    1    4    4  501    0 -0.47228375402E+02 -0.29817924964E+02 -0.31290518080E+03  0.31787851872E+03  0.41800000000E+01 0.  1.
         -5    1    4    4    0  501  0.46434353864E+02 -0.73742265430E+02 -0.16157517543E+03  0.18362483668E+03  0.41800000000E+01 0.  1.
</event>
<event>
11    1  0.1003949E-008  0.1333276E+03  0.7561462E-02  0.1115247E+00
         22   -1    0    0    0    0  0.00000000000E+00  0.00000000000E+00  0.16617037821E+04  0.16617037821E+04  0.00000000000E+00 0.  1.
         22   -1    0    0    0    0 -0.00000000000E+00 -0.00000000000E+00 -0.94321382571E+02  0.94321382571E+02  0.00000000000E+00 0.  1.
         24    2    1    2    0    0  0.10206883273E+02  0.32085571928E+02 -0.41512310824E+02  0.91770667729E+02  0.74598385461E+02 0.  0.
         25    2    1    2    0    0  0.34661153502E+02 -0.17531386999E+02  0.13750595336E+03  0.18990427712E+03  0.12508797771E+03 0.  0.
        -24    2    1    2    0    0 -0.44868036775E+02 -0.14554184929E+02  0.14713887570E+04  0.14743502198E+04  0.80614709983E+02 0.  0.
        -11    1    3    3    0    0  0.17504951694E+02  0.27048453672E+02 -0.61764192372E+02  0.69662455018E+02  0.00000000000E+00 0.  1.
         12    1    3    3    0    0 -0.72980684207E+01  0.50371182567E+01  0.20251881548E+02  0.22108212711E+02  0.00000000000E+00 0. -1.
         13    1    5    5    0    0 -0.66515988628E+02 -0.16842109611E+02  0.93198858553E+03  0.93451097209E+03  0.00000000000E+00 0. -1.
        -14    1    5    5    0    0  0.21647951853E+02  0.22879246822E+01  0.53940017149E+03  0.53983924776E+03  0.00000000000E+00 0.  1.
          5    1    4    4  501    0 -0.13121177097E+02  0.12521042456E+01 -0.19929048208E+02  0.24256389177E+02  0.41800000000E+01 0. -1.
         -5    1    4    4    0  501  0.47782330599E+02 -0.18783491245E+02  0.15743500157E+03  0.16564788794E+03  0.41800000000E+01 0. -1.
</event>
<event>
11    1  0.1003949E-008  0.1702638E+03  0.7561462E-02  0.1077802E+00
         22   -1    0    0    0    0  0.00000000000E+00  0.00000000000E+00  0.13847037885E+04  0.13847037885E+04  0.00000000000E+00 0. -1.
         22   -1    0    0    0    0 -0.00000000000E+00 -0.00000000000E+00 -0.17692733136E+03  0.17692733136E+03  0.00000000000E+00 0.  1.
        -24    2    1    2    0    0 -0.92761149793E+01 -0.29278759048E+02 -0.11606578147E+03  0.14477727693E+03  0.80906750325E+02 0.  0.
         25    2    1    2    0    0  0.28486254542E+02 -0.87108075175E+02  0.99694358495E+02  0.18435187331E+03  0.12508942648E+03 0.  0.
         24    2    1    2    0    0 -0.19210139563E+02  0.11638683422E+03  0.12241478801E+04  0.12325019696E+04  0.81290516649E+02 0.  0.
        -13    1    5    5    0    0 -0.45341664353E+01  0.35111629056E+02  0.11603874745E+03  0.12131931450E+03  0.00000000000E+00 0.  1.
         14    1    5    5    0    0 -0.14675973128E+02  0.81275205166E+02  0.11081091326E+04  0.11111826551E+04  0.00000000000E+00 0. -1.
         13    1    3    3    0    0 -0.16587907055E+02 -0.23757437555E+02 -0.63390141953E+00  0.28982345154E+02  0.00000000000E+00 0. -1.
        -14    1    3    3    0    0  0.73117920758E+01 -0.55213214937E+01 -0.11543188005E+03  0.11579493178E+03  0.00000000000E+00 0.  1.
          5    1    4    4  501    0  0.28128101836E+02 -0.38679630132E+02  0.12182369204E+03  0.13094192699E+03  0.41800000000E+01 0. -1.
         -5    1    4    4    0  501  0.35815270687E+00 -0.48428445043E+02 -0.22129333548E+02  0.53409946320E+02  0.41800000000E+01 0. -1.
</event>
<event>
11    1  0.1003949E-008  0.1568563E+03  0.7561462E-02  0.1090072E+00
         22   -1    0    0    0    0  0.00000000000E+00  0.00000000000E+00  0.23284624844E+03  0.23284624844E+03  0.00000000000E+00 0.  1.
         22   -1    0    0    0    0 -0.00000000000E+00 -0.00000000000E+00 -0.45555601255E+03  0.45555601255E+03  0.00000000000E+00 0.  1.
         24    2    1    2    0    0  0.19152627310E+01  0.16954936460E+02 -0.32060064365E+03  0.33100032248E+03  0.80531376929E+02 0.  0.
         25    2    1    2    0    0  0.91867681769E+02  0.10297211512E+01 -0.50725549568E+02  0.16327895371E+03  0.12508478750E+03 0.  0.
        -24    2    1    2    0    0 -0.93782944500E+02 -0.17984657611E+02  0.14861642911E+03  0.19412298480E+03  0.80487276248E+02 0.  0.
        -11    1    3    3    0    0  0.14208218870E+02 -0.15578012089E+02 -0.26207123703E+03  0.26291801236E+03  0.00000000000E+00 0.  1.
         12    1    3    3    0    0 -0.12292956139E+02  0.32532948549E+02 -0.58529406624E+02  0.68082310123E+02  0.00000000000E+00 0. -1.
         13    1    5    5    0    0 -0.75928499618E+02 -0.32421718726E+02  0.58649492196E+02  0.10127224612E+03  0.00000000000E+00 0. -1.
        -14    1    5    5    0    0 -0.17854444883E+02  0.14437061115E+02  0.89966936917E+02  0.92850738683E+02  0.00000000000E+00 0.  1.
          5    1    4    4  501    0 -0.34826276650E+01  0.39538210250E+02 -0.45076955097E+02  0.60206337258E+02  0.41800000000E+01 0.  1.
         -5    1    4    4    0  501  0.95350309434E+02 -0.38508489099E+02 -0.56485944708E+01  0.10307261645E+03  0.41800000000E+01 0.  1.
</event>
<event>
11    1  0.1003949E-008  0.2965843E+03  0.7561462E-02  0.1001647E+00
         22   -1    0    0    0    0  0.00000000000E+00  0.00000000000E+00  0.82161535970E+02  0.82161535970E+02  0.00000000000E+00 0. -1.
         22   -1    0    0    0    0 -0.00000000000E+00 -0.00000000000E+00 -0.14281381182E+04  0.14281381182E+04  0.00000000000E+00 0. -1.
         24    2    1    2    0    0 -0.40682592474E+02 -0.28767054064E+02 -0.27533420542E+03  0.29143783984E+03  0.81513637420E+02 0.  0.
         25    2    1    2    0    0  0.29575394154E+01  0.28381274903E+03 -0.58124209525E+03  0.65882539789E+03  0.12510039193E+03 0.  0.
        -24    2    1    2    0    0  0.37725053059E+02 -0.25504569497E+03 -0.48940028157E+03  0.56003641646E+03  0.87502377141E+02 0.  0.
        -13    1    3    3    0    0  0.14208419600E+02 -0.54479870947E+01 -0.16766971319E+03  0.16835882059E+03  0.00000000000E+00 0.  1.
         14    1    3    3    0    0 -0.54891012074E+02 -0.23319066970E+02 -0.10766449223E+03  0.12307901925E+03  0.00000000000E+00 0. -1.
         11    1    5    5    0    0  0.60736061344E+02 -0.11376508510E+03 -0.24154643748E+03  0.27381753997E+03  0.00000000000E+00 0. -1.
        -12    1    5    5    0    0 -0.23011008285E+02 -0.14128060987E+03 -0.24785384409E+03  0.28621887649E+03  0.00000000000E+00 0.  1.
          5    1    4    4  501    0  0.39525968277E+02  0.46045629279E+02 -0.19023949022E+03  0.19972740970E+03  0.41800000000E+01 0. -1.
         -5    1    4    4    0  501 -0.36568428862E+02  0.23776711975E+03 -0.39100260503E+03  0.45909798819E+03  0.41800000000E+01 0. -1.
</event>
<event>
11    1  0.1003949E-008  0.1507300E+03  0.7561462E-02  0.1096135E+00
         22   -1    0    0    0    0  0.00000000000E+00  0.00000000000E+00  0.11124277995E+03  0.11124277995E+03  0.00000000000E+00 0.  1.
         22   -1    0    0    0    0 -0.00000000000E+00 -0.00000000000E+00 -0.95084855969E+03  0.95084855969E+03  0.00000000000E+00 0. -1.
         24    2    1    2    0    0  0.52055266831E+02  0.63040136212E+02 -0.68821697342E+03  0.69770682587E+03  0.80426381128E+02 0.  0.
         25    2    1    2    0    0 -0.34788428931E+02 -0.96610279504E+02 -0.21021571254E+03  0.26529516295E+03  0.12508835596E+03 0.  0.
        -24    2    1    2    0    0 -0.17266837900E+02  0.33570143292E+02  0.58826906213E+02  0.99089350813E+02  0.70235292682E+02 0.  0.
        -11    1    3    3    0    0 -0.11542258374E+02  0.18440442142E+02 -0.46866920975E+02  0.51669932422E+02  0.00000000000E+00 0.  1.
         12    1    3    3    0    0  0.63597525204E+02  0.44599694070E+02 -0.64135005245E+03  0.64603689345E+03  0.00000000000E+00 0. -1.
         11    1    5    5    0    0 -0.22504741433E+02 -0.69667591788E+01 -0.42385288364E+01  0.23936671597E+02  0.00000000000E+00 0. -1.
        -12    1    5    5    0    0  0.52379035336E+01  0.40536902471E+02  0.63065435050E+02  0.75152679216E+02  0.00000000000E+00 0.  1.
          5    1    4    4  501    0 -0.46052702000E+02 -0.16151579021E+02 -0.16522420477E+03  0.17233175885E+03  0.41800000000E+01 0. -1.
         -5    1    4    4    0  501  0.11264273068E+02 -0.80458700483E+02 -0.44991507762E+02  0.92963404100E+02  0.41800000000E+01 0. -1.
</event>
<event>
11    1  0.1003949E-008  0.5437502E+03  0.7561462E-02  0.9300746E-01
         22   -1    0    0    0    0  0.00000000000E+00  0.00000000000E+00  0.19127931307E+04  0.19127931307E+04  0.00000000000E+00 0. -1.
         22   -1    0    0    0    0 -0.00000000000E+00 -0.00000000000E+00 -0.19643143682E+03  0.19643143682E+03  0.00000000000E+00 0. -1.
        -24    2    1    2    0    0 -0.14945709945E+03 -0.51899563377E+03  0.82100244140E+03  0.98703887262E+03  0.92232504195E+02 0.  0.
         25    2    1    2    0    0  0.53529601241E+02  0.52136140105E+03  0.63242865783E+03  0.83084150697E+03  0.12509385970E+03 0.  0.
         24    2    1    2    0    0  0.95927498205E+02 -0.23657672772E+01  0.26293059464E+03  0.29134418792E+03  0.80878034556E+02 0.  0.
        -11    1    5    5    0    0  0.10381309284E+03 -0.43455574525E+01  0.17862055522E+03  0.20664303729E+03  0.00000000000E+00 0.  1.
         12    1    5    5    0    0 -0.78855946313E+01  0.19797901753E+01  0.84310039418E+02  0.84701150633E+02  0.00000000000E+00 0. -1.
         11    1    3    3    0    0 -0.25642339723E+02 -0.25373891750E+03  0.39354419580E+03  0.46895415756E+03  0.00000000000E+00 0. -1.
        -12    1    3    3    0    0 -0.12381475972E+03 -0.26525671627E+03  0.42745824559E+03  0.51808471506E+03  0.00000000000E+00 0.  1.
          5    1    4    4  501    0  0.48861081951E+02  0.49519709346E+03  0.63139376731E+03  0.80391736423E+03  0.41800000000E+01 0. -1.
         -5    1    4    4    0  501  0.46685192897E+01  0.26164307584E+02  0.10348905203E+01  0.26924142737E+02  0.41800000000E+01 0. -1.
</event>
<event>
11    1  0.1003949E-008  0.1440991E+03  0.7561462E-02  0.1103066E+00
         22   -1    0    0    0    0  0.00000000000E+00  0.00000000000E+00  0.16226739001E+04  0.16226739001E+04  0.00000000000E+00 0. -1.
         22   -1    0    0    0    0 -0.00000000000E+00 -0.00000000000E+00 -0.23296496070E+03  0.23296496070E+03  0.00000000000E+00 0.  1.
         24    2    1    2    0    0 -0.33100057697E+02 -0.55840920681E+02 -0.15183584821E+03  0.18367255460E+03  0.80421764912E+02 0.  0.
         25    2    1    2    0    0  0.62000524138E+02  0.10413676870E+03  0.55614835186E+02  0.18283221792E+03  0.12508428530E+03 0.  0.
        -24    2    1    2    0    0 -0.28900466441E+02 -0.48295848019E+02  0.14859299524E+04  0.14891340882E+04  0.79779593095E+02 0.  0.
        -13    1    3    3    0    0 -0.34238431981E+02 -0.62216143889E+02 -0.15892558672E+03  0.17407027575E+03  0.00000000000E+00 0.  1.
         14    1    3    3    0    0  0.11383742839E+01  0.63752232075E+01  0.70897385149E+01  0.96022788528E+01  0.00000000000E+00 0. -1.
         11    1    5    5    0    0  0.83943275176E+01 -0.53618397347E+02  0.11087437765E+04  0.11100712406E+04  0.00000000000E+00 0. -1.
        -12    1    5    5    0    0 -0.37294793959E+02  0.53225493285E+01  0.37718617586E+03  0.37906284763E+03  0.00000000000E+00 0.  1.
          5    1    4    4  501    0  0.54597363032E+02  0.75097652017E+02 -0.25401759169E+02  0.96349629773E+02  0.41800000000E+01 0. -1.
         -5    1    4    4    0  501  0.74031611064E+01  0.29039116684E+02  0.81016594355E+02  0.86482588149E+02  0.41800000000E+01 0. -1.
</event>
<event>
11    1  0.1003949E-008  0.1406868E+03  0.7561462E-02  0.1106794E+00
         22   -1    0    0    0    0  0.00000000000E+00  0.00000000000E+00  0.17794182736E+03  0.17794182736E+03  0.00000000000E+00 0.  1.
         22   -1    0    0    0    0 -0.00000000000E+00 -0.00000000000E+00 -0.28568521233E+03  0.28568521233E+03  0.00000000000E+00 0. -1.
        -24    2    1    2    0    0  0.64278789267E+02  0.66143425015E+01 -0.12954686511E+03  0.16374438310E+03  0.76513531227E+02 0.  0.
         25    2    1    2    0    0 -0.62700097927E+02 -0.13243945540E+02 -0.82362596896E+02  0.16290422646E+03  0.12508990869E+03 0.  0.
         24    2    1    2    0    0 -0.15786913398E+01  0.66296030384E+01  0.10416607703E+03  0.13697843014E+03  0.88690894777E+02 0.  0.
        -13    1    5    5    0    0  0.17186709937E+02 -0.28344297006E+02  0.88153750638E+02  0.94179965612E+02  0.00000000000E+00 0.  1.
         14    1    5    5    0    0 -0.18765401277E+02  0.34973900044E+02  0.16012326395E+02  0.42798464528E+02  0.00000000000E+00 0. -1.
         13    1    3    3    0    0 -0.23699430454E+01 -0.16344685711E+02 -0.68593639355E+02  0.70553899545E+02  0.00000000000E+00 0. -1.
        -14    1    3    3    0    0  0.66648732313E+02  0.22959028212E+02 -0.60953225752E+02  0.93190483554E+02  0.00000000000E+00 0.  1.
          5    1    4    4  501    0 -0.42188252130E+02  0.59998815899E+01  0.26523365245E+02  0.50366740025E+02  0.41800000000E+01 0.  1.
         -5    1    4    4    0  501 -0.20511845798E+02 -0.19243827130E+02 -0.10888596214E+03  0.11253748643E+03  0.41800000000E+01 0.  1.
</event>
<event>
11    1  0.1003949E-008  0.4366708E+03  0.7561462E-02  0.9547354E-01
         22   -1    0    0    0    0  0.00000000000E+00  0.00000000000E+00  0.22406201492E+03  0.22406201492E+03  0.00000000000E+00 0.  1.
         22   -1    0    0    0    0 -0.00000000000E+00 -0.00000000000E+00 -0.19148620390E+04  0.19148620390E+04  0.00000000000E+00 0.  1.
        -24    2    1    2    0    0  0.48955525490E+02  0.42999827069E+03 -0.12031698089E+04  0.12811449814E+04  0.80123143338E+02 0.  0.
         25    2    1    2    0    0 -0.63862761758E+02 -0.38946051572E+03 -0.59413939393E+03  0.72415883080E+03  0.12508575926E+03 0.  0.
         24    2    1    2    0    0  0.14907236268E+02 -0.40537754967E+02  0.10650917873E+03  0.13362024172E+03  0.68151511898E+02 0.  0.
        -13    1    5    5    0    0 -0.73248993736E+01 -0.13797717451E+02  0.96041989791E+02  0.97304136400E+02  0.00000000000E+00 0.  1.
         14    1    5    5    0    0  0.22232135642E+02 -0.26740037516E+02  0.10467188936E+02  0.36316105322E+02  0.00000000000E+00 0. -1.
         13    1    3    3    0    0  0.29364221785E+02  0.28680711677E+03 -0.90465233502E+03  0.94948218888E+03  0.00000000000E+00 0. -1.
        -14    1    3    3    0    0  0.19591303705E+02  0.14319115391E+03 -0.29851747388E+03  0.33166279253E+03  0.00000000000E+00 0.  1.
          5    1    4    4  501    0  0.24412232090E+02 -0.10402866227E+03 -0.98326088717E+02  0.14527013379E+03  0.41800000000E+01 0.  1.
         -5    1    4    4    0  501 -0.88274993848E+02 -0.28543185345E+03 -0.49581330521E+03  0.57888869701E+03  0.41800000000E+01 0.  1.
</event>
<event>
11    1  0.1003949E-008  0.1720706E+03  0.7561462E-02  0.1076244E+00
         22   -1    0    0    0    0  0.00000000000E+00  0.00000000000E+00  0.14323908454E+04  0.14323908454E+04  0.00000000000E+00 0.  1.
         22   -1    0    0    0    0 -0.00000000000E+00 -0.00000000000E+00 -0.38712590271E+03  0.38712590271E+03  0.00000000000E+00 0.  1.
        -24    2    1    2    0    0 -0.10152673602E+03 -0.60861194788E+02 -0.34261748680E+03  0.37099274711E+03  0.78975394834E+02 0.  0.
         25    2    1    2    0    0  0.11387242252E+03  0.31681407953E+02  0.22913502869E+03  0.28656903310E+03  0.12509320182E+03 0.  0.
         24    2    1    2    0    0 -0.12345686500E+02  0.29179786836E+02  0.11587474008E+04  0.11619549679E+04  0.80249190726E+02 0.  0.
        -13    1    5    5    0    0 -0.33846305103E+02 -0.14799561108E+02  0.55323660366E+03  0.55446851941E+03  0.00000000000E+00 0.  1.
         14    1    5    5    0    0  0.21500618603E+02  0.43979347944E+02  0.60551079715E+03  0.60748644850E+03  0.00000000000E+00 0. -1.
         11    1    3    3    0    0 -0.74593323175E+00  0.14676051290E+02 -0.56531525894E+02  0.58410241549E+02  0.00000000000E+00 0. -1.
        -12    1    3    3    0    0 -0.10078080279E+03 -0.75537246078E+02 -0.28608596090E+03  0.31258250556E+03  0.00000000000E+00 0.  1.
          5    1    4    4  501    0  0.61470264155E+02  0.65266519304E+02  0.64540582676E+02  0.11054985812E+03  0.41800000000E+01 0. -1.
         -5    1    4    4    0  501  0.52402158363E+02 -0.33585111352E+02  0.16459444601E+03  0.17601917499E+03  0.41800000000E+01 0. -1.
</event>
<event>
11    1  0.1003949E-008  0.1480916E+03  0.7561462E-02  0.1098845E+00
         22   -1    0    0    0    0  0.00000000000E+00  0.00000000000E+00  0.99286499861E+03  0.99286499861E+03  0.00000000000E+00 0.  1.
         22   -1    0    0    0    0 -0.00000000000E+00 -0.00000000000E+00 -0.98689479977E+02  0.98689479977E+02  0.00000000000E+00 0.  1.
         24    2    1    2    0    0  0.14930385658E+02  0.31211671014E+02 -0.53469951423E+02  0.10212705442E+03  0.79836174228E+02 0.  0.
         25    2    1    2    0    0  0.27695497079E+02  0.46061363078E+02  0.28437917446E+03  0.31529085331E+03  0.12509243618E+03 0.  0.
        -24    2    1    2    0    0 -0.42625882736E+02 -0.77273034092E+02  0.66326629560E+03  0.67413657086E+03  0.82157468408E+02 0.  0.
        -13    1    3    3    0    0  0.53698554824E+01  0.13295261305E+02 -0.72735198942E+02  0.74135069207E+02  0.00000000000E+00 0.  1.
         14    1    3    3    0    0  0.95605301752E+01  0.17916409709E+02  0.19265247519E+02  0.27991985211E+02  0.00000000000E+00 0. -1.
         11    1    5    5    0    0 -0.31268237421E+02 -0.73241224044E+02  0.29171467781E+03  0.30238953821E+03  0.00000000000E+00 0. -1.
        -12    1    5    5    0    0 -0.11357645315E+02 -0.40318100480E+01  0.37155161779E+03  0.37174703265E+03  0.00000000000E+00 0.  1.
          5    1    4    4  501    0  0.63350343334E+02  0.82007292720E+01  0.23460618459E+03  0.24318316597E+03  0.41800000000E+01 0.  1.
         -5    1    4    4    0  501 -0.35654846256E+02  0.37860633807E+02  0.49772989864E+02  0.72107687342E+02  0.41800000000E+01 0.  1.
</event>
<event>
11    1  0.1003949E-008  0.1913618E+03  0.7561462E-02  0.1060806E+00
         22   -1    0    0    0    0  0.00000000000E+00  0.00000000000E+00  0.81685775568E+03  0.81685775568E+03  0.00000000000E+00 0.  1.
         22   -1    0    0    0    0 -0.00000000000E+00 -0.00000000000E+00 -0.56341272059E+03  0.56341272059E+03  0.00000000000E+00 0. -1.
        -24    2    1    2    0    0  0.33324453215E+02  0.14006344193E+03 -0.51886113889E+03  0.54441387482E+03  0.80257701813E+02 0.  0.
         25    2    1    2    0    0 -0.34746323296E+02 -0.18400928727E+03  0.62009432396E+03  0.65972052458E+03  0.12508986835E+03 0.  0.
         24    2    1    2    0    0  0.14218700807E+01  0.43945845342E+02  0.15221185003E+03  0.17613607687E+03  0.76955904588E+02 0.  0.
        -13    1    5    5    0    0  0.35019074651E+02  0.37582836973E+02  0.11287633491E+03  0.12401561276E+03  0.00000000000E+00 0.  1.
         14    1    5    5    0    0 -0.33597204570E+02  0.63630083688E+01  0.39335515112E+02  0.52120464115E+02  0.00000000000E+00 0. -1.
         13    1    3    3    0    0  0.45773721743E+02  0.59664532983E+02 -0.33532976665E+03  0.34365846781E+03  0.00000000000E+00 0. -1.
        -14    1    3    3    0    0 -0.12449268528E+02  0.80398908944E+02 -0.18353137224E+03  0.20075540701E+03  0.00000000000E+00 0.  1.
          5    1    4    4  501    0  0.10508262482E+01  0.14314628025E+02  0.12256511918E+02  0.19331510435E+02  0.41800000000E+01 0.  1.
         -5    1    4    4    0  501 -0.35797149544E+02 -0.19832391529E+03  0.60783781204E+03  0.64038901414E+03  0.41800000000E+01 0.  1.
</event>
<event>
11    1  0.1003949E-008  0.1623836E+03  0.7561462E-02  0.1084857E+00
         22   -1    0    0    0    0  0.00000000000E+00  0.00000000000E+00  0.17430569143E+04  0.17430569143E+04  0.00000000000E+00 0. -1.
         22   -1    0    0    0    0 -0.00000000000E+00 -0.00000000000E+00 -0.93967128367E+02  0.93967128367E+02  0.00000000000E+00 0.  1.
        -24    2    1    2    0    0  0.12588673237E+02 -0.21406257892E+02 -0.41542434489E+02  0.93626464982E+02  0.80146356817E+02 0.  0.
         25    2    1    2    0    0 -0.18033001076E+02  0.12222913558E+03  0.30795014467E+03  0.35461022251E+03  0.12509983051E+03 0.  0.
         24    2    1    2    0    0  0.54443278388E+01 -0.10082287769E+03  0.13826820757E+04  0.13887873552E+04  0.82010376875E+02 0.  0.
        -13    1    5    5    0    0  0.28321065754E+02 -0.34500237957E+02  0.25138668667E+03  0.25531865467E+03  0.00000000000E+00 0.  1.
         14    1    5    5    0    0 -0.22876737915E+02 -0.66322639730E+02  0.11312953891E+04  0.11334687005E+04  0.00000000000E+00 0. -1.
         11    1    3    3    0    0 -0.29303725681E+02  0.20222954563E+00  0.21114126769E+01  0.29380389703E+02  0.00000000000E+00 0. -1.
        -12    1    3    3    0    0  0.41892398918E+02 -0.21608487438E+02 -0.43653847166E+02  0.64246075280E+02  0.00000000000E+00 0.  1.
          5    1    4    4  501    0  0.53548174435E+02  0.50116163327E+02  0.14463457697E+03  0.16222105310E+03  0.41800000000E+01 0.  1.
         -5    1    4    4    0  501 -0.71581175511E+02  0.72112972253E+02  0.16331556770E+03  0.19238916941E+03  0.41800000000E+01 0.  1.
</event>
<event>
11    1  0.1003949E-008  0.2530224E+03  0.7561462E-02  0.1022301E+00
         22   -1    0    0    0    0  0.00000000000E+00  0.00000000000E+00  0.15223590175E+04  0.15223590175E+04  0.00000000000E+00 0.  1.
         22   -1    0    0    0    0 -0.00000000000E+00 -0.00000000000E+00 -0.31205917678E+03  0.31205917678E+03  0.00000000000E+00 0.  1.
         24    2    1    2    0    0 -0.95180703607E+02  0.35096533545E+02 -0.21326061154E+03  0.25013903533E+03  0.82451898440E+02 0.  0.
         25    2    1    2    0    0 -0.12989615433E+03 -0.88912155182E+02  0.76541986041E+02  0.21513809671E+03  0.12508933920E+03 0.  0.
        -24    2    1    2    0    0  0.22507685794E+03  0.53815621637E+02  0.13470184662E+04  0.13691410622E+04  0.80825657094E+02 0.  0.
        -11    1    3    3    0    0 -0.98366653598E+02  0.48343585017E+02 -0.20877172146E+03  0.23579383459E+03  0.00000000000E+00 0.  1.
         12    1    3    3    0    0  0.31859499905E+01 -0.13247051472E+02 -0.44888900828E+01  0.14345200738E+02  0.00000000000E+00 0. -1.
         11    1    5    5    0    0  0.13220845252E+03  0.38577631900E+02  0.10056937114E+04  0.10150798736E+04  0.00000000000E+00 0. -1.
        -12    1    5    5    0    0  0.92868405417E+02  0.15237989737E+02  0.34132475478E+03  0.35406118861E+03  0.00000000000E+00 0.  1.
          5    1    4    4  501    0  0.17464319312E+02 -0.13767563378E+02  0.39582374525E+02  0.45593694997E+02  0.41800000000E+01 0.  1.
         -5    1    4    4    0  501 -0.14736047365E+03 -0.75144591804E+02  0.36959611516E+02  0.16954440172E+03  0.41800000000E+01 0.  1.
</event>
<event>
11    1  0.1003949E-008  0.1395220E+03  0.7561462E-02  0.1108093E+00
         22   -1    0    0    0    0  0.00000000000E+00  0.00000000000E+00  0.24157583081E+03  0.24157583081E+03  0.00000000000E+00 0. -1.
         22   -1    0    0    0    0 -0.00000000000E+00 -0.00000000000E+00 -0.75391422382E+03  0.75391422382E+03  0.00000000000E+00 0. -1.
         24    2    1    2    0    0 -0.28815397938E+02 -0.53531048959E+02 -0.67104226863E+03  0.67876298990E+03  0.82009571409E+02 0.  0.
         25    2    1    2    0    0  0.67748835219E+02  0.60686442991E+02  0.27008085347E+02  0.15699981682E+03  0.12508699681E+03 0.  0.
        -24    2    1    2    0    0 -0.38933437281E+02 -0.71553940317E+01  0.13169579028E+03  0.15972724792E+03  0.81252694408E+02 0.  0.
        -11    1    3    3    0    0 -0.23650136481E+02 -0.22596679393E+02 -0.74112398951E+02  0.81009792947E+02  0.00000000000E+00 0.  1.
         12    1    3    3    0    0 -0.51652614567E+01 -0.30934369567E+02 -0.59692986968E+03  0.59775319695E+03  0.00000000000E+00 0. -1.
         13    1    5    5    0    0 -0.61011404774E+02 -0.13456884395E+02  0.11649576521E+03  0.13219206694E+03  0.00000000000E+00 0. -1.
        -14    1    5    5    0    0  0.22077967493E+02  0.63014903636E+01  0.15200025067E+02  0.27535180978E+02  0.00000000000E+00 0.  1.
          5    1    4    4  501    0  0.84901165588E+02  0.34108394324E+02 -0.25928249135E+02  0.95191055172E+02  0.41800000000E+01 0. -1.
         -5    1    4    4    0  501 -0.17152330369E+02  0.26578048667E+02  0.52936334482E+02  0.61808761648E+02  0.41800000000E+01 0. -1.
</event>
<event>
11    1  0.1003949E-008  0.1585225E+03  0.7561462E-02  0.1088475E+00
         22   -1    0    0    0    0  0.00000000000E+00  0.00000000000E+00  0.11098768551E+04  0.11098768551E+04  0.00000000000E+00 0. -1.
         22   -1    0    0    0    0 -0.00000000000E+00 -0.00000000000E+00 -0.23956206935E+03  0.23956206935E+03  0.00000000000E+00 0.  1.
        -24    2    1    2    0    0 -0.10083957098E+02 -0.86586414384E+01 -0.20117462668E+03  0.21770615686E+03  0.82146710542E+02 0.  0.
         25    2    1    2    0    0 -0.88027433399E+02 -0.60765907678E+01  0.20804795604E+03  0.25830517583E+03  0.12510738532E+03 0.  0.
         24    2    1    2    0    0  0.98111390497E+02  0.14735232206E+02  0.86344145638E+03  0.87342759175E+03  0.86611993485E+02 0.  0.
        -11    1    5    5    0    0  0.40476656411E+02  0.34229547604E+02  0.19039583257E+03  0.19763753364E+03  0.00000000000E+00 0.  1.
         12    1    5    5    0    0  0.57634734086E+02 -0.19494315397E+02  0.67304562381E+03  0.67579005811E+03  0.00000000000E+00 0. -1.
         13    1    3    3    0    0  0.21638509036E+02  0.21359762168E+02 -0.37355960307E+02  0.48165675368E+02  0.00000000000E+00 0. -1.
        -14    1    3    3    0    0 -0.31722466133E+02 -0.30018403607E+02 -0.16381866637E+03  0.16954048149E+03  0.00000000000E+00 0.  1.
          5    1    4    4  501    0 -0.60110374421E+02 -0.19379240644E+02  0.21683635514E+03  0.22588556703E+03  0.41800000000E+01 0. -1.
         -5    1    4    4    0  501 -0.27917058978E+02  0.13302649876E+02 -0.87883991062E+01  0.32419608797E+02  0.41800000000E+01 0. -1.
</event>
<event>
11    1  0.1003949E-008  0.1505207E+03  0.7561462E-02  0.1096348E+00
         22   -1    0    0    0    0  0.00000000000E+00  0.00000000000E+00  0.27432018955E+03  0.27432018955E+03  0.00000000000E+00 0.  1.
         22   -1    0    0    0    0 -0.00000000000E+00 -0.00000000000E+00 -0.18443581631E+04  0.18443581631E+04  0.00000000000E+00 0. -1.
        -24    2    1    2    0    0  0.24095659314E+02 -0.31737692710E+02 -0.15477961644E+04  0.15502915260E+04  0.78377083133E+02 0.  0.
         25    2    1    2    0    0 -0.93331099612E+02  0.75704801336E+02 -0.25517526739E+03  0.30855109205E+03  0.12508976065E+03 0.  0.
         24    2    1    2    0    0  0.69235440298E+02 -0.43967108626E+02  0.23293345821E+03  0.25983573461E+03  0.80808169091E+02 0.  0.
        -13    1    5    5    0    0  0.48842990789E+02  0.21059013780E+01  0.18096644172E+03  0.18745379591E+03  0.00000000000E+00 0.  1.
         14    1    5    5    0    0  0.20392449509E+02 -0.46073010004E+02  0.51967016489E+02  0.72381938704E+02  0.00000000000E+00 0. -1.
         11    1    3    3    0    0  0.27734204935E+02 -0.55383886416E+02 -0.12510979209E+04  0.12526302601E+04  0.00000000000E+00 0. -1.
        -12    1    3    3    0    0 -0.36385456215E+01  0.23646193706E+02 -0.29669824349E+03  0.29766126584E+03  0.00000000000E+00 0.  1.
          5    1    4    4  501    0 -0.65632956664E+02  0.47551585604E+02 -0.41376878674E+02  0.91095317019E+02  0.41800000000E+01 0.  1.
         -5    1    4    4    0  501 -0.27698142947E+02  0.28153215733E+02 -0.21379838872E+03  0.21745577504E+03  0.41800000000E+01 0.  1.
</event>
<event>
11    1  0.1003949E-008  0.2167452E+03  0.7561462E-02  0.1043276E+00
         22   -1    0    0    0    0  0.00000000000E+00  0.00000000000E+00  0.10076768126E+04  0.10076768126E+04  0.00000000000E+00 0. -1.
         22   -1    0    0    0    0 -0.00000000000E+00 -0.00000000000E+00 -0.27486943908E+04  0.27486943908E+04  0.00000000000E+00 0. -1.
         24    2    1    2    0    0  0.93285756175E+01  0.12581067965E+03 -0.26929668115E+04  0.26970128476E+04  0.76763941437E+02 0.  0.
         25    2    1    2    0    0  0.60154094868E+01 -0.26710643622E+03  0.52416952381E+03  0.60148467807E+03  0.12509234527E+03 0.  0.
        -24    2    1    2    0    0 -0.15343985104E+02  0.14129575657E+03  0.42777970944E+03  0.45787367775E+03  0.80329921373E+02 0.  0.
        -13    1    3    3    0    0 -0.12715794867E+02 -0.57849689702E+01 -0.21082972207E+03  0.21129204674E+03  0.00000000000E+00 0.  1.
         14    1    3    3    0    0  0.22044370484E+02  0.13159564862E+03 -0.24821370894E+04  0.24857208008E+04  0.00000000000E+00 0. -1.
         13    1    5    5    0    0 -0.12672763033E+02  0.14675478295E+03  0.34836953888E+03  0.37823127959E+03  0.00000000000E+00 0. -1.
        -14    1    5    5    0    0 -0.26712220716E+01 -0.54590263856E+01  0.79410170558E+02  0.79642398159E+02  0.00000000000E+00 0.  1.
          5    1    4    4  501    0  0.46280695602E+02 -0.10326406755E+03  0.30164413512E+03  0.32219873850E+03  0.41800000000E+01 0. -1.
         -5    1    4    4    0  501 -0.40265286115E+02 -0.16384236867E+03  0.22252538868E+03  0.27928593958E+03  0.41800000000E+01 0. -1.
</event>
<event>
11    1  0.1003949E-008  0.1494223E+03  0.7561462E-02  0.1097471E+00
         22   -1    0    0    0    0  0.00000000000E+00  0.00000000000E+00  0.10321042834E+04  0.10321042834E+04  0.00000000000E+00 0. -1.
         22   -1    0    0    0    0 -0.00000000000E+00 -0.00000000000E+00 -0.17375837759E+04  0.17375837759E+04  0.00000000000E+00 0.  1.
        -24    2    1    2    0    0 -0.17555082582E+02 -0.13742687169E+02 -0.14432036093E+04  0.14457012070E+04  0.81965111830E+02 0.  0.
         25    2    1    2    0    0 -0.97532447014E+01  0.90688431363E+02 -0.26919636430E+03  0.31053806162E+03  0.12509071828E+03 0.  0.
         24    2    1    2    0    0  0.27308327283E+02 -0.76945744194E+02  0.10069204812E+04  0.10134487906E+04  0.80766351750E+02 0.  0.
        -11    1    5    5    0    0 -0.47966791334E+01 -0.30228069077E+02  0.95880189714E+02  0.10064668435E+03  0.00000000000E+00 0.  1.
         12    1    5    5    0    0  0.32105006417E+02 -0.46717675117E+02  0.91104029146E+03  0.91280210630E+03  0.00000000000E+00 0. -1.
         13    1    3    3    0    0  0.39820211346E+01 -0.60801801009E+01 -0.10250327310E+02  0.12565599562E+02  0.00000000000E+00 0. -1.
        -14    1    3    3    0    0 -0.21537103717E+02 -0.76625070686E+01 -0.14329532820E+04  0.14331356074E+04  0.00000000000E+00 0.  1.
          5    1    4    4  501    0 -0.62722663290E+02  0.19320639912E+02 -0.11918302917E+03  0.13612305631E+03  0.41800000000E+01 0.  1.
         -5    1    4    4    0  501  0.52969418589E+02  0.71367791451E+02 -0.15001333512E+03  0.17441500531E+03  0.41800000000E+01 0.  1.
</event>
<event>
11    1  0.1003949E-008  0.2506226E+03  0.7561462E-02  0.1023568E+00
         22   -1    0    0    0    0  0.00000000000E+00  0.00000000000E+00  0.11654863997E+04  0.11654863997E+04  0.00000000000E+00 0. -1.
         22   -1    0    0    0    0 -0.00000000000E+00 -0.00000000000E+00 -0.20858555722E+03  0.20858555722E+03  0.00000000000E+00 0. -1.
        -24    2    1    2    0    0  0.79549408049E+02  0.18973647252E+03 -0.24580521828E+02  0.22286638378E+03  0.82080360872E+02 0.  0.
         25    2    1    2    0    0 -0.12349642413E+03 -0.21198285938E+03  0.15053040330E+03  0.31384017453E+03  0.12509257928E+03 0.  0.
         24    2    1    2    0    0  0.43947016078E+02  0.22246386860E+02  0.83095096097E+03  0.83736539856E+03  0.90967407470E+02 0.  0.
        -13    1    5    5    0    0  0.27620239049E+02 -0.34607524534E+02  0.36330114988E+03  0.36598945867E+03  0.00000000000E+00 0.  1.
         14    1    5    5    0    0  0.16326777029E+02  0.56853911394E+02  0.46764981109E+03  0.47137593989E+03  0.00000000000E+00 0. -1.
         11    1    3    3    0    0  0.12130556119E+02  0.82945766100E+02 -0.44669711625E+02  0.94987018283E+02  0.00000000000E+00 0. -1.
        -12    1    3    3    0    0  0.67418851931E+02  0.10679070642E+03  0.20089189797E+02  0.12787936550E+03  0.00000000000E+00 0.  1.
          5    1    4    4  501    0 -0.51395633463E+02 -0.10928451282E+03  0.40365268819E+01  0.12090650037E+03  0.41800000000E+01 0.  1.
         -5    1    4    4    0  501 -0.72100790664E+02 -0.10269834656E+03  0.14649387642E+03  0.19293367417E+03  0.41800000000E+01 0.  1.
</event>
<event>
11    1  0.1003949E-008  0.1694418E+03  0.7561462E-02  0.1078518E+00
         22   -1    0    0    0    0  0.00000000000E+00  0.00000000000E+00  0.25890291938E+03  0.25890291938E+03  0.00000000000E+00 0.  1.
         22   -1    0    0    0    0 -0.00000000000E+00 -0.00000000000E+00 -0.94195023445E+03  0.94195023445E+03  0.00000000000E+00 0.  1.
        -24    2    1    2    0    0  0.92612870280E+02 -0.62536187801E+02 -0.67493351195E+03  0.68887836763E+03  0.80809908456E+02 0.  0.
         25    2    1    2    0    0 -0.15042124782E+03 -0.15741138920E+01 -0.20425896218E+03  0.28284061278E+03  0.12509220191E+03 0.  0.
         24    2    1    2    0    0  0.57808377542E+02  0.64110301693E+02  0.19614515905E+03  0.22913417342E+03  0.81102445801E+02 0.  0.
        -13    1    5    5    0    0  0.68719409222E+02  0.67619051403E+02  0.19510588810E+03  0.21762582771E+03  0.00000000000E+00 0.  1.
         14    1    5    5    0    0 -0.10911031680E+02 -0.35087497095E+01  0.10392709470E+01  0.11508345709E+02  0.00000000000E+00 0. -1.
         13    1    3    3    0    0  0.46396222830E+02  0.81715643716E+01 -0.15098150523E+03  0.15816067424E+03  0.00000000000E+00 0. -1.
        -14    1    3    3    0    0  0.46216647451E+02 -0.70707752173E+02 -0.52395200672E+03  0.53071769338E+03  0.00000000000E+00 0.  1.
          5    1    4    4  501    0 -0.13461017385E+03  0.37908540930E+02 -0.19348183721E+03  0.23876693680E+03  0.41800000000E+01 0. -1.
         -5    1    4    4    0  501 -0.15811073975E+02 -0.39482654822E+02 -0.10777124965E+02  0.44073675982E+02  0.41800000000E+01 0. -1.
</event>
<event>
11    1  0.1003949E-008  0.1391891E+03  0.7561462E-02  0.1108467E+00
         22   -1    0    0    0    0  0.00000000000E+00  0.00000000000E+00  0.10551423058E+04  0.10551423058E+04  0.00000000000E+00 0.  1.
         22   -1    0    0    0    0 -0.00000000000E+00 -0.00000000000E+00 -0.10334919310E+03  0.10334919310E+03  0.00000000000E+00 0. -1.
         24    2    1    2    0    0  0.54162730461E+02 -0.45035222085E+02 -0.20324788935E+02  0.10860640574E+03  0.80127908520E+02 0.  0.
         25    2    1    2    0    0 -0.26812919377E+02  0.24881622399E+02  0.78398100423E+02  0.15208819022E+03  0.12508608106E+03 0.  0.
        -24    2    1    2    0    0 -0.27349811084E+02  0.20153599686E+02  0.89371980124E+03  0.89779690296E+03  0.78422038370E+02 0.  0.
        -11    1    3    3    0    0  0.69655064057E+01 -0.12080611429E+02  0.29400144686E+02  0.32539636746E+02  0.00000000000E+00 0.  1.
         12    1    3    3    0    0  0.47197224055E+02 -0.32954610656E+02 -0.49724933621E+02  0.76066768997E+02  0.00000000000E+00 0. -1.
         13    1    5    5    0    0 -0.21955704787E+02 -0.25170584113E+02  0.21872024463E+03  0.22125586250E+03  0.00000000000E+00 0. -1.
        -14    1    5    5    0    0 -0.53941062968E+01  0.45324183798E+02  0.67499955661E+03  0.67654104047E+03  0.00000000000E+00 0.  1.
          5    1    4    4  501    0  0.27949404876E+02  0.59084092240E+02  0.42822648858E+02  0.78251842432E+02  0.41800000000E+01 0.  1.
         -5    1    4    4    0  501 -0.54762324253E+02 -0.34202469841E+02  0.35575451565E+02  0.73836347789E+02  0.41800000000E+01 0.  1.
</event>
<event>
11    1  0.1003949E-008  0.3061001E+03  0.7561462E-02  0.9976421E-01
         22   -1    0    0    0    0  0.00000000000E+00  0.00000000000E+00  0.15269820093E+04  0.15269820093E+04  0.00000000000E+00 0.  1.
         22   -1    0    0    0    0 -0.00000000000E+00 -0.00000000000E+00 -0.76403095009E+03  0.76403095009E+03  0.00000000000E+00 0.  1.
         24    2    1    2    0    0  0.26011062797E+02  0.38650476890E+02 -0.59219989822E+03  0.60014387473E+03  0.85448909719E+02 0.  0.
         25    2    1    2    0    0 -0.11186586592E+03 -0.30015291191E+03  0.41634803293E+02  0.34639177890E+03  0.12509222660E+03 0.  0.
        -24    2    1    2    0    0  0.85854803120E+02  0.26150243502E+03  0.13135161541E+04  0.13444773057E+04  0.80870067308E+02 0.  0.
        -13    1    3    3    0    0 -0.93671034051E+01  0.15238607739E+02 -0.47774484838E+03  0.47807959373E+03  0.00000000000E+00 0.  1.
         14    1    3    3    0    0  0.35378166202E+02  0.23411869151E+02 -0.11445504985E+03  0.12206428100E+03  0.00000000000E+00 0. -1.
         13    1    5    5    0    0  0.47615887847E+02  0.19941898997E+03  0.80206392051E+03  0.82785369415E+03  0.00000000000E+00 0. -1.
        -14    1    5    5    0    0  0.38238915273E+02  0.62083445052E+02  0.51145223361E+03  0.51662361159E+03  0.00000000000E+00 0.  1.
          5    1    4    4  501    0 -0.13376936628E+03 -0.28004462003E+03  0.51835218642E+02  0.31468014690E+03  0.41800000000E+01 0. -1.
         -5    1    4    4    0  501  0.21903500361E+02 -0.20108291881E+02 -0.10200415349E+02  0.31711631994E+02  0.41800000000E+01 0. -1.
</event>
<event>
11    1  0.1003949E-008  0.1324959E+03  0.7561462E-02  0.1116240E+00
         22   -1    0    0    0    0  0.00000000000E+00  0.00000000000E+00  0.80317715008E+03  0.80317715008E+03  0.00000000000E+00 0. -1.
         22   -1    0    0    0    0 -0.00000000000E+00 -0.00000000000E+00 -0.12298767178E+03  0.12298767178E+03  0.00000000000E+00 0.  1.
         24    2    1    2    0    0  0.26341185423E+02 -0.33579839949E+02 -0.54492814744E+02  0.10973598895E+03  0.85153136830E+02 0.  0.
         25    2    1    2    0    0 -0.38718028512E+01  0.55505761349E+02  0.85364063933E+02  0.16134054581E+03  0.12509143820E+03 0.  0.
        -24    2    1    2    0    0 -0.22469382572E+02 -0.21925921401E+02  0.64931822911E+03  0.65508828709E+03  0.80875719766E+02 0.  0.
        -11    1    3    3    0    0  0.46168195208E+02 -0.40137353544E+02 -0.11933414884E+02  0.62329092638E+02  0.00000000000E+00 0.  1.
         12    1    3    3    0    0 -0.19827009786E+02  0.65575135954E+01 -0.42559399860E+02  0.47406896313E+02  0.00000000000E+00 0. -1.
         13    1    5    5    0    0  0.16112585875E+01 -0.45804287976E+02  0.49342771161E+03  0.49555174860E+03  0.00000000000E+00 0. -1.
        -14    1    5    5    0    0 -0.24080641159E+02  0.23878366575E+02  0.15589051750E+03  0.15953653849E+03  0.00000000000E+00 0.  1.
          5    1    4    4  501    0  0.26180044415E+02  0.29943283318E+02  0.10834543120E+03  0.11549112435E+03  0.41800000000E+01 0. -1.
         -5    1    4    4    0  501 -0.30051847266E+02  0.25562478032E+02 -0.22981367267E+02  0.45849421465E+02  0.41800000000E+01 0. -1.
</event>
<event>
11    1  0.1003949E-008  0.1507849E+03  0.7561462E-02  0.1096079E+00
         22   -1    0    0    0    0  0.00000000000E+00  0.00000000000E+00  0.17719723333E+03  0.17719723333E+03  0.00000000000E+00 0.  1.
         22   -1    0    0    0    0 -0.00000000000E+00 -0.00000000000E+00 -0.48047544371E+03  0.48047544371E+03  0.00000000000E+00 0.  1.
         24    2    1    2    0    0 -0.25512085542E+01  0.29603450171E+02 -0.37131667228E+03  0.38046136029E+03  0.77407380976E+02 0.  0.
         25    2    1    2    0    0 -0.68076307700E+02  0.31187700820E+02  0.34104626018E+02  0.14972256153E+03  0.12508662424E+03 0.  0.
        -24    2    1    2    0    0  0.70627516254E+02 -0.60791150991E+02  0.33933835882E+02  0.12748875521E+03  0.80112841651E+02 0.  0.
        -13    1    3    3    0    0  0.15701496558E+02  0.22650390589E+02 -0.35170229023E+03  0.35278049569E+03  0.00000000000E+00 0.  1.
         14    1    3    3    0    0 -0.18252705112E+02  0.69530595816E+01 -0.19614382055E+02  0.27680864597E+02  0.00000000000E+00 0. -1.
         11    1    5    5    0    0 -0.17786641902E+01 -0.49579709950E+02  0.12941408601E+02  0.51271740185E+02  0.00000000000E+00 0. -1.
        -12    1    5    5    0    0  0.72406180444E+02 -0.11211441040E+02  0.20992427281E+02  0.76217015029E+02  0.00000000000E+00 0.  1.
          5    1    4    4  501    0 -0.10379640233E+03  0.15562881391E+02  0.15002620563E+02  0.10610583131E+03  0.41800000000E+01 0. -1.
         -5    1    4    4    0  501  0.35720094634E+02  0.15624819429E+02  0.19102005454E+02  0.43616730222E+02  0.41800000000E+01 0. -1.
</event>
<event>
11    1  0.1003949E-008  0.1716313E+03  0.7561462E-02  0.1076621E+00
         22   -1    0    0    0    0  0.00000000000E+00  0.00000000000E+00  0.14197321623E+04  0.14197321623E+04  0.00000000000E+00 0. -1.
         22   -1    0    0    0    0 -0.00000000000E+00 -0.00000000000E+00 -0.16424380614E+04  0.16424380614E+04  0.00000000000E+00 0.  1.
        -24    2    1    2    0    0  0.48290048582E+02 -0.10729792151E+03 -0.16247750852E+04  0.16311761783E+04  0.83647321920E+02 0.  0.
         25    2    1    2    0    0 -0.43857524645E+02  0.88773043787E+02  0.49383001723E+03  0.51895317686E+03  0.12506069759E+03 0.  0.
         24    2    1    2    0    0 -0.44325239367E+01  0.18524877720E+02  0.90823916880E+03  0.91204086853E+03  0.80977402821E+02 0.  0.
        -11    1    5    5    0    0  0.12726456403E+02 -0.14581686424E+02  0.61334896221E+02  0.64316077042E+02  0.00000000000E+00 0.  1.
         12    1    5    5    0    0 -0.17158980340E+02  0.33106564144E+02  0.84690427258E+03  0.84772479149E+03  0.00000000000E+00 0. -1.
         11    1    3    3    0    0  0.15334494293E+02 -0.66845926495E+02 -0.44556015310E+03  0.45080746959E+03  0.00000000000E+00 0. -1.
        -12    1    3    3    0    0  0.32955554289E+02 -0.40451995011E+02 -0.11792149321E+04  0.11803687087E+04  0.00000000000E+00 0.  1.
          5    1    4    4  501    0  0.43102777202E+02  0.16495756905E+02  0.14718814792E+03  0.15431066939E+03  0.41800000000E+01 0. -1.
         -5    1    4    4    0  501 -0.86960301847E+02  0.72277286882E+02  0.34664186930E+03  0.36464250747E+03  0.41800000000E+01 0. -1.
</event>
<event>
11    1  0.1003949E-008  0.1504801E+03  0.7561462E-02  0.1096389E+00
         22   -1    0    0    0    0  0.00000000000E+00  0.00000000000E+00  0.65046779004E+03  0.65046779004E+03  0.00000000000E+00 0.  1.
         22   -1    0    0    0    0 -0.00000000000E+00 -0.00000000000E+00 -0.82032339541E+03  0.82032339541E+03  0.00000000000E+00 0.  1.
         24    2    1    2    0    0  0.45207260263E+02 -0.15289437715E+01 -0.77981479401E+03  0.78533844801E+03  0.81236265943E+02 0.  0.
         25    2    1    2    0    0  0.29197653830E+02  0.53352712785E+02  0.12970522569E+03  0.19018507206E+03  0.12509157091E+03 0.  0.
        -24    2    1    2    0    0 -0.74404914092E+02 -0.51823769013E+02  0.48025396296E+03  0.49526766539E+03  0.80152337232E+02 0.  0.
        -13    1    3    3    0    0  0.55635557395E+02 -0.26087955613E+02 -0.41200074028E+03  0.41655792715E+03  0.00000000000E+00 0.  1.
         14    1    3    3    0    0 -0.10428297132E+02  0.24559011842E+02 -0.36781405373E+03  0.36878052086E+03  0.00000000000E+00 0. -1.
         11    1    5    5    0    0 -0.77194325167E+02 -0.17226195399E+02  0.24456255072E+03  0.25703413560E+03  0.00000000000E+00 0. -1.
        -12    1    5    5    0    0  0.27894110749E+01 -0.34597573614E+02  0.23569141224E+03  0.23823352979E+03  0.00000000000E+00 0.  1.
          5    1    4    4  501    0 -0.12657064400E+01  0.56186395417E+02 -0.51042218294E+00  0.56358193490E+02  0.41800000000E+01 0. -1.
         -5    1    4    4    0  501  0.30463360269E+02 -0.28336826316E+01  0.13021564787E+03  0.13382687857E+03  0.41800000000E+01 0. -1.
</event>
<event>
11    1  0.1003949E-008  0.1401805E+03  0.7561462E-02  0.1107357E+00
         22   -1    0    0    0    0  0.00000000000E+00  0.00000000000E+00  0.33697133333E+03  0.33697133333E+03  0.00000000000E+00 0.  1.
         22   -1    0    0    0    0 -0.00000000000E+00 -0.00000000000E+00 -0.39217495124E+03  0.39217495124E+03  0.00000000000E+00 0.  1.
         24    2    1    2    0    0 -0.87851747959E+01  0.71210229056E+02 -0.20736948938E+03  0.23284187547E+03  0.77879123202E+02 0.  0.
         25    2    1    2    0    0  0.71162671837E+02 -0.73708909748E+02 -0.12130814234E+03  0.20213923029E+03  0.12508986284E+03 0.  0.
        -24    2    1    2    0    0 -0.62377497041E+02  0.24986806921E+01  0.27347401381E+03  0.29416517880E+03  0.88588490502E+02 0.  0.
        -11    1    3    3    0    0 -0.38746442239E+02  0.52902715921E+02 -0.97513544512E+02  0.11751117182E+03  0.00000000000E+00 0.  1.
         12    1    3    3    0    0  0.29961267443E+02  0.18307513135E+02 -0.10985594486E+03  0.11533070366E+03  0.00000000000E+00 0. -1.
         11    1    5    5    0    0 -0.67046044030E+02 -0.27862898189E+02  0.14619073919E+03  0.16322758756E+03  0.00000000000E+00 0. -1.
        -12    1    5    5    0    0  0.46685469891E+01  0.30361578881E+02  0.12728327462E+03  0.13093759124E+03  0.00000000000E+00 0.  1.
          5    1    4    4  501    0  0.10626707539E+03 -0.57254872671E+02 -0.77584865655E+02  0.14355380711E+03  0.41800000000E+01 0. -1.
         -5    1    4    4    0  501 -0.35104403554E+02 -0.16454037077E+02 -0.43723276689E+02  0.58585423182E+02  0.41800000000E+01 0. -1.
</event>
<event>
11    1  0.1003949E-008  0.1297115E+03  0.7561462E-02  0.1119624E+00
         22   -1    0    0    0    0  0.00000000000E+00  0.00000000000E+00  0.14202621841E+04  0.14202621841E+04  0.00000000000E+00 0. -1.
         22   -1    0    0    0    0 -0.00000000000E+00 -0.00000000000E+00 -0.46498598239E+03  0.46498598239E+03  0.00000000000E+00 0.  1.
         24    2    1    2    0    0  0.13816122586E+02 -0.98605323911E+01 -0.43431707711E+03  0.44243646572E+03  0.82647367693E+02 0.  0.
         25    2    1    2    0    0  0.18204740841E+01  0.40243776895E+02  0.14693989679E+03  0.19713247452E+03  0.12508798318E+03 0.  0.
        -24    2    1    2    0    0 -0.15636596670E+02 -0.30383244504E+02  0.12426533821E+04  0.12456792263E+04  0.79760028454E+02 0.  0.
        -11    1    3    3    0    0 -0.28633009290E+02 -0.12040107959E+02 -0.84161280827E+02  0.89710281524E+02  0.00000000000E+00 0.  1.
         12    1    3    3    0    0  0.42449131875E+02  0.21795755679E+01 -0.35015579629E+03  0.35272618420E+03  0.00000000000E+00 0. -1.
         11    1    5    5    0    0  0.28190170833E+01 -0.48774252674E+02  0.10655673587E+04  0.10666867725E+04  0.00000000000E+00 0. -1.
        -12    1    5    5    0    0 -0.18455613753E+02  0.18391008171E+02  0.17708602332E+03  0.17899245380E+03  0.00000000000E+00 0.  1.
          5    1    4    4  501    0  0.22174905475E+02  0.97521462274E+01 -0.16482065558E+02  0.29596649708E+02  0.41800000000E+01 0. -1.
         -5    1    4    4    0  501 -0.20354431391E+02  0.30491630667E+02  0.16342196235E+03  0.16753582481E+03  0.41800000000E+01 0. -1.
</event>
<event>
11    1  0.1003949E-008  0.1326620E+03  0.7561462E-02  0.1116041E+00
         22   -1    0    0    0    0  0.00000000000E+00  0.00000000000E+00  0.11800397092E+04  0.11800397092E+04  0.00000000000E+00 0. -1.
         22   -1    0    0    0    0 -0.00000000000E+00 -0.00000000000E+00 -0.15196179201E+03  0.15196179201E+03  0.00000000000E+00 0.  1.
         24    2    1    2    0    0 -0.19914941719E+02  0.34432952070E+01 -0.12330672761E+03  0.15024367566E+03  0.83427524323E+02 0.  0.
         25    2    1    2    0    0  0.60774154069E+02 -0.45563346239E+01  0.36908714054E+03  0.39444511118E+03  0.12508944973E+03 0.  0.
        -24    2    1    2    0    0 -0.40859212349E+02  0.11130394169E+01  0.78229750426E+03  0.78731271437E+03  0.78747767920E+02 0.  0.
        -11    1    3    3    0    0  0.31612753162E+02  0.37484953876E+01 -0.65357498460E+02  0.72698142927E+02  0.00000000000E+00 0.  1.
         12    1    3    3    0    0 -0.51527694881E+02 -0.30520018061E+00 -0.57949229151E+02  0.77545532729E+02  0.00000000000E+00 0. -1.
         13    1    5    5    0    0 -0.16183904266E+02  0.10421054072E+01  0.72172286637E+03  0.72190504957E+03  0.00000000000E+00 0. -1.
        -14    1    5    5    0    0 -0.24675308084E+02  0.70934009734E-01  0.60574637887E+02  0.65407664809E+02  0.00000000000E+00 0.  1.
          5    1    4    4  501    0 -0.49153266794E+00  0.13366147907E+02  0.29985948824E+03  0.30018674288E+03  0.41800000000E+01 0.  1.
         -5    1    4    4    0  501  0.61265686737E+02 -0.17922482531E+02  0.69227652300E+02  0.94258368299E+02  0.41800000000E+01 0.  1.
</event>
<event>
11    1  0.1003949E-008  0.2708311E+03  0.7561462E-02  0.1013352E+00
         22   -1    0    0    0    0  0.00000000000E+00  0.00000000000E+00  0.21998641432E+03  0.21998641432E+03  0.00000000000E+00 0.  1.
         22   -1    0    0    0    0 -0.00000000000E+00 -0.00000000000E+00 -0.48883352698E+03  0.48883352698E+03  0.00000000000E+00 0.  1.
         24    2    1    2    0    0 -0.66738518312E+02 -0.13718562422E+02 -0.62795761831E+02  0.12200184214E+03  0.79365691588E+02 0.  0.
         25    2    1    2    0    0  0.56810381330E+02  0.24330378566E+03 -0.19386200736E+02  0.28008667843E+03  0.12509424892E+03 0.  0.
        -24    2    1    2    0    0  0.99281369825E+01 -0.22958522324E+03 -0.18666515009E+03  0.30673142073E+03  0.80201892551E+02 0.  0.
        -11    1    3    3    0    0 -0.37394321498E+02 -0.54139647194E+01 -0.78924565530E+02  0.87502761890E+02  0.00000000000E+00 0.  1.
         12    1    3    3    0    0 -0.29344196813E+02 -0.83045977022E+01  0.16128803699E+02  0.34499080254E+02  0.00000000000E+00 0. -1.
         13    1    5    5    0    0  0.39530715462E+02 -0.17002910357E+03 -0.15330953197E+03  0.23232818623E+03  0.00000000000E+00 0. -1.
        -14    1    5    5    0    0 -0.29602578480E+02 -0.59556119673E+02 -0.33355618119E+02  0.74403234495E+02  0.00000000000E+00 0.  1.
          5    1    4    4  501    0  0.67476490088E+02  0.11032062705E+03  0.37918761407E+02  0.13482960481E+03  0.41800000000E+01 0. -1.
         -5    1    4    4    0  501 -0.10666108759E+02  0.13298315862E+03 -0.57304962142E+02  0.14525707363E+03  0.41800000000E+01 0. -1.
</event>
<event>
11    1  0.1003949E-008  0.1468505E+03  0.7561462E-02  0.1100141E+00
         22   -1    0    0    0    0  0.00000000000E+00  0.00000000000E+00  0.24099996745E+03  0.24099996745E+03  0.00000000000E+00 0.  1.
         22   -1    0    0    0    0 -0.00000000000E+00 -0.00000000000E+00 -0.26419244129E+04  0.26419244129E+04  0.00000000000E+00 0.  1.
        -24    2    1    2    0    0  0.13918746607E+02  0.38024649212E+02 -0.25293140093E+04  0.25308686520E+04  0.78912424609E+02 0.  0.
         25    2    1    2    0    0  0.70581031098E+01  0.42460500585E+02 -0.48260455903E+02  0.14080791233E+03  0.12508031676E+03 0.  0.
         24    2    1    2    0    0 -0.20976849717E+02 -0.80485149797E+02  0.17665001977E+03  0.21124781597E+03  0.80638221124E+02 0.  0.
        -13    1    5    5    0    0 -0.25455689930E+02 -0.90084300078E+02  0.17744668963E+03  0.20062527491E+03  0.00000000000E+00 0.  1.
         14    1    5    5    0    0  0.44788402137E+01  0.95991502807E+01 -0.79666986279E+00  0.10622541063E+02  0.00000000000E+00 0. -1.
         11    1    3    3    0    0  0.40192114126E+02  0.19062817859E+02 -0.78896510827E+03  0.79021815920E+03  0.00000000000E+00 0. -1.
        -12    1    3    3    0    0 -0.26273367519E+02  0.18961831354E+02 -0.17403489010E+04  0.17406504928E+04  0.00000000000E+00 0.  1.
          5    1    4    4  501    0  0.49296426850E+02  0.14032610010E+01  0.17433307139E+02  0.52473797646E+02  0.41800000000E+01 0. -1.
         -5    1    4    4    0  501 -0.42238323740E+02  0.41057239584E+02 -0.65693763041E+02  0.88334114685E+02  0.41800000000E+01 0. -1.
</event>
<event>
11    1  0.1003949E-008  0.1437102E+03  0.7561462E-02  0.1103485E+00
         22   -1    0    0    0    0  0.00000000000E+00  0.00000000000E+00  0.21429523507E+03  0.21429523507E+03  0.00000000000E+00 0.  1.
         22   -1    0    0    0    0 -0.00000000000E+00 -0.00000000000E+00 -0.12415319000E+04  0.12415319000E+04  0.00000000000E+00 0.  1.
         24    2    1    2    0    0  0.66906636652E+02 -0.10065400010E+02 -0.79769050435E+03  0.80444571592E+03  0.79025051852E+02 0.  0.
         25    2    1    2    0    0 -0.12597561987E+03  0.45023643802E+02 -0.40597395342E+03  0.44537518333E+03  0.12508883953E+03 0.  0.
        -24    2    1    2    0    0  0.59068983214E+02 -0.34958243793E+02  0.17642779279E+03  0.20600623587E+03  0.81243950907E+02 0.  0.
        -11    1    3    3    0    0  0.43438126858E+02  0.19849628157E+02 -0.65619535298E+03  0.65793101453E+03  0.00000000000E+00 0.  1.
         12    1    3    3    0    0  0.23468509794E+02 -0.29915028166E+02 -0.14149515137E+03  0.14651470139E+03  0.00000000000E+00 0. -1.
         11    1    5    5    0    0 -0.80532706860E+01  0.17612191337E+02  0.19918803124E+02  0.27781345726E+02  0.00000000000E+00 0. -1.
        -12    1    5    5    0    0  0.67122253900E+02 -0.52570435130E+02  0.15650898967E+03  0.17822489014E+03  0.00000000000E+00 0.  1.
          5    1    4    4  501    0 -0.12513492206E+03  0.72214441123E+02 -0.38352887082E+03  0.40986039255E+03  0.41800000000E+01 0.  1.
         -5    1    4    4    0  501 -0.84069780124E+00 -0.27190797321E+02 -0.22445082597E+02  0.35514790785E+02  0.41800000000E+01 0.  1.
</event>
<event>
11    1  0.1003949E-008  0.1895473E+03  0.7561462E-02  0.1062172E+00
         22   -1    0    0    0    0  0.00000000000E+00  0.00000000000E+00  0.14736124713E+04  0.14736124713E+04  0.00000000000E+00 0. -1.
         22   -1    0    0    0    0 -0.00000000000E+00 -0.00000000000E+00 -0.57000528278E+03  0.57000528278E+03  0.00000000000E+00 0.  1.
        -24    2    1    2    0    0 -0.30888154095E+02 -0.65504955845E+02 -0.49404922640E+03  0.50586555447E+03  0.81057657209E+02 0.  0.
         25    2    1    2    0    0  0.15266112225E+03 -0.93106787636E+01  0.85585590519E+02  0.21531160634E+03  0.12506833145E+03 0.  0.
         24    2    1    2    0    0 -0.12177296816E+03  0.74815634609E+02  0.13120708244E+04  0.13224405932E+04  0.83025535610E+02 0.  0.
        -11    1    5    5    0    0 -0.33076092480E+02  0.25231396535E+02  0.14207642857E+03  0.14804176040E+03  0.00000000000E+00 0.  1.
         12    1    5    5    0    0 -0.88696875678E+02  0.49584238073E+02  0.11699943958E+04  0.11743988328E+04  0.00000000000E+00 0. -1.
         13    1    3    3    0    0 -0.26656285056E+02  0.13256284025E+02 -0.14252436551E+03  0.14560041677E+03  0.00000000000E+00 0. -1.
        -14    1    3    3    0    0 -0.42318690384E+01 -0.78761239870E+02 -0.35152486088E+03  0.36026513770E+03  0.00000000000E+00 0.  1.
          5    1    4    4  501    0  0.82787430993E+02 -0.77736737943E+01  0.11279572442E+03  0.14019463821E+03  0.41800000000E+01 0.  1.
         -5    1    4    4    0  501  0.69873691260E+02 -0.15370049693E+01 -0.27210133898E+02  0.75116968132E+02  0.41800000000E+01 0.  1.
</event>
<event>
11    1  0.1003949E-008  0.2094216E+03  0.7561462E-02  0.1048054E+00
         22   -1    0    0    0    0  0.00000000000E+00  0.00000000000E+00  0.19891540490E+03  0.19891540490E+03  0.00000000000E+00 0. -1.
         22   -1    0    0    0    0 -0.00000000000E+00 -0.00000000000E+00 -0.17189394809E+04  0.17189394809E+04  0.00000000000E+00 0. -1.
        -24    2    1    2    0    0 -0.12330404008E+03  0.11675152721E+03 -0.13421817644E+04  0.13541081248E+04  0.57637830977E+02 0.  0.
         25    2    1    2    0    0  0.42430572224E+02 -0.17726920659E+03 -0.30924473981E+03  0.38013832505E+03  0.12509241388E+03 0.  0.
         24    2    1    2    0    0  0.80873467851E+02  0.60517679380E+02  0.13140242824E+03  0.18360843591E+03  0.79009823889E+02 0.  0.
        -13    1    5    5    0    0 -0.64023318477E+01  0.10109203603E+02 -0.58547680308E+01  0.13321567448E+02  0.00000000000E+00 0.  1.
         14    1    5    5    0    0  0.87275799699E+02  0.50408475776E+02  0.13725719627E+03  0.17028686846E+03  0.00000000000E+00 0. -1.
         13    1    3    3    0    0 -0.77050246535E+02  0.10288365010E+03 -0.10679446571E+04  0.10756521634E+04  0.00000000000E+00 0. -1.
        -14    1    3    3    0    0 -0.46253793540E+02  0.13867877103E+02 -0.27423710734E+03  0.27845596146E+03  0.00000000000E+00 0.  1.
          5    1    4    4  501    0  0.58273555465E+02 -0.10189101007E+03 -0.26813096302E+03  0.29272729789E+03  0.41800000000E+01 0. -1.
         -5    1    4    4    0  501 -0.15842983241E+02 -0.75378196515E+02 -0.41113776791E+02  0.87411027164E+02  0.41800000000E+01 0. -1.
</event>
<event>
11    1  0.1003949E-008  0.1317539E+03  0.7561462E-02  0.1117133E+00
         22   -1    0    0    0    0  0.00000000000E+00  0.00000000000E+00  0.24180050690E+03  0.24180050690E+03  0.00000000000E+00 0.  1.
         22   -1    0    0    0    0 -0.00000000000E+00 -0.00000000000E+00 -0.35329818779E+03  0.35329818779E+03  0.00000000000E+00 0.  1.
         24    2    1    2    0    0  0.16140442680E+02  0.43426283342E+02 -0.29192061193E+03  0.30626324863E+03  0.80207093335E+02 0.  0.
         25    2    1    2    0    0  0.15590707603E+02  0.72394177548E+01  0.92568666271E+02  0.15656292919E+03  0.12509002154E+03 0.  0.
        -24    2    1    2    0    0 -0.31731150283E+02 -0.50665701097E+02  0.87854264772E+02  0.13227251686E+03  0.78764000103E+02 0.  0.
        -11    1    3    3    0    0  0.39577684028E+02  0.26437356690E+02 -0.25471268505E+03  0.25912135927E+03  0.00000000000E+00 0.  1.
         12    1    3    3    0    0 -0.23437241348E+02  0.16988926652E+02 -0.37207926876E+02  0.47141889369E+02  0.00000000000E+00 0. -1.
         13    1    5    5    0    0  0.25328339275E+02 -0.20821095246E+02  0.41701777569E+02  0.53047912589E+02  0.00000000000E+00 0. -1.
        -14    1    5    5    0    0 -0.57059489558E+02 -0.29844605851E+02  0.46152487203E+02  0.79224604272E+02  0.00000000000E+00 0.  1.
          5    1    4    4  501    0 -0.14050737791E+02 -0.54443534593E+02  0.30628833028E+02  0.64164783987E+02  0.41800000000E+01 0. -1.
         -5    1    4    4    0  501  0.29641445394E+02  0.61682952348E+02  0.61939833244E+02  0.92398145207E+02  0.41800000000E+01 0. -1.
</event>
<event>
11    1  0.1003949E-008  0.1858864E+03  0.7561462E-02  0.1064978E+00
         22   -1    0    0    0    0  0.00000000000E+00  0.00000000000E+00  0.36586488179E+03  0.36586488179E+03  0.00000000000E+00 0.  1.
         22   -1    0    0    0    0 -0.00000000000E+00 -0.00000000000E+00 -0.83352934761E+03  0.83352934761E+03  0.00000000000E+00 0. -1.
         24    2    1    2    0    0 -0.21083847549E+02 -0.70168261007E+02 -0.64523033688E+03  0.65475497023E+03  0.83748253290E+02 0.  0.
         25    2    1    2    0    0  0.69142391840E+02  0.18996836327E+03 -0.75349895750E+02  0.24938755951E+03  0.12509156110E+03 0.  0.
        -24    2    1    2    0    0 -0.48058544291E+02 -0.11980010226E+03  0.25291576682E+03  0.29525169966E+03  0.80904220338E+02 0.  0.
        -11    1    3    3    0    0 -0.12000500462E+02 -0.20416144153E+02 -0.33993057241E+02  0.41428962020E+02  0.00000000000E+00 0.  1.
         12    1    3    3    0    0 -0.90833470873E+01 -0.49752116854E+02 -0.61123727964E+03  0.61332600821E+03  0.00000000000E+00 0. -1.
         11    1    5    5    0    0 -0.27084967793E+02 -0.57789559310E+01  0.17289304086E+02  0.32648305435E+02  0.00000000000E+00 0. -1.
        -12    1    5    5    0    0 -0.20973576498E+02 -0.11402114633E+03  0.23562646273E+03  0.26260339423E+03  0.00000000000E+00 0.  1.
          5    1    4    4  501    0  0.30004583444E+02  0.26144309402E+01  0.19104697498E+02  0.35910613240E+02  0.41800000000E+01 0. -1.
         -5    1    4    4    0  501  0.39137808396E+02  0.18735393233E+03 -0.94454593248E+02  0.21347694627E+03  0.41800000000E+01 0. -1.
</event>
<event>
11    1  0.1003949E-008  0.2271118E+03  0.7561462E-02  0.1036852E+00
         22   -1    0    0    0    0  0.00000000000E+00  0.00000000000E+00  0.24090511150E+04  0.24090511150E+04  0.00000000000E+00 0. -1.
         22   -1    0    0    0    0 -0.00000000000E+00 -0.00000000000E+00 -0.19498174701E+04  0.19498174701E+04  0.00000000000E+00 0.  1.
         24    2    1    2    0    0  0.27745893224E+02 -0.18752414973E+03 -0.19080874768E+04  0.19193370260E+04  0.84389920133E+02 0.  0.
         25    2    1    2    0    0 -0.26645405340E+02  0.18712529342E+03  0.32829300572E+03  0.39893605557E+03  0.12509126974E+03 0.  0.
        -24    2    1    2    0    0 -0.11004878842E+01  0.39885630671E+00  0.20390281160E+04  0.20405955036E+04  0.79956119358E+02 0.  0.
        -11    1    3    3    0    0  0.53613315755E+02 -0.15901012218E+03 -0.14646309932E+04  0.14742125196E+04  0.00000000000E+00 0.  1.
         12    1    3    3    0    0 -0.25867422531E+02 -0.28514027550E+02 -0.44345648364E+03  0.44512450640E+03  0.00000000000E+00 0. -1.
         11    1    5    5    0    0 -0.23850656384E+02  0.12263565631E+02  0.17990013571E+04  0.17992012483E+04  0.00000000000E+00 0. -1.
        -12    1    5    5    0    0  0.22750168499E+02 -0.11864709324E+02  0.24002675889E+03  0.24139425527E+03  0.00000000000E+00 0.  1.
          5    1    4    4  501    0  0.19362159700E+02  0.17775617014E+03  0.24684570483E+03  0.30483179566E+03  0.41800000000E+01 0.  1.
         -5    1    4    4    0  501 -0.46007565040E+02  0.93691232874E+01  0.81447300890E+02  0.94104259916E+02  0.41800000000E+01 0.  1.
</event>
<event>
11    1  0.1003949E-008  0.1376197E+03  0.7561462E-02  0.1110246E+00
         22   -1    0    0    0    0  0.00000000000E+00  0.00000000000E+00  0.14289605278E+04  0.14289605278E+04  0.00000000000E+00 0. -1.
         22   -1    0    0    0    0 -0.00000000000E+00 -0.00000000000E+00 -0.13514928146E+03  0.13514928146E+03  0.00000000000E+00 0. -1.
         24    2    1    2    0    0 -0.85456934745E+01  0.36568959227E+02 -0.69947200693E+02  0.11245515253E+03  0.79644414683E+02 0.  0.
         25    2    1    2    0    0 -0.31468581828E+02 -0.76457683589E+02  0.91616039297E+02  0.17571994073E+03  0.12509176589E+03 0.  0.
        -24    2    1    2    0    0  0.40014275303E+02  0.39888724362E+02  0.12721424077E+04  0.12759347160E+04  0.80441540079E+02 0.  0.
        -11    1    3    3    0    0 -0.24603965040E+02  0.48803120878E+02 -0.19348899250E+02  0.57978268388E+02  0.00000000000E+00 0.  1.
         12    1    3    3    0    0  0.16058271565E+02 -0.12234161652E+02 -0.50598301443E+02  0.54476884143E+02  0.00000000000E+00 0. -1.
         13    1    5    5    0    0  0.12165824837E+02  0.32946005511E+02  0.11472301419E+04  0.11477675919E+04  0.00000000000E+00 0. -1.
        -14    1    5    5    0    0  0.27848450465E+02  0.69427188509E+01  0.12491226577E+03  0.12816712401E+03  0.00000000000E+00 0.  1.
          5    1    4    4  501    0  0.28441798231E+02 -0.60429668859E+02  0.91750295479E+02  0.11356174482E+03  0.41800000000E+01 0. -1.
         -5    1    4    4    0  501 -0.59910380059E+02 -0.16028014729E+02 -0.13425618253E+00  0.62158195917E+02  0.41800000000E+01 0. -1.
</event>
<event>
11    1  0.1003949E-008  0.1765468E+03  0.7561462E-02  0.1072471E+00
         22   -1    0    0    0    0  0.00000000000E+00  0.00000000000E+00  0.51294012873E+03  0.51294012873E+03  0.00000000000E+00 0. -1.
         22   -1    0    0    0    0 -0.00000000000E+00 -0.00000000000E+00 -0.50797690207E+03  0.50797690207E+03  0.00000000000E+00 0. -1.
         24    2    1    2    0    0  0.12202279681E+03  0.69011251352E+01 -0.43172662399E+03  0.45586970437E+03  0.80573699406E+02 0.  0.
         25    2    1    2    0    0 -0.15850745725E+03 -0.28937418293E+01  0.11348110852E+03  0.23164248303E+03  0.12508912905E+03 0.  0.
        -24    2    1    2    0    0  0.36484660447E+02 -0.40073833059E+01  0.32320874213E+03  0.33340484340E+03  0.73128031851E+02 0.  0.
        -13    1    3    3    0    0  0.10020836522E+02 -0.24416087520E+01 -0.17878713765E+03  0.17908439130E+03  0.00000000000E+00 0.  1.
         14    1    3    3    0    0  0.11200196029E+03  0.93427338872E+01 -0.25293948634E+03  0.27678531307E+03  0.00000000000E+00 0. -1.
         11    1    5    5    0    0  0.48031317335E+02 -0.20428045864E+02  0.28953265530E+03  0.29419971276E+03  0.00000000000E+00 0. -1.
        -12    1    5    5    0    0 -0.11546656888E+02  0.16420662558E+02  0.33676086835E+02  0.39205130642E+02  0.00000000000E+00 0.  1.
          5    1    4    4  501    0 -0.36165670921E+01 -0.13085746532E+02 -0.21583873231E+02  0.25838968700E+02  0.41800000000E+01 0. -1.
         -5    1    4    4    0  501 -0.15489089016E+03  0.10192004703E+02  0.13506498175E+03  0.20580351433E+03  0.41800000000E+01 0. -1.
</event>
<event>
11    1  0.1003949E-008  0.1468674E+03  0.7561462E-02  0.1100123E+00
         22   -1    0    0    0    0  0.00000000000E+00  0.00000000000E+00  0.34102123113E+03  0.34102123113E+03  0.00000000000E+00 0.  1.
         22   -1    0    0    0    0 -0.00000000000E+00 -0.00000000000E+00 -0.11436069266E+04  0.11436069266E+04  0.00000000000E+00 0. -1.
        -24    2    1    2    0    0  0.50073430539E+02  0.60668921634E+02 -0.10765345054E+04  0.10825126973E+04  0.81970311946E+02 0.  0.
         25    2    1    2    0    0  0.28533542167E+02 -0.52882235257E+02  0.42632694669E+02  0.14517663730E+03  0.12509202824E+03 0.  0.
         24    2    1    2    0    0 -0.78606972705E+02 -0.77866863771E+01  0.23131611529E+03  0.25693882309E+03  0.79187909284E+02 0.  0.
        -11    1    5    5    0    0 -0.75035561682E+02  0.15895308852E+02  0.21415303004E+03  0.22747421093E+03  0.00000000000E+00 0.  1.
         12    1    5    5    0    0 -0.35714110232E+01 -0.23681995229E+02  0.17163085242E+02  0.29464612160E+02  0.00000000000E+00 0. -1.
         11    1    3    3    0    0  0.46176925947E+02  0.78230980974E+02 -0.74974195178E+03  0.75522538962E+03  0.00000000000E+00 0. -1.
        -12    1    3    3    0    0  0.38965045915E+01 -0.17562059340E+02 -0.32679255361E+03  0.32728730769E+03  0.00000000000E+00 0.  1.
          5    1    4    4  501    0 -0.29348349914E+02 -0.28361307530E+01 -0.28060721889E+02  0.40917548720E+02  0.41800000000E+01 0.  1.
         -5    1    4    4    0  501  0.57881892081E+02 -0.50046104504E+02  0.70693416558E+02  0.10425908858E+03  0.41800000000E+01 0.  1.
</event>
<event>
11    1  0.1003949E-008  0.1534558E+03  0.7561462E-02  0.1093399E+00
         22   -1    0    0    0    0  0.00000000000E+00  0.00000000000E+00  0.26474877697E+03  0.26474877697E+03  0.00000000000E+00 0.  1.
         22   -1    0    0    0    0 -0.00000000000E+00 -0.00000000000E+00 -0.78396898044E+03  0.78396898044E+03  0.00000000000E+00 0.  1.
         24    2    1    2    0    0 -0.76198623982E+02 -0.43804385742E+02 -0.67487874826E+03  0.68529294908E+03  0.80249901519E+02 0.  0.
         25    2    1    2    0    0  0.96477696707E+02  0.37026808819E+02 -0.25303600711E+02  0.16421477313E+03  0.12508912412E+03 0.  0.
        -24    2    1    2    0    0 -0.20279072725E+02  0.67775769234E+01  0.18096214550E+03  0.19921003520E+03  0.80499463855E+02 0.  0.
        -13    1    3    3    0    0  0.34676215452E+01 -0.10071309187E+02 -0.31431266335E+03  0.31449309374E+03  0.00000000000E+00 0.  1.
         14    1    3    3    0    0 -0.79666245527E+02 -0.33733076555E+02 -0.36056608492E+03  0.37079985534E+03  0.00000000000E+00 0. -1.
         13    1    5    5    0    0 -0.10059043431E+02 -0.20187788374E+02  0.81097919218E+01  0.23968727108E+02  0.00000000000E+00 0. -1.
        -14    1    5    5    0    0 -0.10220029294E+02  0.26965365297E+02  0.17285235358E+03  0.17524130809E+03  0.00000000000E+00 0.  1.
          5    1    4    4  501    0 -0.26507349833E+02  0.22081090855E+02  0.84034062613E+01  0.35753374740E+02  0.41800000000E+01 0. -1.
         -5    1    4    4    0  501  0.12298504654E+03  0.14945717964E+02 -0.33707006973E+02  0.12846139839E+03  0.41800000000E+01 0. -1.
</event>
<event>
11    1  0.1003949E-008  0.2730094E+03  0.7561462E-02  0.1012309E+00
         22   -1    0    0    0    0  0.00000000000E+00  0.00000000000E+00  0.72756533556E+03  0.72756533556E+03  0.00000000000E+00 0. -1.
         22   -1    0    0    0    0 -0.00000000000E+00 -0.00000000000E+00 -0.65571349743E+03  0.65571349743E+03  0.00000000000E+00 0. -1.
         24    2    1    2    0    0  0.16498908458E+03 -0.15094460295E+03 -0.29461509099E+03  0.37868260709E+03  0.81220649341E+02 0.  0.
         25    2    1    2    0    0 -0.29626705853E+03  0.74474229966E+02 -0.21791000078E+03  0.39554039248E+03  0.12508738043E+03 0.  0.
        -24    2    1    2    0    0  0.13127797395E+03  0.76470372987E+02  0.58437692989E+03  0.60905583343E+03  0.79818466871E+02 0.  0.
        -11    1    3    3    0    0  0.36593627545E+00 -0.32054646189E+02 -0.22564455792E+02  0.39201899403E+02  0.00000000000E+00 0.  1.
         12    1    3    3    0    0  0.16462314831E+03 -0.11888995676E+03 -0.27205063520E+03  0.33948070769E+03  0.00000000000E+00 0. -1.
         11    1    5    5    0    0  0.72533308406E+02  0.15467955108E+02  0.39063269537E+03  0.39761066529E+03  0.00000000000E+00 0. -1.
        -12    1    5    5    0    0  0.58744665540E+02  0.61002417879E+02  0.19374423453E+03  0.21144516814E+03  0.00000000000E+00 0.  1.
          5    1    4    4  501    0 -0.11596363722E+03  0.35264660286E+02 -0.16568536381E+02  0.12240567887E+03  0.41800000000E+01 0.  1.
         -5    1    4    4    0  501 -0.18030342131E+03  0.39209569680E+02 -0.20134146440E+03  0.27313471361E+03  0.41800000000E+01 0.  1.
</event>
<event>
11    1  0.1003949E-008  0.1403337E+03  0.7561462E-02  0.1107186E+00
         22   -1    0    0    0    0  0.00000000000E+00  0.00000000000E+00  0.13731784221E+03  0.13731784221E+03  0.00000000000E+00 0.  1.
         22   -1    0    0    0    0 -0.00000000000E+00 -0.00000000000E+00 -0.12406336836E+04  0.12406336836E+04  0.00000000000E+00 0.  1.
        -24    2    1    2    0    0 -0.32020202004E+02 -0.47696541934E+02 -0.54672730288E+03  0.55583418887E+03  0.82101451568E+02 0.  0.
         25    2    1    2    0    0  0.47336847863E+02  0.57416600199E+02 -0.66584948683E+03  0.68157331917E+03  0.12509679109E+03 0.  0.
         24    2    1    2    0    0 -0.15316645859E+02 -0.97200582641E+01  0.10926094836E+03  0.14054401774E+03  0.86519286364E+02 0.  0.
        -13    1    5    5    0    0 -0.29147318295E+02  0.22599762165E+02  0.96222980244E+02  0.10304939272E+03  0.00000000000E+00 0.  1.
         14    1    5    5    0    0  0.13830672436E+02 -0.32319820429E+02  0.13037968119E+02  0.37494625018E+02  0.00000000000E+00 0. -1.
         11    1    3    3    0    0  0.18974318928E+02  0.92071449706E+01 -0.73049716121E+02  0.76033264580E+02  0.00000000000E+00 0. -1.
        -12    1    3    3    0    0 -0.50994520933E+02 -0.56903686905E+02 -0.47367758676E+03  0.47980092429E+03  0.00000000000E+00 0.  1.
          5    1    4    4  501    0  0.37034408652E+02 -0.35609112626E+02 -0.25844221073E+03  0.26353255020E+03  0.41800000000E+01 0. -1.
         -5    1    4    4    0  501  0.10302439211E+02  0.93025712825E+02 -0.40740727610E+03  0.41804076897E+03  0.41800000000E+01 0. -1.
</event>
<event>
11    1  0.1003949E-008  0.1303213E+03  0.7561462E-02  0.1118875E+00
         22   -1    0    0    0    0  0.00000000000E+00  0.00000000000E+00  0.24395383840E+04  0.24395383840E+04  0.00000000000E+00 0.  1.
         22   -1    0    0    0    0 -0.00000000000E+00 -0.00000000000E+00 -0.18715381997E+03  0.18715381997E+03  0.00000000000E+00 0.  1.
         24    2    1    2    0    0  0.84000051502E+01  0.36202330611E+02 -0.16526424152E+03  0.18811493019E+03  0.81815576800E+02 0.  0.
         25    2    1    2    0    0  0.66153394949E+01 -0.17089870448E+02  0.40843013341E+03  0.42754717212E+03  0.12508230939E+03 0.  0.
        -24    2    1    2    0    0 -0.15015344645E+02 -0.19112460164E+02  0.20092186721E+04  0.20110301016E+04  0.81802510052E+02 0.  0.
        -11    1    3    3    0    0 -0.32601181806E+02  0.28888650192E+02 -0.54429792710E+02  0.69713653609E+02  0.00000000000E+00 0.  1.
         12    1    3    3    0    0  0.41001186956E+02  0.73136804188E+01 -0.11083444881E+03  0.11840127658E+03  0.00000000000E+00 0. -1.
         11    1    5    5    0    0  0.22282834404E+02 -0.37576192379E+01  0.18633458562E+03  0.18769981942E+03  0.00000000000E+00 0. -1.
        -12    1    5    5    0    0 -0.37298179049E+02 -0.15354840926E+02  0.18228840865E+04  0.18233302822E+04  0.00000000000E+00 0.  1.
          5    1    4    4  501    0 -0.52808363924E+02  0.70919643385E+01  0.26545710887E+03  0.27078398828E+03  0.41800000000E+01 0.  1.
         -5    1    4    4    0  501  0.59423703419E+02 -0.24181834786E+02  0.14297302453E+03  0.15676318384E+03  0.41800000000E+01 0.  1.
</event>
<event>
11    1  0.1003949E-008  0.1419108E+03  0.7561462E-02  0.1105443E+00
         22   -1    0    0    0    0  0.00000000000E+00  0.00000000000E+00  0.52815658552E+03  0.52815658552E+03  0.00000000000E+00 0. -1.
         22   -1    0    0    0    0 -0.00000000000E+00 -0.00000000000E+00 -0.23149701513E+03  0.23149701513E+03  0.00000000000E+00 0. -1.
        -24    2    1    2    0    0 -0.58382312474E+01 -0.68464040483E+02 -0.16838868526E+03  0.19936455393E+03  0.81670473594E+02 0.  0.
         25    2    1    2    0    0 -0.22694750104E+02  0.56210216918E+02  0.69340180355E+02  0.15533664780E+03  0.12508706316E+03 0.  0.
         24    2    1    2    0    0  0.28532981351E+02  0.12253823565E+02  0.39570807529E+03  0.40495239892E+03  0.80232645009E+02 0.  0.
        -13    1    5    5    0    0 -0.12103828469E+02  0.31657518723E+02  0.94442501237E+02  0.10033985846E+03  0.00000000000E+00 0.  1.
         14    1    5    5    0    0  0.40636809820E+02 -0.19403695158E+02  0.30126557405E+03  0.30461254047E+03  0.00000000000E+00 0. -1.
         13    1    3    3    0    0 -0.43456415229E+01 -0.63219550872E+02 -0.17765198411E+03  0.18861554462E+03  0.00000000000E+00 0. -1.
        -14    1    3    3    0    0 -0.14925897245E+01 -0.52444896108E+01  0.92632988579E+01  0.10749009308E+02  0.00000000000E+00 0.  1.
          5    1    4    4  501    0 -0.46575616613E+02  0.34118448425E+02 -0.19143277423E+02  0.60969615846E+02  0.41800000000E+01 0.  1.
         -5    1    4    4    0  501  0.23880866509E+02  0.22091768492E+02  0.88483457778E+02  0.94367031959E+02  0.41800000000E+01 0.  1.
</event>
<event>
11    1  0.1003949E-008  0.1382046E+03  0.7561462E-02  0.1109580E+00
         22   -1    0    0    0    0  0.00000000000E+00  0.00000000000E+00  0.32003145003E+04  0.32003145003E+04  0.00000000000E+00 0.  1.
         22   -1    0    0    0    0 -0.00000000000E+00 -0.00000000000E+00 -0.53678318857E+02  0.53678318857E+02  0.00000000000E+00 0.  1.
         24    2    1    2    0    0 -0.24077414110E+02  0.30809200510E+02 -0.11696003078E+01  0.91407139952E+02  0.82613367944E+02 0.  0.
         25    2    1    2    0    0 -0.19729551511E+01  0.27676371319E+02  0.63847884675E+03  0.65120751739E+03  0.12508444697E+03 0.  0.
        -24    2    1    2    0    0  0.26050369261E+02 -0.58485571829E+02  0.25093269350E+04  0.25113781618E+04  0.78736402535E+02 0.  0.
        -11    1    3    3    0    0 -0.18135468630E+02  0.61191171962E+01 -0.40382799314E+02  0.44689028834E+02  0.00000000000E+00 0.  1.
         12    1    3    3    0    0 -0.59419454797E+01  0.24690083314E+02  0.39213199006E+02  0.46718111118E+02  0.00000000000E+00 0. -1.
         11    1    5    5    0    0  0.40924147763E+02 -0.54256081123E+01  0.70314708431E+03  0.70435789572E+03  0.00000000000E+00 0. -1.
        -12    1    5    5    0    0 -0.14873778502E+02 -0.53059963716E+02  0.18061798507E+04  0.18070202661E+04  0.00000000000E+00 0.  1.
          5    1    4    4  501    0  0.54894420599E+02  0.24337380500E+01  0.17285783939E+03  0.18142939544E+03  0.41800000000E+01 0.  1.
         -5    1    4    4    0  501 -0.56867375750E+02  0.25242633269E+02  0.46562100737E+03  0.46977812195E+03  0.41800000000E+01 0.  1.
</event>
<event>
11    1  0.1003949E-008  0.1313022E+03  0.7561462E-02  0.1117679E+00
         22   -1    0    0    0    0  0.00000000000E+00  0.00000000000E+00  0.71481288720E+03  0.71481288720E+03  0.00000000000E+00 0.  1.
         22   -1    0    0    0    0 -0.00000000000E+00 -0.00000000000E+00 -0.46070262570E+03  0.46070262570E+03  0.00000000000E+00 0. -1.
         24    2    1    2    0    0 -0.13691835561E+02  0.93970876219E+01 -0.42087072465E+03  0.42882659403E+03  0.80525208873E+02 0.  0.
         25    2    1    2    0    0  0.11097528830E+02 -0.48310983699E+02  0.10877550891E+03  0.17302250402E+03  0.12509024449E+03 0.  0.
        -24    2    1    2    0    0  0.25943067315E+01  0.38913896077E+02  0.56620547725E+03  0.57366641484E+03  0.83567286138E+02 0.  0.
        -13    1    3    3    0    0 -0.44659200536E+01  0.18283390868E+01  0.23987080024E+01  0.53889763241E+01  0.00000000000E+00 0.  1.
         14    1    3    3    0    0 -0.92259155078E+01  0.75687485352E+01 -0.42326943266E+03  0.42343761771E+03  0.00000000000E+00 0. -1.
         11    1    5    5    0    0 -0.12083694732E+02  0.62659232489E+02  0.36550512971E+03  0.37103395389E+03  0.00000000000E+00 0. -1.
        -12    1    5    5    0    0  0.14678001464E+02 -0.23745336412E+02  0.20070034753E+03  0.20263246094E+03  0.00000000000E+00 0.  1.
          5    1    4    4  501    0  0.33477890974E+02 -0.67687531599E+02  0.18407496579E+02  0.77837519541E+02  0.41800000000E+01 0.  1.
         -5    1    4    4    0  501 -0.22380362144E+02  0.19376547900E+02  0.90368012328E+02  0.95184984480E+02  0.41800000000E+01 0.  1.
</event>
<event>
11    1  0.1003949E-008  0.1494772E+03  0.7561462E-02  0.1097414E+00
         22   -1    0    0    0    0  0.00000000000E+00  0.00000000000E+00  0.16238683284E+03  0.16238683284E+03  0.00000000000E+00 0. -1.
         22   -1    0    0    0    0 -0.00000000000E+00 -0.00000000000E+00 -0.84259487358E+03  0.84259487358E+03  0.00000000000E+00 0.  1.
        -24    2    1    2    0    0 -0.88472489901E+02  0.13696213464E+02 -0.57280565907E+03  0.58575358696E+03  0.83582138336E+02 0.  0.
         25    2    1    2    0    0  0.59728309835E+02  0.70023880079E+00 -0.23055030386E+03  0.26900696206E+03  0.12507334528E+03 0.  0.
         24    2    1    2    0    0  0.28744180066E+02 -0.14396452264E+02  0.12314792218E+03  0.15022115740E+03  0.79796614380E+02 0.  0.
        -11    1    5    5    0    0  0.28009181134E+02 -0.45498949231E+02  0.63834909491E+02  0.83244004461E+02  0.00000000000E+00 0.  1.
         12    1    5    5    0    0  0.73499893185E+00  0.31102496967E+02  0.59313012691E+02  0.66977152936E+02  0.00000000000E+00 0. -1.
         13    1    3    3    0    0 -0.19917969566E+00 -0.22342521351E+02 -0.18747899456E+03  0.18880572378E+03  0.00000000000E+00 0. -1.
        -14    1    3    3    0    0 -0.88273310206E+02  0.36038734815E+02 -0.38532666451E+03  0.39694786318E+03  0.00000000000E+00 0.  1.
          5    1    4    4  501    0  0.94046424112E+01  0.23026195975E+02 -0.20774472340E+03  0.20927014957E+03  0.41800000000E+01 0. -1.
         -5    1    4    4    0  501  0.50323667424E+02 -0.22325957174E+02 -0.22805580456E+02  0.59736812492E+02  0.41800000000E+01 0. -1.
</event>
<event>
11    1  0.1003949E-008  0.1725658E+03  0.7561462E-02  0.1075820E+00
         22   -1    0    0    0    0  0.00000000000E+00  0.00000000000E+00  0.37759088734E+03  0.37759088734E+03  0.00000000000E+00 0. -1.
         22   -1    0    0    0    0 -0.00000000000E+00 -0.00000000000E+00 -0.19619521492E+03  0.19619521492E+03  0.00000000000E+00 0. -1.
        -24    2    1    2    0    0  0.13869041488E+02  0.18013645787E+02 -0.10938153745E+03  0.13622429467E+03  0.77948033834E+02 0.  0.
         25    2    1    2    0    0  0.65181534646E+02 -0.10469422203E+03  0.10935076558E+03  0.20691429105E+03  0.12508565594E+03 0.  0.
         24    2    1    2    0    0 -0.79050576134E+02  0.86680576241E+02  0.18142644428E+03  0.23064751654E+03  0.80747794505E+02 0.  0.
        -13    1    5    5    0    0  0.16226697342E+01  0.23587286752E+01  0.67497267426E+02  0.67557958584E+02  0.00000000000E+00 0.  1.
         14    1    5    5    0    0 -0.80673245868E+02  0.84321847566E+02  0.11392917686E+03  0.16308955796E+03  0.00000000000E+00 0. -1.
         11    1    3    3    0    0  0.22857639611E+02  0.35581695019E+02 -0.24071908910E+02  0.48661951333E+02  0.00000000000E+00 0. -1.
        -12    1    3    3    0    0 -0.89885981225E+01 -0.17568049232E+02 -0.85309628536E+02  0.87562343339E+02  0.00000000000E+00 0.  1.
          5    1    4    4  501    0  0.78578068876E+02 -0.10848861231E+03  0.12659596142E+03  0.18435916510E+03  0.41800000000E+01 0.  1.
         -5    1    4    4    0  501 -0.13396534230E+02  0.37943902803E+01 -0.17245195840E+02  0.22555125948E+02  0.41800000000E+01 0.  1.
</event>
<event>
11    1  0.1003949E-008  0.1835668E+03  0.7561462E-02  0.1066794E+00
         22   -1    0    0    0    0  0.00000000000E+00  0.00000000000E+00  0.11273125071E+04  0.11273125071E+04  0.00000000000E+00 0. -1.
         22   -1    0    0    0    0 -0.00000000000E+00 -0.00000000000E+00 -0.78007509089E+03  0.78007509089E+03  0.00000000000E+00 0. -1.
        -24    2    1    2    0    0  0.95596424066E+01  0.28933217957E+02 -0.70895840661E+03  0.71435452236E+03  0.82169601732E+02 0.  0.
         25    2    1    2    0    0 -0.12213331826E+03 -0.98202952989E+02  0.99808526534E+02  0.22398629424E+03  0.12509096944E+03 0.  0.
         24    2    1    2    0    0  0.11257367585E+03  0.69269735032E+02  0.95638729628E+03  0.96904678139E+03  0.83089562192E+02 0.  0.
        -13    1    5    5    0    0  0.64887360718E+02  0.78731882921E+02  0.51642217602E+03  0.52640378309E+03  0.00000000000E+00 0.  1.
         14    1    5    5    0    0  0.47686315136E+02 -0.94621478895E+01  0.43996512026E+03  0.44264299829E+03  0.00000000000E+00 0. -1.
         13    1    3    3    0    0  0.32675106320E+02  0.47382341630E+02 -0.43068640690E+03  0.43451528162E+03  0.00000000000E+00 0. -1.
        -14    1    3    3    0    0 -0.23115463913E+02 -0.18449123674E+02 -0.27827199970E+03  0.27983924073E+03  0.00000000000E+00 0.  1.
          5    1    4    4  501    0 -0.47487006181E+02 -0.30543487374E+02  0.10890619677E+03  0.12274344167E+03  0.41800000000E+01 0.  1.
         -5    1    4    4    0  501 -0.74646312079E+02 -0.67659465614E+02 -0.90976702379E+01  0.10124285258E+03  0.41800000000E+01 0.  1.
</event>
<event>
11    1  0.1003949E-008  0.1372302E+03  0.7561462E-02  0.1110691E+00
         22   -1    0    0    0    0  0.00000000000E+00  0.00000000000E+00  0.81617878783E+03  0.81617878783E+03  0.00000000000E+00 0. -1.
         22   -1    0    0    0    0 -0.00000000000E+00 -0.00000000000E+00 -0.75862736416E+03  0.75862736416E+03  0.00000000000E+00 0.  1.
         24    2    1    2    0    0  0.76021807396E+01 -0.11720370747E+01 -0.45688375289E+03  0.46402650123E+03  0.80738239763E+02 0.  0.
         25    2    1    2    0    0 -0.26431177482E+02  0.54329173839E+02 -0.27849219327E+03  0.31121616674E+03  0.12508930593E+03 0.  0.
        -24    2    1    2    0    0  0.18828996742E+02 -0.53157136764E+02  0.79292736983E+03  0.79956348402E+03  0.85951956619E+02 0.  0.
        -13    1    3    3    0    0  0.38750851937E+02  0.19081493033E+02 -0.27679926544E+03  0.28014918391E+03  0.00000000000E+00 0.  1.
         14    1    3    3    0    0 -0.31148671197E+02 -0.20253530107E+02 -0.18008448746E+03  0.18387731731E+03  0.00000000000E+00 0. -1.
         11    1    5    5    0    0  0.37173830816E+02 -0.40805235301E+02  0.74188785378E+03  0.74393853813E+03  0.00000000000E+00 0. -1.
        -12    1    5    5    0    0 -0.18344834074E+02 -0.12351901463E+02  0.51039516047E+02  0.55624945890E+02  0.00000000000E+00 0.  1.
          5    1    4    4  501    0  0.16753151227E+02  0.78356869677E+02 -0.11396921453E+03  0.13938049133E+03  0.41800000000E+01 0.  1.
         -5    1    4    4    0  501 -0.43184328709E+02 -0.24027695838E+02 -0.16452297874E+03  0.17183567542E+03  0.41800000000E+01 0.  1.
</event>
<event>
11    1  0.1003949E-008  0.1488053E+03  0.7561462E-02  0.1098106E+00
         22   -1    0    0    0    0  0.00000000000E+00  0.00000000000E+00  0.64519518048E+03  0.64519518048E+03  0.00000000000E+00 0. -1.
         22   -1    0    0    0    0 -0.00000000000E+00 -0.00000000000E+00 -0.78962169532E+03  0.78962169532E+03  0.00000000000E+00 0.  1.
         24    2    1    2    0    0 -0.21869103083E+02 -0.76898092887E+02 -0.74475650494E+03  0.75337695963E+03  0.80765198556E+02 0.  0.
         25    2    1    2    0    0  0.73372143250E+02  0.96040733430E+02  0.18106650108E+03  0.25107971959E+03  0.12509457980E+03 0.  0.
        -24    2    1    2    0    0 -0.51503040167E+02 -0.19142640543E+02  0.41926348902E+03  0.43036019658E+03  0.80056366038E+02 0.  0.
        -13    1    3    3    0    0 -0.35843765991E+02 -0.77962799602E+02 -0.43946044108E+03  0.44775936948E+03  0.00000000000E+00 0.  1.
         14    1    3    3    0    0  0.13974662908E+02  0.10647067148E+01 -0.30529606385E+03  0.30561759015E+03  0.00000000000E+00 0. -1.
         13    1    5    5    0    0 -0.64838626184E+02 -0.22348976703E+02  0.40424434420E+03  0.41002074828E+03  0.00000000000E+00 0. -1.
        -14    1    5    5    0    0  0.13335586016E+02  0.32063361605E+01  0.15019144822E+02  0.20339448300E+02  0.00000000000E+00 0.  1.
          5    1    4    4  501    0  0.48918565243E+02  0.10741234977E+03  0.18881706006E+03  0.22271011086E+03  0.41800000000E+01 0. -1.
         -5    1    4    4    0  501  0.24453578007E+02 -0.11371616342E+02 -0.77505589737E+01  0.28369608739E+02  0.41800000000E+01 0. -1.
</event>
<event>
11    1  0.1003949E-008  0.1341770E+03  0.7561462E-02  0.1114241E+00
         22   -1    0    0    0    0  0.00000000000E+00  0.00000000000E+00  0.73873508970E+03  0.73873508970E+03  0.00000000000E+00 0.  1.
         22   -1    0    0    0    0 -0.00000000000E+00 -0.00000000000E+00 -0.58130834001E+03  0.58130834001E+03  0.00000000000E+00 0.  1.
         24    2    1    2    0    0  0.15762234767E+02  0.34802763049E+02 -0.32784121684E+03  0.34006791046E+03  0.81894077356E+02 0.  0.
         25    2    1    2    0    0  0.32630639033E+02 -0.40081154657E+02 -0.22558672096E+03  0.26307472279E+03  0.12509070122E+03 0.  0.
        -24    2    1    2    0    0 -0.48392873800E+02  0.52783916075E+01  0.71085468750E+03  0.71690079645E+03  0.79136802842E+02 0.  0.
        -11    1    3    3    0    0 -0.19577836569E+02 -0.17964193735E+02 -0.84734272323E+02  0.88802594823E+02  0.00000000000E+00 0.  1.
         12    1    3    3    0    0  0.35340071336E+02  0.52766956784E+02 -0.24310694452E+03  0.25126531564E+03  0.00000000000E+00 0. -1.
         13    1    5    5    0    0 -0.38441848622E+01 -0.38030639239E+00 -0.70391984203E+00  0.39265625362E+01  0.00000000000E+00 0. -1.
        -14    1    5    5    0    0 -0.44548688938E+02  0.56586979999E+01  0.71155860734E+03  0.71297423392E+03  0.00000000000E+00 0.  1.
          5    1    4    4  501    0  0.70412969404E+01 -0.82808780701E+02 -0.16271338737E+03  0.18275664928E+03  0.41800000000E+01 0. -1.
         -5    1    4    4    0  501  0.25589342093E+02  0.42727626045E+02 -0.62873333591E+02  0.80318073514E+02  0.41800000000E+01 0. -1.
</event>
<event>
11    1  0.1003949E-008  0.1276966E+03  0.7561462E-02  0.1122132E+00
         22   -1    0    0    0    0  0.00000000000E+00  0.00000000000E+00  0.22033468509E+04  0.22033468509E+04  0.00000000000E+00 0. -1.
         22   -1    0    0    0    0 -0.00000000000E+00 -0.00000000000E+00 -0.10113134874E+03  0.10113134874E+03  0.00000000000E+00 0. -1.
        -24    2    1    2    0    0 -0.19893450341E+02  0.48242164818E+01 -0.76412812798E+02  0.11359242654E+03  0.81518703237E+02 0.  0.
         25    2    1    2    0    0  0.31176594033E+02 -0.23946405065E+02  0.90293444053E+03  0.91240551696E+03  0.12509121935E+03 0.  0.
         24    2    1    2    0    0 -0.11283143692E+02  0.19122188583E+02  0.12756938745E+04  0.12784802562E+04  0.81387570668E+02 0.  0.
        -13    1    5    5    0    0 -0.21228282650E+02  0.44036999225E+02  0.51541060475E+03  0.51772385378E+03  0.00000000000E+00 0.  1.
         14    1    5    5    0    0  0.99451389581E+01 -0.24914810642E+02  0.76028326971E+03  0.76075640239E+03  0.00000000000E+00 0. -1.
         13    1    3    3    0    0 -0.29988206949E+02 -0.20263330925E+02 -0.78528479539E+02  0.86467434534E+02  0.00000000000E+00 0. -1.
        -14    1    3    3    0    0  0.10094756608E+02  0.25087547406E+02  0.21156667409E+01  0.27124992011E+02  0.00000000000E+00 0.  1.
          5    1    4    4  501    0 -0.44144308152E+02 -0.22997616564E+02  0.49836628456E+03  0.50086329102E+03  0.41800000000E+01 0.  1.
         -5    1    4    4    0  501  0.75320902185E+02 -0.94878850091E+00  0.40456815597E+03  0.41154222594E+03  0.41800000000E+01 0.  1.
</event>
<event>
11    1  0.1003949E-008  0.1650467E+03  0.7561462E-02  0.1082424E+00
         22   -1    0    0    0    0  0.00000000000E+00  0.00000000000E+00  0.32963128249E+04  0.32963128249E+04  0.00000000000E+00 0.  1.
         22   -1    0    0    0    0 -0.00000000000E+00 -0.00000000000E+00 -0.51701447652E+03  0.51701447652E+03  0.00000000000E+00 0. -1.
         24    2    1    2    0    0 -0.30238260185E+02 -0.10330757704E+03 -0.49282502297E+03  0.51004953178E+03  0.75413617787E+02 0.  0.
         25    2    1    2    0    0  0.32720196705E+02  0.10440215298E+03  0.44536435754E+03  0.47535937406E+03  0.12508678076E+03 0.  0.
        -24    2    1    2    0    0 -0.24819365198E+01 -0.10945759429E+01  0.28267590139E+04  0.28279183956E+04  0.80923246605E+02 0.  0.
        -13    1    3    3    0    0 -0.39559542688E+02 -0.14799985196E+02 -0.14585778642E+03  0.15185022502E+03  0.00000000000E+00 0.  1.
         14    1    3    3    0    0  0.93212825033E+01 -0.88507591846E+02 -0.34696723655E+03  0.35819930675E+03  0.00000000000E+00 0. -1.
         13    1    5    5    0    0 -0.72062408725E+01  0.36683195165E+02  0.88941808796E+03  0.89020341603E+03  0.00000000000E+00 0. -1.
        -14    1    5    5    0    0  0.47243043527E+01 -0.37777771108E+02  0.19373409259E+04  0.19377149796E+04  0.00000000000E+00 0.  1.
          5    1    4    4  501    0  0.74073276241E+02  0.64886822701E+02  0.19479907412E+03  0.21831468501E+03  0.41800000000E+01 0. -1.
         -5    1    4    4    0  501 -0.41353079536E+02  0.39515330284E+02  0.25056528342E+03  0.25704468905E+03  0.41800000000E+01 0. -1.
</event>
<event>
11    1  0.1003949E-008  0.1724326E+03  0.7561462E-02  0.1075934E+00
         22   -1    0    0    0    0  0.00000000000E+00  0.00000000000E+00  0.55787231812E+02  0.55787231812E+02  0.00000000000E+00 0.  1.
         22   -1    0    0    0    0 -0.00000000000E+00 -0.00000000000E+00 -0.25741752411E+04  0.25741752411E+04  0.00000000000E+00 0.  1.
        -24    2    1    2    0    0  0.95274097117E+02  0.11970469848E+02 -0.19266268270E+04  0.19306816805E+04  0.80127242532E+02 0.  0.
         25    2    1    2    0    0 -0.10752408109E+03  0.10451443959E+03 -0.48095301266E+03  0.51908446727E+03  0.12509271634E+03 0.  0.
         24    2    1    2    0    0  0.12249983970E+02 -0.11648490944E+03 -0.11080816956E+03  0.18019632511E+03  0.80457870407E+02 0.  0.
        -13    1    5    5    0    0  0.18074584851E+02 -0.11599920293E+03 -0.65346013368E+02  0.13435999093E+03  0.00000000000E+00 0.  1.
         14    1    5    5    0    0 -0.58246008812E+01 -0.48570650109E+00 -0.45462156189E+02  0.45836334186E+02  0.00000000000E+00 0. -1.
         13    1    3    3    0    0  0.27278879142E+02 -0.27488940119E+02 -0.99152402402E+03  0.99228003572E+03  0.00000000000E+00 0. -1.
        -14    1    3    3    0    0  0.67995217975E+02  0.39459409967E+02 -0.93510280302E+03  0.93840164477E+03  0.00000000000E+00 0.  1.
          5    1    4    4  501    0 -0.74873121391E+02  0.13177787624E+03 -0.39475074794E+03  0.42286761329E+03  0.41800000000E+01 0. -1.
         -5    1    4    4    0  501 -0.32650959697E+02 -0.27263436649E+02 -0.86202264722E+02  0.96216853982E+02  0.41800000000E+01 0. -1.
</event>
<event>
11    1  0.1003949E-008  0.1313224E+03  0.7561462E-02  0.1117655E+00
         22   -1    0    0    0    0  0.00000000000E+00  0.00000000000E+00  0.23215128164E+03  0.23215128164E+03  0.00000000000E+00 0.  1.
         22   -1    0    0    0    0 -0.00000000000E+00 -0.00000000000E+00 -0.87487321302E+03  0.87487321302E+03  0.00000000000E+00 0. -1.
        -24    2    1    2    0    0  0.38988827648E+02 -0.66933790319E+01 -0.78794559498E+03  0.79311832708E+03  0.81323367501E+02 0.  0.
         25    2    1    2    0    0 -0.49163001755E+02  0.29359291948E+01 -0.11539032702E+02  0.13494190458E+03  0.12510214992E+03 0.  0.
         24    2    1    2    0    0  0.10174174107E+02  0.37574498371E+01  0.15676269630E+03  0.17896426300E+03  0.85650640586E+02 0.  0.
        -11    1    5    5    0    0  0.16776416503E+02 -0.22891975984E+02  0.14716997041E+03  0.14988158962E+03  0.00000000000E+00 0.  1.
         12    1    5    5    0    0 -0.66022423962E+01  0.26649425821E+02  0.95927258874E+01  0.29082673385E+02  0.00000000000E+00 0. -1.
         13    1    3    3    0    0  0.57716463966E+02 -0.21695893348E+02 -0.66503347097E+03  0.66788578329E+03  0.00000000000E+00 0. -1.
        -14    1    3    3    0    0 -0.18727636318E+02  0.15002514316E+02 -0.12291212400E+03  0.12523254379E+03  0.00000000000E+00 0.  1.
          5    1    4    4  501    0 -0.48634444482E+02  0.59398963755E+02  0.12592438295E+01  0.76893459931E+02  0.41800000000E+01 0. -1.
         -5    1    4    4    0  501 -0.52855727314E+00 -0.56463034560E+02 -0.12798276531E+02  0.58048444653E+02  0.41800000000E+01 0. -1.
</event>
<event>
11    1  0.1003949E-008  0.1280834E+03  0.7561462E-02  0.1121647E+00
         22   -1    0    0    0    0  0.00000000000E+00  0.00000000000E+00  0.22486667562E+03  0.22486667562E+03  0.00000000000E+00 0. -1.
         22   -1    0    0    0    0 -0.00000000000E+00 -0.00000000000E+00 -0.45423249883E+03  0.45423249883E+03  0.00000000000E+00 0. -1.
        -24    2    1    2    0    0 -0.18108604360E+02  0.28699984820E+02 -0.25007834418E+03  0.26623968513E+03  0.84810264857E+02 0.  0.
         25    2    1    2    0    0  0.25602938040E+01 -0.11303127035E+02 -0.16610937590E+03  0.20825802460E+03  0.12507903206E+03 0.  0.
         24    2    1    2    0    0  0.15548310556E+02 -0.17396857786E+02  0.18682189687E+03  0.20460146474E+03  0.80093305586E+02 0.  0.
        -11    1    5    5    0    0 -0.20666376701E+02 -0.36704775258E+02  0.86557110164E+02  0.96262521121E+02  0.00000000000E+00 0.  1.
         12    1    5    5    0    0  0.36214687256E+02  0.19307917472E+02  0.10026478671E+03  0.10833894362E+03  0.00000000000E+00 0. -1.
         11    1    3    3    0    0 -0.16285585406E+02  0.17128669994E+00 -0.23166294649E+03  0.23223473127E+03  0.00000000000E+00 0. -1.
        -12    1    3    3    0    0 -0.18230189537E+01  0.28528698120E+02 -0.18415397695E+02  0.34004953857E+02  0.00000000000E+00 0.  1.
          5    1    4    4  501    0  0.27635181861E+02 -0.11106780468E+02 -0.17776533730E+03  0.18029157328E+03  0.41800000000E+01 0. -1.
         -5    1    4    4    0  501 -0.25074888057E+02 -0.19634656664E+00  0.11655961404E+02  0.27966451318E+02  0.41800000000E+01 0. -1.
</event>
<event>
11    1  0.1003949E-008  0.1988829E+03  0.7561462E-02  0.1055316E+00
         22   -1    0    0    0    0  0.00000000000E+00  0.00000000000E+00  0.61644193547E+02  0.61644193547E+02  0.00000000000E+00 0.  1.
         22   -1    0    0    0    0 -0.00000000000E+00 -0.00000000000E+00 -0.19825679424E+04  0.19825679424E+04  0.00000000000E+00 0.  1.
        -24    2    1    2    0    0  0.80655123106E+00 -0.15677820045E+03 -0.16705278958E+04  0.16798875421E+04  0.82332551821E+02 0.  0.
         25    2    1    2    0    0  0.10284612452E+02  0.13552210133E+03 -0.16515795284E+03  0.24778531395E+03  0.12509356187E+03 0.  0.
         24    2    1    2    0    0 -0.11091163683E+02  0.21256099117E+02 -0.85237900282E+02  0.11653927987E+03  0.75769838641E+02 0.  0.
        -13    1    5    5    0    0 -0.39707099706E+02 -0.25741012381E+01 -0.29615536428E+02  0.49602013691E+02  0.00000000000E+00 0.  1.
         14    1    5    5    0    0  0.28615936024E+02  0.23830200356E+02 -0.55622363854E+02  0.66937266184E+02  0.00000000000E+00 0. -1.
         11    1    3    3    0    0  0.44293176584E+01 -0.24409193847E+02 -0.77684736975E+02  0.81549653329E+02  0.00000000000E+00 0. -1.
        -12    1    3    3    0    0 -0.36227664273E+01 -0.13236900660E+03 -0.15928431588E+04  0.15983378888E+04  0.00000000000E+00 0.  1.
          5    1    4    4  501    0  0.23742750754E+02  0.69717041668E+02 -0.16472350289E+03  0.18048681092E+03  0.41800000000E+01 0.  1.
         -5    1    4    4    0  501 -0.13458138303E+02  0.65805059666E+02 -0.43444995627E+00  0.67298503037E+02  0.41800000000E+01 0.  1.
</event>
<event>
11    1  0.1003949E-008  0.1346597E+03  0.7561462E-02  0.1113673E+00
         22   -1    0    0    0    0  0.00000000000E+00  0.00000000000E+00  0.98932478209E+03  0.98932478209E+03  0.00000000000E+00 0.  1.
         22   -1    0    0    0    0 -0.00000000000E+00 -0.00000000000E+00 -0.10252559056E+03  0.10252559056E+03  0.00000000000E+00 0. -1.
        -24    2    1    2    0    0 -0.90840895679E+01 -0.12482398804E+02 -0.65105146350E+02  0.10450426996E+03  0.80275347373E+02 0.  0.
         25    2    1    2    0    0  0.13718799175E+01  0.59590703680E+02  0.32100402464E+03  0.34963287045E+03  0.12508647509E+03 0.  0.
         24    2    1    2    0    0  0.77122096504E+01 -0.47108304876E+02  0.63090031324E+03  0.63771323224E+03  0.79776505048E+02 0.  0.
        -13    1    5    5    0    0  0.97129311485E+01 -0.48958084686E+02  0.63255778723E+03  0.63452390756E+03  0.00000000000E+00 0.  1.
         14    1    5    5    0    0 -0.20007214982E+01  0.18497798100E+01 -0.16574739869E+01  0.31893246740E+01  0.00000000000E+00 0. -1.
         13    1    3    3    0    0  0.19491874527E+02 -0.26269127631E+02 -0.65010609427E+02  0.72776229479E+02  0.00000000000E+00 0. -1.
        -14    1    3    3    0    0 -0.28575964095E+02  0.13786728827E+02 -0.94536922862E-01  0.31728040483E+02  0.00000000000E+00 0.  1.
          5    1    4    4  501    0 -0.54573908608E+02  0.61233304398E+02  0.17913410565E+03  0.19706427702E+03  0.41800000000E+01 0.  1.
         -5    1    4    4    0  501  0.55945788526E+02 -0.16426007174E+01  0.14186991898E+03  0.15256859344E+03  0.41800000000E+01 0.  1.
</event>
<event>
11    1  0.1003949E-008  0.2169212E+03  0.7561462E-02  0.1043163E+00
         22   -1    0    0    0    0  0.00000000000E+00  0.00000000000E+00  0.14676557883E+03  0.14676557883E+03  0.00000000000E+00 0. -1.
         22   -1    0    0    0    0 -0.00000000000E+00 -0.00000000000E+00 -0.21973595182E+04  0.21973595182E+04  0.00000000000E+00 0. -1.
         24    2    1    2    0    0 -0.37135692510E+02 -0.93308125793E+02 -0.12934402197E+04  0.12997202215E+04  0.78737451661E+02 0.  0.
         25    2    1    2    0    0 -0.10802121904E+03 -0.20376007791E+02 -0.81762249785E+03  0.83440799583E+03  0.12508552697E+03 0.  0.
        -24    2    1    2    0    0  0.14515691155E+03  0.11368413358E+03  0.60468778201E+02  0.20999687967E+03  0.80296980843E+02 0.  0.
        -13    1    3    3    0    0 -0.47084107654E+02 -0.54521196325E+02 -0.48833410136E+03  0.49361895080E+03  0.00000000000E+00 0.  1.
         14    1    3    3    0    0  0.99484151433E+01 -0.38786929469E+02 -0.80510611832E+03  0.80610127069E+03  0.00000000000E+00 0. -1.
         11    1    5    5    0    0  0.12587783889E+03  0.11972570963E+03  0.70448139659E+02  0.18746310637E+03  0.00000000000E+00 0. -1.
        -12    1    5    5    0    0  0.19279072664E+02 -0.60415760427E+01 -0.99793614574E+01  0.22533773296E+02  0.00000000000E+00 0.  1.
          5    1    4    4  501    0 -0.63292878342E+02 -0.41957900393E+02 -0.72715105868E+03  0.73111735610E+03  0.41800000000E+01 0. -1.
         -5    1    4    4    0  501 -0.44728340698E+02  0.21581892602E+02 -0.90471439177E+02  0.10329063973E+03  0.41800000000E+01 0. -1.
</event>
<event>
11    1  0.1003949E-008  0.1684888E+03  0.7561462E-02  0.1079354E+00
         22   -1    0    0    0    0  0.00000000000E+00  0.00000000000E+00  0.14506020413E+03  0.14506020413E+03  0.00000000000E+00 0. -1.
         22   -1    0    0    0    0 -0.00000000000E+00 -0.00000000000E+00 -0.11963238024E+04  0.11963238024E+04  0.00000000000E+00 0. -1.
         24    2    1    2    0    0 -0.86541651786E+02 -0.40595087679E+02 -0.72428496771E+03  0.73536302717E+03  0.83860888664E+02 0.  0.
         25    2    1    2    0    0  0.18739513306E+03  0.54730151699E+01 -0.39619147398E+03  0.45580836836E+03  0.12508674919E+03 0.  0.
        -24    2    1    2    0    0 -0.10085348127E+03  0.35122072509E+02  0.69212843413E+02  0.15021261099E+03  0.79802419427E+02 0.  0.
        -11    1    3    3    0    0 -0.15549120763E+02 -0.41156078625E+02 -0.13921533435E+03  0.14600173726E+03  0.00000000000E+00 0.  1.
         12    1    3    3    0    0 -0.70992531023E+02  0.56099094570E+00 -0.58506963336E+03  0.58936128992E+03  0.00000000000E+00 0. -1.
         13    1    5    5    0    0 -0.81562089006E+02  0.52082300987E+02  0.26440113462E+02  0.10031958951E+03  0.00000000000E+00 0. -1.
        -14    1    5    5    0    0 -0.19291392266E+02 -0.16960228478E+02  0.42772729950E+02  0.49893021486E+02  0.00000000000E+00 0.  1.
          5    1    4    4  501    0  0.16270454629E+03  0.13387476610E+02 -0.20156723517E+03  0.25942015459E+03  0.41800000000E+01 0. -1.
         -5    1    4    4    0  501  0.24690586766E+02 -0.79144614405E+01 -0.19462423881E+03  0.19638821377E+03  0.41800000000E+01 0. -1.
</event>
<event>
11    1  0.1003949E-008  0.1473312E+03  0.7561462E-02  0.1099637E+00
         22   -1    0    0    0    0  0.00000000000E+00  0.00000000000E+00  0.56955631633E+03  0.56955631633E+03  0.00000000000E+00 0.  1.
         22   -1    0    0    0    0 -0.00000000000E+00 -0.00000000000E+00 -0.13734005941E+04  0.13734005941E+04  0.00000000000E+00 0.  1.
        -24    2    1    2    0    0  0.31960785987E+02  0.15536778645E+02 -0.12192205832E+04  0.12223808545E+04  0.80332058044E+02 0.  0.
         25    2    1    2    0    0 -0.61308530759E+02 -0.86497174283E+02 -0.10073014189E+03  0.19244239871E+03  0.12508804193E+03 0.  0.
         24    2    1    2    0    0  0.29347744772E+02  0.70960395638E+02  0.51610644740E+03  0.52813365718E+03  0.81624916105E+02 0.  0.
        -11    1    5    5    0    0  0.63786706785E+01  0.77288083752E+02  0.46875090031E+03  0.47512265981E+03  0.00000000000E+00 0.  1.
         12    1    5    5    0    0  0.22969074094E+02 -0.63276881141E+01  0.47355547091E+02  0.53010997368E+02  0.00000000000E+00 0. -1.
         11    1    3    3    0    0 -0.17754496389E+02 -0.13788449016E+02 -0.15793378732E+03  0.15952562379E+03  0.00000000000E+00 0. -1.
        -12    1    3    3    0    0  0.49715282376E+02  0.29325227661E+02 -0.10612867959E+04  0.10628552307E+04  0.00000000000E+00 0.  1.
          5    1    4    4  501    0 -0.65023678568E+02 -0.27043735933E+02 -0.11132302317E+03  0.13179427269E+03  0.41800000000E+01 0.  1.
         -5    1    4    4    0  501  0.37151478088E+01 -0.59453438350E+02  0.10592881282E+02  0.60648126012E+02  0.41800000000E+01 0.  1.
</event>
<event>
11    1  0.1003949E-008  0.1458318E+03  0.7561462E-02  0.1101216E+00
         22   -1    0    0    0    0  0.00000000000E+00  0.00000000000E+00  0.30108110643E+03  0.30108110643E+03  0.00000000000E+00 0.  1.
         22   -1    0    0    0    0 -0.00000000000E+00 -0.00000000000E+00 -0.19992070390E+03  0.19992070390E+03  0.00000000000E+00 0. -1.
         24    2    1    2    0    0  0.43201360179E+02 -0.34031396294E+02 -0.98356649246E+02  0.13774189002E+03  0.79210506628E+02 0.  0.
         25    2    1    2    0    0 -0.10957331265E+03  0.33697507550E+02  0.42874195250E+02  0.17500289422E+03  0.12508390587E+03 0.  0.
        -24    2    1    2    0    0  0.66371952471E+02  0.33388874410E+00  0.15664285653E+03  0.18825702609E+03  0.80612504066E+02 0.  0.
        -11    1    3    3    0    0  0.35644698822E+01  0.21371722955E+02 -0.49128813493E+02  0.53694471809E+02  0.00000000000E+00 0.  1.
         12    1    3    3    0    0  0.39636890297E+02 -0.55403119249E+02 -0.49227835752E+02  0.84047418210E+02  0.00000000000E+00 0. -1.
         11    1    5    5    0    0  0.61484957815E+01  0.14020275759E+02 -0.42749155478E+01  0.15894874509E+02  0.00000000000E+00 0. -1.
        -12    1    5    5    0    0  0.60223456689E+02 -0.13686387015E+02  0.16091777208E+03  0.17236215158E+03  0.00000000000E+00 0.  1.
          5    1    4    4  501    0 -0.34391640640E+02 -0.19659545804E+02  0.68486557249E+02  0.79228553003E+02  0.41800000000E+01 0. -1.
         -5    1    4    4    0  501 -0.75181672010E+02  0.53357053354E+02 -0.25612361999E+02  0.95774341219E+02  0.41800000000E+01 0. -1.
</event>
<event>
11    1  0.1003949E-008  0.1379861E+03  0.7561462E-02  0.1109828E+00
         22   -1    0    0    0    0  0.00000000000E+00  0.00000000000E+00  0.39060176338E+03  0.39060176338E+03  0.00000000000E+00 0. -1.
         22   -1    0    0    0    0 -0.00000000000E+00 -0.00000000000E+00 -0.94321587648E+03  0.94321587648E+03  0.00000000000E+00 0. -1.
        -24    2    1    2    0    0  0.53098694499E+02 -0.97507188869E+01 -0.87996658464E+03  0.88512069726E+03  0.78631487098E+02 0.  0.
         25    2    1    2    0    0 -0.50102223456E+02  0.66331316098E+02  0.57608739330E+02  0.16086277468E+03  0.12509192276E+03 0.  0.
         24    2    1    2    0    0 -0.29964710431E+01 -0.56580597211E+02  0.26974373221E+03  0.28783416792E+03  0.82924570178E+02 0.  0.
        -13    1    5    5    0    0  0.47559671630E+01  0.19233696455E+02  0.27559968243E+02  0.33942689235E+02  0.00000000000E+00 0.  1.
         14    1    5    5    0    0 -0.77524382061E+01 -0.75814293666E+02  0.24218376396E+03  0.25389147869E+03  0.00000000000E+00 0. -1.
         11    1    3    3    0    0  0.74156184280E+01  0.15250832683E+01 -0.66592524641E+03  0.66596828084E+03  0.00000000000E+00 0. -1.
        -12    1    3    3    0    0  0.45683076071E+02 -0.11275802155E+02 -0.21404133823E+03  0.21915241643E+03  0.00000000000E+00 0.  1.
          5    1    4    4  501    0  0.81913934200E+01  0.67886136810E+02  0.73300316404E+02  0.10032963312E+03  0.41800000000E+01 0.  1.
         -5    1    4    4    0  501 -0.58293616876E+02 -0.15548207123E+01 -0.15691577074E+02  0.60533141559E+02  0.41800000000E+01 0.  1.
</event>
<event>
11    1  0.1003949E-008  0.2202244E+03  0.7561462E-02  0.1041077E+00
         22   -1    0    0    0    0  0.00000000000E+00  0.00000000000E+00  0.67878905871E+03  0.67878905871E+03  0.00000000000E+00 0.  1.
         22   -1    0    0    0    0 -0.00000000000E+00 -0.00000000000E+00 -0.35212709313E+03  0.35212709313E+03  0.00000000000E+00 0.  1.
         24    2    1    2    0    0  0.32466163604E+02 -0.11904051431E+02 -0.24374498416E+03  0.25922649893E+03  0.81184987703E+02 0.  0.
         25    2    1    2    0    0  0.14121357964E+03  0.78672021445E+02  0.45866205325E+02  0.20947933926E+03  0.12508925915E+03 0.  0.
        -24    2    1    2    0    0 -0.17367974324E+03 -0.66767970014E+02  0.52454074441E+03  0.56221031365E+03  0.79465899582E+02 0.  0.
        -13    1    3    3    0    0  0.22939033616E+02  0.32692058969E+02 -0.82518198346E+02  0.91674549582E+02  0.00000000000E+00 0.  1.
         14    1    3    3    0    0  0.95271299882E+01 -0.44596110400E+02 -0.16122678581E+03  0.16755194935E+03  0.00000000000E+00 0. -1.
         11    1    5    5    0    0 -0.39073755247E+01  0.96490595046E+00  0.98902117465E+02  0.98983975804E+02  0.00000000000E+00 0. -1.
        -12    1    5    5    0    0 -0.16977236772E+03 -0.67732875965E+02  0.42563862694E+03  0.46322633784E+03  0.00000000000E+00 0.  1.
          5    1    4    4  501    0  0.94960791621E+02  0.40916612967E+02  0.88360338602E+02  0.13607623966E+03  0.41800000000E+01 0.  1.
         -5    1    4    4    0  501  0.46252788015E+02  0.37755408478E+02 -0.42494133277E+02  0.73403099604E+02  0.41800000000E+01 0.  1.
</event>
<event>
11    1  0.1003949E-008  0.1488689E+03  0.7561462E-02  0.1098040E+00
         22   -1    0    0    0    0  0.00000000000E+00  0.00000000000E+00  0.74299879528E+03  0.74299879528E+03  0.00000000000E+00 0.  1.
         22   -1    0    0    0    0 -0.00000000000E+00 -0.00000000000E+00 -0.27522872464E+03  0.27522872464E+03  0.00000000000E+00 0.  1.
        -24    2    1    2    0    0 -0.59650703174E+02  0.52845759469E+02 -0.23587991048E+03  0.26168377437E+03  0.80549270125E+02 0.  0.
         25    2    1    2    0    0  0.54440849267E+02 -0.10935171265E+03  0.39479931972E+03  0.43178031469E+03  0.12508450813E+03 0.  0.
         24    2    1    2    0    0  0.52098539074E+01  0.56505953184E+02  0.30885066140E+03  0.32476343086E+03  0.82840145176E+02 0.  0.
        -11    1    5    5    0    0 -0.14665068168E+02  0.50795676395E+02  0.29540181911E+03  0.30009581753E+03  0.00000000000E+00 0.  1.
         12    1    5    5    0    0  0.19874922075E+02  0.57102767890E+01  0.13448842293E+02  0.24667613332E+02  0.00000000000E+00 0. -1.
         11    1    3    3    0    0  0.17193012752E+02  0.28182406412E+01 -0.70129031283E+02  0.72260799861E+02  0.00000000000E+00 0. -1.
        -12    1    3    3    0    0 -0.76843715926E+02  0.50027518828E+02 -0.16575087919E+03  0.18942297451E+03  0.00000000000E+00 0.  1.
          5    1    4    4  501    0  0.86117065086E+02 -0.34610669588E+02  0.22897941099E+03  0.24710947049E+03  0.41800000000E+01 0.  1.
         -5    1    4    4    0  501 -0.31676215819E+02 -0.74741043065E+02  0.16581990872E+03  0.18467084420E+03  0.41800000000E+01 0.  1.
</event>
<event>
11    1  0.1003949E-008  0.1450619E+03  0.7561462E-02  0.1102034E+00
         22   -1    0    0    0    0  0.00000000000E+00  0.00000000000E+00  0.65537226294E+03  0.65537226294E+03  0.00000000000E+00 0.  1.
         22   -1    0    0    0    0 -0.00000000000E+00 -0.00000000000E+00 -0.10420437046E+03  0.10420437046E+03  0.00000000000E+00 0.  1.
        -24    2    1    2    0    0  0.40598280278E+02  0.21767177135E+02 -0.44479913038E+02  0.10224210111E+03  0.79705421485E+02 0.  0.
         25    2    1    2    0    0  0.33989626942E+02  0.19380579875E+02  0.16376725014E+03  0.20975433400E+03  0.12508503826E+03 0.  0.
         24    2    1    2    0    0 -0.74587907220E+02 -0.41147757010E+02  0.43188055537E+03  0.44758019828E+03  0.80936555227E+02 0.  0.
        -11    1    5    5    0    0 -0.49006622153E+02 -0.33406206276E+02  0.40622686957E+03  0.41053366877E+03  0.00000000000E+00 0.  1.
         12    1    5    5    0    0 -0.25581285067E+02 -0.77415507342E+01  0.25653685802E+02  0.37046529509E+02  0.00000000000E+00 0. -1.
         13    1    3    3    0    0 -0.95072322284E+01 -0.19451607261E+02  0.29810443805E+01  0.21854956309E+02  0.00000000000E+00 0. -1.
        -14    1    3    3    0    0  0.50105512506E+02  0.41218784395E+02 -0.47460957418E+02  0.80387144803E+02  0.00000000000E+00 0.  1.
          5    1    4    4  501    0 -0.76944347774E+01  0.53313779316E+02  0.22457355970E+02  0.58509560148E+02  0.41800000000E+01 0. -1.
         -5    1    4    4    0  501  0.41684061720E+02 -0.33933199441E+02  0.14130989417E+03  0.15124477385E+03  0.41800000000E+01 0. -1.
</event>
<event>
11    1  0.1003949E-008  0.1348166E+03  0.7561462E-02  0.1113489E+00
         22   -1    0    0    0    0  0.00000000000E+00  0.00000000000E+00  0.37631055761E+03  0.37631055761E+03  0.00000000000E+00 0. -1.
         22   -1    0    0    0    0 -0.00000000000E+00 -0.00000000000E+00 -0.58161601589E+03  0.58161601589E+03  0.00000000000E+00 0. -1.
        -24    2    1    2    0    0  0.39887652279E+02  0.19349445647E+02 -0.45527763196E+03  0.46452582728E+03  0.80877043693E+02 0.  0.
         25    2    1    2    0    0 -0.48157808736E+02 -0.67306830904E+02 -0.65188922947E+02  0.16354561574E+03  0.12509272051E+03 0.  0.
         24    2    1    2    0    0  0.82701564571E+01  0.47957385257E+02  0.31516109662E+03  0.32985513048E+03  0.84318349079E+02 0.  0.
        -13    1    5    5    0    0  0.29401279045E+01  0.29350052803E+02  0.23934208961E+02  0.37985738248E+02  0.00000000000E+00 0.  1.
         14    1    5    5    0    0  0.53300285526E+01  0.18607332455E+02  0.29122688766E+03  0.29186939223E+03  0.00000000000E+00 0. -1.
         11    1    3    3    0    0  0.40610895570E+02 -0.16466354230E+02 -0.36137062838E+03  0.36401801702E+03  0.00000000000E+00 0. -1.
        -12    1    3    3    0    0 -0.72324329026E+00  0.35815799877E+02 -0.93907003577E+02  0.10050781026E+03  0.00000000000E+00 0.  1.
          5    1    4    4  501    0 -0.35185306644E+02 -0.70212353685E+02 -0.99315177907E+02  0.12668369025E+03  0.41800000000E+01 0.  1.
         -5    1    4    4    0  501 -0.12972502093E+02  0.29055227809E+01  0.34126254959E+02  0.36861925489E+02  0.41800000000E+01 0.  1.
</event>
<event>
11    1  0.1003949E-008  0.1748450E+03  0.7561462E-02  0.1073891E+00
         22   -1    0    0    0    0  0.00000000000E+00  0.00000000000E+00  0.19763897576E+04  0.19763897576E+04  0.00000000000E+00 0. -1.
         22   -1    0    0    0    0 -0.00000000000E+00 -0.00000000000E+00 -0.13644868376E+04  0.13644868376E+04  0.00000000000E+00 0.  1.
         24    2    1    2    0    0 -0.42039096644E+01 -0.29190240126E+02 -0.13384972219E+04  0.13411449455E+04  0.78899991863E+02 0.  0.
         25    2    1    2    0    0 -0.50968799464E+02  0.13456306234E+03  0.40391386084E+03  0.44665331430E+03  0.12509092663E+03 0.  0.
        -24    2    1    2    0    0  0.55172709128E+02 -0.10537282221E+03  0.15464862811E+04  0.15530783355E+04  0.79278238363E+02 0.  0.
        -13    1    3    3    0    0 -0.82358518681E+01  0.20568775023E+02 -0.15288088775E+03  0.15447805540E+03  0.00000000000E+00 0.  1.
         14    1    3    3    0    0  0.40319422037E+01 -0.49759015150E+02 -0.11856163342E+04  0.11866668901E+04  0.00000000000E+00 0. -1.
         11    1    5    5    0    0 -0.14625752131E+02 -0.49405441109E+02  0.69409052166E+03  0.69600033226E+03  0.00000000000E+00 0. -1.
        -12    1    5    5    0    0  0.69798461259E+02 -0.55967381104E+02  0.85239575943E+03  0.85707800324E+03  0.00000000000E+00 0.  1.
          5    1    4    4  501    0  0.30049077058E+02  0.42628821566E+02  0.21622179827E+03  0.22246236065E+03  0.41800000000E+01 0.  1.
         -5    1    4    4    0  501 -0.81017876522E+02  0.91934240774E+02  0.18769206258E+03  0.22419095365E+03  0.41800000000E+01 0.  1.
</event>
<event>
11    1  0.1003949E-008  0.1301300E+03  0.7561462E-02  0.1119109E+00
         22   -1    0    0    0    0  0.00000000000E+00  0.00000000000E+00  0.21494277287E+03  0.21494277287E+03  0.00000000000E+00 0. -1.
         22   -1    0    0    0    0 -0.00000000000E+00 -0.00000000000E+00 -0.56559702384E+03  0.56559702384E+03  0.00000000000E+00 0. -1.
        -24    2    1    2    0    0  0.14210260895E+02 -0.37241946073E+02 -0.47326016709E+03  0.48364652488E+03  0.91377684428E+02 0.  0.
         25    2    1    2    0    0  0.66693201289E+01 -0.30626560782E+01 -0.20473973186E+02  0.12696927288E+03  0.12509257765E+03 0.  0.
         24    2    1    2    0    0 -0.20879581024E+02  0.40304602152E+02  0.14307988931E+03  0.16992399896E+03  0.79636002152E+02 0.  0.
        -13    1    5    5    0    0 -0.46131618023E+02  0.37518513770E+02  0.66341819955E+02  0.89089854259E+02  0.00000000000E+00 0.  1.
         14    1    5    5    0    0  0.25252036999E+02  0.27860883817E+01  0.76738069351E+02  0.80834144696E+02  0.00000000000E+00 0. -1.
         11    1    3    3    0    0  0.30083863874E+02 -0.22412913120E+02 -0.45095040926E+03  0.45250817578E+03  0.00000000000E+00 0. -1.
        -12    1    3    3    0    0 -0.15873602979E+02 -0.14829032953E+02 -0.22309757828E+02  0.31138349093E+02  0.00000000000E+00 0.  1.
          5    1    4    4  501    0 -0.19831645982E+02  0.47509448516E+02 -0.41214827806E+02  0.66080074997E+02  0.41800000000E+01 0. -1.
         -5    1    4    4    0  501  0.26500966111E+02 -0.50572104594E+02  0.20740854620E+02  0.60889197878E+02  0.41800000000E+01 0. -1.
</event>
<event>
11    1  0.1003949E-008  0.3700478E+03  0.7561462E-02  0.9742516E-01
         22   -1    0    0    0    0  0.00000000000E+00  0.00000000000E+00  0.19609301401E+04  0.19609301401E+04  0.00000000000E+00 0.  1.
         22   -1    0    0    0    0 -0.00000000000E+00 -0.00000000000E+00 -0.25719565172E+04  0.25719565172E+04  0.00000000000E+00 0.  1.
         24    2    1    2    0    0 -0.47960229578E+02  0.34655893170E+02 -0.14857595445E+04  0.14890916291E+04  0.80070225988E+02 0.  0.
         25    2    1    2    0    0  0.25962196948E+03  0.24187460687E+03 -0.10347725314E+04  0.11010487930E+04  0.12508940917E+03 0.  0.
        -24    2    1    2    0    0 -0.21166173990E+03 -0.27653050004E+03  0.19095056988E+04  0.19427462353E+04  0.82347504271E+02 0.  0.
        -11    1    3    3    0    0 -0.57734709143E+02  0.24949935864E+02 -0.14382731821E+04  0.14396477146E+04  0.00000000000E+00 0.  1.
         12    1    3    3    0    0  0.97744795652E+01  0.97059573065E+01 -0.47486362451E+02  0.49443914457E+02  0.00000000000E+00 0. -1.
         13    1    5    5    0    0 -0.14236817312E+03 -0.17519056256E+03  0.10112722327E+04  0.10361621294E+04  0.00000000000E+00 0. -1.
        -14    1    5    5    0    0 -0.69293566788E+02 -0.10133993748E+03  0.89823346611E+03  0.90658410585E+03  0.00000000000E+00 0.  1.
          5    1    4    4  501    0  0.10868433670E+03  0.17113635886E+03 -0.66914846463E+03  0.69919745315E+03  0.41800000000E+01 0.  1.
         -5    1    4    4    0  501  0.15093763278E+03  0.70738248012E+02 -0.36562406675E+03  0.40185133981E+03  0.41800000000E+01 0.  1.
</event>
<event>
11    1  0.1003949E-008  0.1785808E+03  0.7561462E-02  0.1070797E+00
         22   -1    0    0    0    0  0.00000000000E+00  0.00000000000E+00  0.80994102652E+03  0.80994102652E+03  0.00000000000E+00 0.  1.
         22   -1    0    0    0    0 -0.00000000000E+00 -0.00000000000E+00 -0.16779933122E+03  0.16779933122E+03  0.00000000000E+00 0. -1.
        -24    2    1    2    0    0  0.46046506017E+02 -0.11813224710E+03 -0.10262032739E+03  0.18202118525E+03  0.80779154267E+02 0.  0.
         25    2    1    2    0    0 -0.97684678216E+01  0.14123852061E+03  0.46928801899E+03  0.50588597988E+03  0.12508252156E+03 0.  0.
         24    2    1    2    0    0 -0.36278038196E+02 -0.23106273510E+02  0.27547400370E+03  0.28983319262E+03  0.79166640038E+02 0.  0.
        -11    1    5    5    0    0  0.21784395890E+02 -0.17155960660E+02  0.52817918802E+02  0.59654165295E+02  0.00000000000E+00 0.  1.
         12    1    5    5    0    0 -0.58062434086E+02 -0.59503128507E+01  0.22265608490E+03  0.23017902732E+03  0.00000000000E+00 0. -1.
         13    1    3    3    0    0  0.54746823854E+02 -0.62462208275E+02 -0.93291843865E+02  0.12490840771E+03  0.00000000000E+00 0. -1.
        -14    1    3    3    0    0 -0.87003178370E+01 -0.55670038824E+02 -0.93284835231E+01  0.57112777537E+02  0.00000000000E+00 0.  1.
          5    1    4    4  501    0  0.10237981962E+02  0.87382535669E+02  0.42276109470E+03  0.43183902024E+03  0.41800000000E+01 0. -1.
         -5    1    4    4    0  501 -0.20006449783E+02  0.53855984940E+02  0.46526924293E+02  0.74046959633E+02  0.41800000000E+01 0. -1.
</event>
<event>
11    1  0.1003949E-008  0.1915255E+03  0.7561462E-02  0.1060684E+00
         22   -1    0    0    0    0  0.00000000000E+00  0.00000000000E+00  0.31186768704E+03  0.31186768704E+03  0.00000000000E+00 0.  1.
         22   -1    0    0    0    0 -0.00000000000E+00 -0.00000000000E+00 -0.35905795837E+03  0.35905795837E+03  0.00000000000E+00 0.  1.
        -24    2    1    2    0    0  0.14793842312E+03  0.27876440128E+02 -0.27439986797E+03  0.32287031194E+03  0.79291095594E+02 0.  0.
         25    2    1    2    0    0 -0.10719184961E+03 -0.25700285873E+02  0.10833832370E+03  0.19883568410E+03  0.12509132492E+03 0.  0.
         24    2    1    2    0    0 -0.40746573515E+02 -0.21761542548E+01  0.11887127295E+03  0.14921964936E+03  0.80443180718E+02 0.  0.
        -11    1    5    5    0    0 -0.26169336621E+01  0.29984084413E+02  0.81534644858E+02  0.86912553592E+02  0.00000000000E+00 0.  1.
         12    1    5    5    0    0 -0.38129639853E+02 -0.32160238668E+02  0.37336628089E+02  0.62307095772E+02  0.00000000000E+00 0. -1.
         11    1    3    3    0    0  0.59054089474E+02  0.24748008960E+02 -0.49217563674E+02  0.80760250155E+02  0.00000000000E+00 0. -1.
        -12    1    3    3    0    0  0.88884333651E+02  0.31284311676E+01 -0.22518230430E+03  0.24211006179E+03  0.00000000000E+00 0.  1.
          5    1    4    4  501    0 -0.10779083280E+03 -0.47548797175E+02  0.36164107197E+02  0.12330882692E+03  0.41800000000E+01 0. -1.
         -5    1    4    4    0  501  0.59898318651E+00  0.21848511302E+02  0.72174216500E+02  0.75526857173E+02  0.41800000000E+01 0. -1.
</event>
<event>
11    1  0.1003949E-008  0.2001571E+03  0.7561462E-02  0.1054413E+00
         22   -1    0    0    0    0  0.00000000000E+00  0.00000000000E+00  0.16756409574E+03  0.16756409574E+03  0.00000000000E+00 0. -1.
         22   -1    0    0    0    0 -0.00000000000E+00 -0.00000000000E+00 -0.17087586033E+04  0.17087586033E+04  0.00000000000E+00 0. -1.
         24    2    1    2    0    0  0.11500563766E+03 -0.99668980713E+02 -0.13262956607E+04  0.13374844849E+04  0.81512975447E+02 0.  0.
         25    2    1    2    0    0 -0.14730095195E+03  0.10557247205E+03 -0.32890531623E+03  0.39581504313E+03  0.12509086308E+03 0.  0.
        -24    2    1    2    0    0  0.32295314289E+02 -0.59034913410E+01  0.11400646936E+03  0.14302317108E+03  0.79876866958E+02 0.  0.
        -11    1    3    3    0    0  0.23300837432E+02 -0.36294571356E+01 -0.50266463245E+03  0.50321748251E+03  0.00000000000E+00 0.  1.
         12    1    3    3    0    0  0.91704800230E+02 -0.96039523578E+02 -0.82363102826E+03  0.83426700234E+03  0.00000000000E+00 0. -1.
         13    1    5    5    0    0 -0.54534124249E+01  0.79020184124E+01  0.99998176968E+02  0.10045803601E+03  0.00000000000E+00 0. -1.
        -14    1    5    5    0    0  0.37748726714E+02 -0.13805509753E+02  0.14008292397E+02  0.42565135075E+02  0.00000000000E+00 0.  1.
          5    1    4    4  501    0 -0.80250987281E+02  0.55189263716E+02 -0.60860244935E+02  0.11492396444E+03  0.41800000000E+01 0. -1.
         -5    1    4    4    0  501 -0.67049964670E+02  0.50383208338E+02 -0.26804507129E+03  0.28089107869E+03  0.41800000000E+01 0. -1.
</event>
<event>
11    1  0.1003949E-008  0.1582335E+03  0.7561462E-02  0.1088751E+00
         22   -1    0    0    0    0  0.00000000000E+00  0.00000000000E+00  0.25432585444E+03  0.25432585444E+03  0.00000000000E+00 0.  1.
         22   -1    0    0    0    0 -0.00000000000E+00 -0.00000000000E+00 -0.13332897305E+04  0.13332897305E+04  0.00000000000E+00 0. -1.
        -24    2    1    2    0    0 -0.17288848193E+01  0.56099180031E+02 -0.11833541209E+04  0.11878886724E+04  0.87191832042E+02 0.  0.
         25    2    1    2    0    0 -0.95362692929E+02 -0.45493635214E+02 -0.75203437105E+02  0.18018487515E+03  0.12508924108E+03 0.  0.
         24    2    1    2    0    0  0.97091577748E+02 -0.10605544817E+02  0.17959368191E+03  0.21954203740E+03  0.80034764660E+02 0.  0.
        -13    1    5    5    0    0  0.11111551689E+03 -0.10969707564E+02  0.15218590071E+03  0.18875259191E+03  0.00000000000E+00 0.  1.
         14    1    5    5    0    0 -0.14023939139E+02  0.36416274735E+00  0.27407781202E+02  0.30789445496E+02  0.00000000000E+00 0. -1.
         13    1    3    3    0    0 -0.20983570254E+01  0.75417883979E+02 -0.10870629809E+04  0.10896780189E+04  0.00000000000E+00 0. -1.
        -14    1    3    3    0    0  0.36947220606E+00 -0.19318703948E+02 -0.96291139924E+02  0.98210653494E+02  0.00000000000E+00 0.  1.
          5    1    4    4  501    0 -0.72131631202E+02  0.34393007622E+02 -0.30409651131E+02  0.85604149871E+02  0.41800000000E+01 0.  1.
         -5    1    4    4    0  501 -0.23231061727E+02 -0.79886642836E+02 -0.44793785975E+02  0.94580725280E+02  0.41800000000E+01 0.  1.
</event>
<event>
11    1  0.1003949E-008  0.2413801E+03  0.7561462E-02  0.1028594E+00
         22   -1    0    0    0    0  0.00000000000E+00  0.00000000000E+00  0.10069825402E+04  0.10069825402E+04  0.00000000000E+00 0. -1.
         22   -1    0    0    0    0 -0.00000000000E+00 -0.00000000000E+00 -0.63687100451E+03  0.63687100451E+03  0.00000000000E+00 0.  1.
        -24    2    1    2    0    0  0.15028053360E+03 -0.13925929795E+03 -0.48762172857E+03  0.53520172154E+03  0.81783505240E+02 0.  0.
         25    2    1    2    0    0 -0.21927883779E+03  0.76891583627E+02  0.22981906762E+02  0.26487529001E+03  0.12504090084E+03 0.  0.
         24    2    1    2    0    0  0.68998304195E+02  0.62367714326E+02  0.83475135746E+03  0.84377653313E+03  0.80613344441E+02 0.  0.
        -13    1    5    5    0    0  0.20898246160E+02  0.41255087370E+01  0.38916721007E+02  0.44365163009E+02  0.00000000000E+00 0.  1.
         14    1    5    5    0    0  0.48100058035E+02  0.58242205589E+02  0.79583463646E+03  0.79941137012E+03  0.00000000000E+00 0. -1.
         13    1    3    3    0    0 -0.42747802422E+01 -0.32101718022E+02 -0.78834273767E+02  0.85226972060E+02  0.00000000000E+00 0. -1.
        -14    1    3    3    0    0  0.15455531384E+03 -0.10715757993E+03 -0.40878745480E+03  0.44997474948E+03  0.00000000000E+00 0.  1.
          5    1    4    4  501    0 -0.87089109992E+02  0.72117654698E+01 -0.47559587804E+02  0.99578659523E+02  0.41800000000E+01 0. -1.
         -5    1    4    4    0  501 -0.13218972780E+03  0.69679818157E+02  0.70541494567E+02  0.16529663048E+03  0.41800000000E+01 0. -1.
</event>
<event>
11    1  0.1003949E-008  0.1320442E+03  0.7561462E-02  0.1116783E+00
         22   -1    0    0    0    0  0.00000000000E+00  0.00000000000E+00  0.58314444152E+03  0.58314444152E+03  0.00000000000E+00 0. -1.
         22   -1    0    0    0    0 -0.00000000000E+00 -0.00000000000E+00 -0.18629312349E+03  0.18629312349E+03  0.00000000000E+00 0.  1.
         24    2    1    2    0    0  0.19949590251E+02  0.38129778258E+02 -0.11753149916E+03  0.14828166768E+03  0.79510587555E+02 0.  0.
         25    2    1    2    0    0 -0.39855995675E+02 -0.20708594898E+02  0.39215959582E+02  0.13857348907E+03  0.12508946436E+03 0.  0.
        -24    2    1    2    0    0  0.19906405424E+02 -0.17421183359E+02  0.47516685761E+03  0.48258240826E+03  0.80015470932E+02 0.  0.
        -13    1    3    3    0    0 -0.15039920307E+02  0.38663717346E+02 -0.10177265357E+03  0.10990339056E+03  0.00000000000E+00 0.  1.
         14    1    3    3    0    0  0.34989510558E+02 -0.53393908779E+00 -0.15758845586E+02  0.38378277115E+02  0.00000000000E+00 0. -1.
         11    1    5    5    0    0  0.34407857628E+02 -0.37459655116E+02  0.40503785650E+03  0.40821904858E+03  0.00000000000E+00 0. -1.
        -12    1    5    5    0    0 -0.14501452204E+02  0.20038471757E+02  0.70129001111E+02  0.74363359682E+02  0.00000000000E+00 0.  1.
          5    1    4    4  501    0 -0.23731596791E+02  0.32152921670E+02  0.65804478837E+02  0.77101886444E+02  0.41800000000E+01 0. -1.
         -5    1    4    4    0  501 -0.16124398884E+02 -0.52861516569E+02 -0.26588519255E+02  0.61471602627E+02  0.41800000000E+01 0. -1.
</event>
<event>
11    1  0.1003949E-008  0.1568929E+03  0.7561462E-02  0.1090037E+00
         22   -1    0    0    0    0  0.00000000000E+00  0.00000000000E+00  0.28125821559E+03  0.28125821559E+03  0.00000000000E+00 0.  1.
         22   -1    0    0    0    0 -0.00000000000E+00 -0.00000000000E+00 -0.58623366374E+03  0.58623366374E+03  0.00000000000E+00 0.  1.
         24    2    1    2    0    0 -0.82272271945E+01  0.92905061992E+02 -0.49184431131E+03  0.50692133710E+03  0.79745706009E+02 0.  0.
         25    2    1    2    0    0 -0.76833612300E+01 -0.11344058594E+03  0.17066183475E+02  0.16990129138E+03  0.12508954239E+03 0.  0.
        -24    2    1    2    0    0  0.15910588425E+02  0.20535523947E+02  0.16980267969E+03  0.19066925086E+03  0.82746351127E+02 0.  0.
        -11    1    3    3    0    0 -0.34573871315E+02  0.58557042800E+02 -0.39543292489E+03  0.40123743336E+03  0.00000000000E+00 0.  1.
         12    1    3    3    0    0  0.26346644121E+02  0.34348019192E+02 -0.96411386422E+02  0.10568390374E+03  0.00000000000E+00 0. -1.
         11    1    5    5    0    0 -0.11833896526E+02  0.39404781137E+02  0.43042496834E+02  0.59543550593E+02  0.00000000000E+00 0. -1.
        -12    1    5    5    0    0  0.27744484951E+02 -0.18869257191E+02  0.12676018286E+03  0.13112570027E+03  0.00000000000E+00 0.  1.
          5    1    4    4  501    0  0.51405731051E+02 -0.48825586788E+02 -0.21398476082E+02  0.74174485429E+02  0.41800000000E+01 0.  1.
         -5    1    4    4    0  501 -0.59089092281E+02 -0.64614999151E+02  0.38464659557E+02  0.95726805946E+02  0.41800000000E+01 0.  1.
</event>
<event>
11    1  0.1322847E-008  0.1895776E+03  0.7561462E-02  0.1062149E+00
         22   -1    0    0    0    0  0.00000000000E+00  0.00000000000E+00  0.81966088980E+03  0.81966088980E+03  0.00000000000E+00 0. -1.
         22   -1    0    0    0    0 -0.00000000000E+00 -0.00000000000E+00 -0.18146044574E+03  0.18146044574E+03  0.00000000000E+00 0. -1.
         24    2    1    2    0    0  0.53202977607E+02 -0.14321780518E+02 -0.35519487258E+02  0.10409502070E+03  0.80860800982E+02 0.  0.
         25    2    1    2    0    0 -0.18728805293E+03  0.44624960800E+02  0.28242045306E+02  0.23132887265E+03  0.12508889760E+03 0.  0.
        -24    2    1    2    0    0  0.13408507532E+03 -0.30303180282E+02  0.64547788602E+03  0.66569744219E+03  0.87259916577E+02 0.  0.
        -13    1    3    3    0    0 -0.17115960497E+02  0.82714896667E+01 -0.21883810220E+02  0.28987493765E+02  0.00000000000E+00 0.  1.
         14    1    3    3    0    0  0.70318938103E+02 -0.22593270185E+02 -0.13635677038E+02  0.75107526932E+02  0.00000000000E+00 0. -1.
         13    1    5    5    0    0  0.13766181502E+03 -0.56673961456E+01  0.53596831635E+03  0.55339401047E+03  0.00000000000E+00 0. -1.
        -14    1    5    5    0    0 -0.35767397021E+01 -0.24635784136E+02  0.10950956967E+03  0.11230343172E+03  0.00000000000E+00 0.  1.
          5    1    4    4  501    0 -0.10088897562E+03 -0.35212792930E+02 -0.10380014898E+02  0.10744181354E+03  0.41800000000E+01 0. -1.
         -5    1    4    4    0  501 -0.86399077303E+02  0.79837753729E+02  0.38622060203E+02  0.12388705911E+03  0.41800000000E+01 0. -1.
</event>
<event>
11    1  0.1003949E-008  0.2083383E+03  0.7561462E-02  0.1048779E+00
         22   -1    0    0    0    0  0.00000000000E+00  0.00000000000E+00  0.11547117768E+04  0.11547117768E+04  0.00000000000E+00 0. -1.
         22   -1    0    0    0    0 -0.00000000000E+00 -0.00000000000E+00 -0.39000587812E+03  0.39000587812E+03  0.00000000000E+00 0.  1.
        -24    2    1    2    0    0 -0.52818127329E+02  0.15789237225E+03 -0.30785655214E+03  0.35851233706E+03  0.77689660436E+02 0.  0.
         25    2    1    2    0    0 -0.42284358400E+01 -0.17690436023E+03  0.16342150298E+03  0.27141794658E+03  0.12509229293E+03 0.  0.
         24    2    1    2    0    0  0.57046563169E+02  0.19011987975E+02  0.90914094781E+03  0.91478737126E+03  0.81749040180E+02 0.  0.
        -11    1    5    5    0    0  0.27377519437E+02  0.99863136740E+01  0.81289895070E+02  0.86355671915E+02  0.00000000000E+00 0.  1.
         12    1    5    5    0    0  0.29669043732E+02  0.90256743010E+01  0.82785105274E+03  0.82843169935E+03  0.00000000000E+00 0. -1.
         11    1    3    3    0    0 -0.15795964525E+02  0.32626860744E+02 -0.14646687081E+03  0.15088594627E+03  0.00000000000E+00 0. -1.
        -12    1    3    3    0    0 -0.37022162805E+02  0.12526551151E+03 -0.16138968133E+03  0.20762639079E+03  0.00000000000E+00 0.  1.
          5    1    4    4  501    0 -0.60382614126E+02 -0.12722961774E+03  0.95887025125E+02  0.17042661091E+03  0.41800000000E+01 0.  1.
         -5    1    4    4    0  501  0.56154178286E+02 -0.49674742489E+02  0.67534477856E+02  0.10099133567E+03  0.41800000000E+01 0.  1.
</event>
<event>
11    1  0.1003949E-008  0.2144427E+03  0.7561462E-02  0.1044756E+00
         22   -1    0    0    0    0  0.00000000000E+00  0.00000000000E+00  0.66153917242E+03  0.66153917242E+03  0.00000000000E+00 0.  1.
         22   -1    0    0    0    0 -0.00000000000E+00 -0.00000000000E+00 -0.36436257414E+03  0.36436257414E+03  0.00000000000E+00 0. -1.
        -24    2    1    2    0    0 -0.64007184174E+02 -0.42290564265E+01 -0.10958574081E+03  0.15070405473E+03  0.81165713072E+02 0.  0.
         25    2    1    2    0    0  0.68837670867E+02  0.17789630402E+03 -0.15932762854E+03  0.27824025545E+03  0.12508647659E+03 0.  0.
         24    2    1    2    0    0 -0.48304866931E+01 -0.17366724759E+03  0.56608996763E+03  0.59695743637E+03  0.75608748811E+02 0.  0.
        -11    1    5    5    0    0 -0.64645202196E+01 -0.11811083789E+03  0.48094160387E+03  0.49527445561E+03  0.00000000000E+00 0.  1.
         12    1    5    5    0    0  0.16340335265E+01 -0.55556409703E+02  0.85148363762E+02  0.10168298076E+03  0.00000000000E+00 0. -1.
         11    1    3    3    0    0 -0.34422154507E+02 -0.15464734476E+02 -0.11275199082E+03  0.11889934469E+03  0.00000000000E+00 0. -1.
        -12    1    3    3    0    0 -0.29585029667E+02  0.11235678049E+02  0.31662500095E+01  0.31804710040E+02  0.00000000000E+00 0.  1.
          5    1    4    4  501    0  0.38584500059E+02 -0.41730445565E+01 -0.87421059822E+01  0.40000934523E+02  0.41800000000E+01 0.  1.
         -5    1    4    4    0  501  0.30253170807E+02  0.18206934857E+03 -0.15058552256E+03  0.23823932093E+03  0.41800000000E+01 0.  1.
</event>
<event>
11    1  0.1003949E-008  0.1978265E+03  0.7561462E-02  0.1056071E+00
         22   -1    0    0    0    0  0.00000000000E+00  0.00000000000E+00  0.16485968325E+04  0.16485968325E+04  0.00000000000E+00 0. -1.
         22   -1    0    0    0    0 -0.00000000000E+00 -0.00000000000E+00 -0.83918494304E+03  0.83918494304E+03  0.00000000000E+00 0.  1.
         24    2    1    2    0    0  0.81903836421E+02  0.25556766066E+02 -0.77335766710E+03  0.78230041174E+03  0.80934950694E+02 0.  0.
         25    2    1    2    0    0 -0.17501764618E+03 -0.13919121899E+03  0.23726262618E+03  0.34920902484E+03  0.12509203542E+03 0.  0.
        -24    2    1    2    0    0  0.93113809762E+02  0.11363445293E+03  0.13455069303E+04  0.13562723389E+04  0.86618631293E+02 0.  0.
        -11    1    3    3    0    0  0.87132834158E+02  0.28312580225E+02 -0.46788128228E+03  0.47676684794E+03  0.00000000000E+00 0.  1.
         12    1    3    3    0    0 -0.52289977368E+01 -0.27558141590E+01 -0.30547638482E+03  0.30553356381E+03  0.00000000000E+00 0. -1.
         11    1    5    5    0    0  0.10480337227E+03  0.86268185498E+02  0.12067314353E+04  0.12143420868E+04  0.00000000000E+00 0. -1.
        -12    1    5    5    0    0 -0.11689562504E+02  0.27366267428E+02  0.13877549499E+03  0.14193025214E+03  0.00000000000E+00 0.  1.
          5    1    4    4  501    0 -0.18706801668E+03 -0.12962882368E+03  0.24233691048E+03  0.33247966159E+03  0.41800000000E+01 0.  1.
         -5    1    4    4    0  501  0.12050370501E+02 -0.95623953156E+01 -0.50742842973E+01  0.16729363243E+02  0.41800000000E+01 0.  1.
</event>
<event>
11    1  0.1003949E-008  0.1315854E+03  0.7561462E-02  0.1117336E+00
         22   -1    0    0    0    0  0.00000000000E+00  0.00000000000E+00  0.32398199982E+03  0.32398199982E+03  0.00000000000E+00 0. -1.
         22   -1    0    0    0    0 -0.00000000000E+00 -0.00000000000E+00 -0.14963821079E+03  0.14963821079E+03  0.00000000000E+00 0. -1.
        -24    2    1    2    0    0  0.40366493924E+01  0.20421201260E+02 -0.45822206340E+02  0.94985179789E+02  0.80555507487E+02 0.  0.
         25    2    1    2    0    0  0.36850028795E+02 -0.12620557142E+02 -0.10022118947E+02  0.13139471260E+03  0.12508766744E+03 0.  0.
         24    2    1    2    0    0 -0.40886678187E+02 -0.78006441179E+01  0.23018811432E+03  0.24724031822E+03  0.80053959792E+02 0.  0.
        -13    1    5    5    0    0 -0.63809084344E+02  0.24771546203E+00  0.14033604075E+03  0.15416181415E+03  0.00000000000E+00 0.  1.
         14    1    5    5    0    0  0.22922406157E+02 -0.80483595799E+01  0.89852073566E+02  0.93078504071E+02  0.00000000000E+00 0. -1.
         11    1    3    3    0    0 -0.28799486788E+02  0.12660330703E+02 -0.51910743831E+02  0.60699421232E+02  0.00000000000E+00 0. -1.
        -12    1    3    3    0    0  0.32836136180E+02  0.77608705571E+01  0.60885374913E+01  0.34285758557E+02  0.00000000000E+00 0.  1.
          5    1    4    4  501    0 -0.23383382212E+02  0.42452083755E+02  0.25413708031E+01  0.48712348993E+02  0.41800000000E+01 0.  1.
         -5    1    4    4    0  501  0.60233411007E+02 -0.55072640897E+02 -0.12563489750E+02  0.82682363607E+02  0.41800000000E+01 0.  1.
</event>
<event>
11    1  0.1003949E-008  0.1676496E+03  0.7561462E-02  0.1080095E+00
         22   -1    0    0    0    0  0.00000000000E+00  0.00000000000E+00  0.11918901425E+04  0.11918901425E+04  0.00000000000E+00 0. -1.
         22   -1    0    0    0    0 -0.00000000000E+00 -0.00000000000E+00 -0.86873598311E+02  0.86873598311E+02  0.00000000000E+00 0.  1.
         24    2    1    2    0    0 -0.48280984527E+02  0.73214321805E+02  0.20383121612E+02  0.11765389155E+03  0.75733586778E+02 0.  0.
         25    2    1    2    0    0 -0.19557297361E+02 -0.15612220392E+03  0.27686397697E+03  0.34213582777E+03  0.12508649994E+03 0.  0.
        -24    2    1    2    0    0  0.67838281887E+02  0.82907882117E+02  0.80776944560E+03  0.81897402148E+03  0.82165815280E+02 0.  0.
        -13    1    3    3    0    0 -0.68986791938E+02  0.56353444383E+02  0.13672771192E+02  0.90121211864E+02  0.00000000000E+00 0.  1.
         14    1    3    3    0    0  0.20705807412E+02  0.16860877422E+02  0.67103504200E+01  0.27532679687E+02  0.00000000000E+00 0. -1.
         11    1    5    5    0    0  0.84404881323E+02  0.82960771625E+02  0.71803806247E+03  0.72772613858E+03  0.00000000000E+00 0. -1.
        -12    1    5    5    0    0 -0.16566599436E+02 -0.52889508190E-01  0.89731383134E+02  0.91247882898E+02  0.00000000000E+00 0.  1.
          5    1    4    4  501    0 -0.41282514978E+02  0.92615774788E+00  0.71313754740E+02  0.82511985955E+02  0.41800000000E+01 0.  1.
         -5    1    4    4    0  501  0.21725217617E+02 -0.15704836167E+03  0.20555022223E+03  0.25962384182E+03  0.41800000000E+01 0.  1.
</event>
<event>
11    1  0.1003949E-008  0.1454248E+03  0.7561462E-02  0.1101648E+00
         22   -1    0    0    0    0  0.00000000000E+00  0.00000000000E+00  0.34711220353E+03  0.34711220353E+03  0.00000000000E+00 0. -1.
         22   -1    0    0    0    0 -0.00000000000E+00 -0.00000000000E+00 -0.75995915402E+03  0.75995915402E+03  0.00000000000E+00 0. -1.
        -24    2    1    2    0    0 -0.66822857558E+02  0.43678511027E+02 -0.42000466139E+03  0.43538362638E+03  0.82352170034E+02 0.  0.
         25    2    1    2    0    0  0.43586902040E+02 -0.47388414789E+02 -0.31160571926E+03  0.34189573685E+03  0.12509632574E+03 0.  0.
         24    2    1    2    0    0  0.23235955517E+02  0.37099037617E+01  0.31876343016E+03  0.32979199433E+03  0.81233995974E+02 0.  0.
        -13    1    5    5    0    0 -0.12602857565E+02  0.18377426339E+01  0.45328618635E+01  0.13518733427E+02  0.00000000000E+00 0.  1.
         14    1    5    5    0    0  0.35838813082E+02  0.18721611278E+01  0.31423056830E+03  0.31627326090E+03  0.00000000000E+00 0. -1.
         13    1    3    3    0    0  0.19454486029E+01 -0.18946201105E+02 -0.11317701278E+03  0.11476837338E+03  0.00000000000E+00 0. -1.
        -14    1    3    3    0    0 -0.68768306161E+02  0.62624712133E+02 -0.30682764861E+03  0.32061525300E+03  0.00000000000E+00 0.  1.
          5    1    4    4  501    0  0.43945776298E+02 -0.28857786809E+01 -0.28793817044E+03  0.29131670287E+03  0.41800000000E+01 0. -1.
         -5    1    4    4    0  501 -0.35887425791E+00 -0.44502636108E+02 -0.23667548817E+02  0.50579033980E+02  0.41800000000E+01 0. -1.
</event>
<event>
11    1  0.1003949E-008  0.1617335E+03  0.7561462E-02  0.1085458E+00
         22   -1    0    0    0    0  0.00000000000E+00  0.00000000000E+00  0.27591622797E+04  0.27591622797E+04  0.00000000000E+00 0. -1.
         22   -1    0    0    0    0 -0.00000000000E+00 -0.00000000000E+00 -0.69253748566E+03  0.69253748566E+03  0.00000000000E+00 0.  1.
        -24    2    1    2    0    0 -0.35317237810E+02 -0.11008665763E+02 -0.67750342609E+03  0.68297377185E+03  0.77934476717E+02 0.  0.
         25    2    1    2    0    0  0.11543875174E+03  0.64928916746E+02  0.79976533399E+03  0.82025309590E+03  0.12509469316E+03 0.  0.
         24    2    1    2    0    0 -0.80121513927E+02 -0.53920250983E+02  0.19443628861E+04  0.19484728976E+04  0.81686897640E+02 0.  0.
        -11    1    5    5    0    0 -0.69391249487E+02 -0.87818325361E+01  0.15143172624E+04  0.15159317390E+04  0.00000000000E+00 0.  1.
         12    1    5    5    0    0 -0.10730264441E+02 -0.45138418447E+02  0.43004562368E+03  0.43254115855E+03  0.00000000000E+00 0. -1.
         11    1    3    3    0    0  0.90236104609E+01 -0.32720924357E+02 -0.19306029007E+03  0.19602132547E+03  0.00000000000E+00 0. -1.
        -12    1    3    3    0    0 -0.44340848271E+02  0.21712258594E+02 -0.48444313603E+03  0.48695244639E+03  0.00000000000E+00 0.  1.
          5    1    4    4  501    0  0.13924092042E+03  0.68623724161E+02  0.72982931017E+03  0.74616723583E+03  0.41800000000E+01 0.  1.
         -5    1    4    4    0  501 -0.23802168683E+02 -0.36948074149E+01  0.69936023818E+02  0.74085860077E+02  0.41800000000E+01 0.  1.
</event>
<event>
11    1  0.1140805E-008  0.1450925E+03  0.7561462E-02  0.1102001E+00
         22   -1    0    0    0    0  0.00000000000E+00  0.00000000000E+00  0.16157144857E+03  0.16157144857E+03  0.00000000000E+00 0.  1.
         22   -1    0    0    0    0 -0.00000000000E+00 -0.00000000000E+00 -0.17789063406E+04  0.17789063406E+04  0.00000000000E+00 0.  1.
         24    2    1    2    0    0  0.19110378307E+02 -0.46647426893E+02 -0.10742889262E+04  0.10786525992E+04  0.82786132365E+02 0.  0.
         25    2    1    2    0    0 -0.97401102282E+01  0.11832834333E+03 -0.67184420091E+03  0.69362631241E+03  0.12508542835E+03 0.  0.
        -24    2    1    2    0    0 -0.93702680787E+01 -0.71680916438E+02  0.12879823504E+03  0.16819887765E+03  0.80473109724E+02 0.  0.
        -13    1    3    3    0    0  0.85270925264E+01 -0.18605042491E+02 -0.96805491165E+03  0.96827122795E+03  0.00000000000E+00 0.  1.
         14    1    3    3    0    0  0.10583285781E+02 -0.28042384402E+02 -0.10623401456E+03  0.11038137121E+03  0.00000000000E+00 0. -1.
         13    1    5    5    0    0 -0.40034172830E+01 -0.45563850723E+01 -0.11262180697E+02  0.12791587427E+02  0.00000000000E+00 0. -1.
        -14    1    5    5    0    0 -0.53668507958E+01 -0.67124531365E+02  0.14006041574E+03  0.15540729022E+03  0.00000000000E+00 0.  1.
          5    1    4    4  501    0  0.21643868881E+02  0.13492212082E+03 -0.53066059843E+03  0.54798775431E+03  0.41800000000E+01 0. -1.
         -5    1    4    4    0  501 -0.31383979109E+02 -0.16593777486E+02 -0.14118360248E+03  0.14563855810E+03  0.41800000000E+01 0. -1.
</event>
<event>
11    1  0.1003949E-008  0.1536173E+03  0.7561462E-02  0.1093239E+00
         22   -1    0    0    0    0  0.00000000000E+00  0.00000000000E+00  0.85351697325E+02  0.85351697325E+02  0.00000000000E+00 0. -1.
         22   -1    0    0    0    0 -0.00000000000E+00 -0.00000000000E+00 -0.14746691431E+04  0.14746691431E+04  0.00000000000E+00 0.  1.
        -24    2    1    2    0    0  0.18339983391E+02  0.63256384148E+02 -0.11666214861E+04  0.11712854919E+04  0.81032625652E+02 0.  0.
         25    2    1    2    0    0  0.65403231223E+02 -0.10949991512E+02 -0.22266875784E+03  0.26386817766E+03  0.12509018544E+03 0.  0.
         24    2    1    2    0    0 -0.83743214615E+02 -0.52306392636E+02 -0.27201759727E-01  0.12486717086E+03  0.76439027427E+02 0.  0.
        -13    1    5    5    0    0  0.81651700992E+01 -0.26787501212E+02  0.80558390401E+01  0.29139951383E+02  0.00000000000E+00 0.  1.
         14    1    5    5    0    0 -0.91908384714E+02 -0.25518891424E+02 -0.80830407999E+01  0.95727219477E+02  0.00000000000E+00 0. -1.
         13    1    3    3    0    0  0.74053565439E+01  0.55790391982E+02 -0.34523059619E+03  0.34978789529E+03  0.00000000000E+00 0. -1.
        -14    1    3    3    0    0  0.10934626847E+02  0.74659921655E+01 -0.82139088996E+03  0.82149759659E+03  0.00000000000E+00 0.  1.
          5    1    4    4  501    0  0.99086929355E+01 -0.62579631796E+02 -0.78794254159E+02  0.10119485856E+03  0.41800000000E+01 0.  1.
         -5    1    4    4    0  501  0.55494538288E+02  0.51629640284E+02 -0.14387450368E+03  0.16267331909E+03  0.41800000000E+01 0.  1.
</event>
<event>
11    1  0.1003949E-008  0.1586300E+03  0.7561462E-02  0.1088373E+00
         22   -1    0    0    0    0  0.00000000000E+00  0.00000000000E+00  0.26296980365E+03  0.26296980365E+03  0.00000000000E+00 0. -1.
         22   -1    0    0    0    0 -0.00000000000E+00 -0.00000000000E+00 -0.36233591360E+03  0.36233591360E+03  0.00000000000E+00 0. -1.
        -24    2    1    2    0    0  0.88430969482E+02  0.36352016142E+02 -0.23260806278E+03  0.26479797439E+03  0.82885167109E+02 0.  0.
         25    2    1    2    0    0 -0.86262421743E+02 -0.65801826927E+02 -0.36113708007E+02  0.16947727326E+03  0.12508900996E+03 0.  0.
         24    2    1    2    0    0 -0.21685477395E+01  0.29449810785E+02  0.16935566084E+03  0.19103046961E+03  0.83302500001E+02 0.  0.
        -13    1    5    5    0    0  0.38685219605E+02  0.62327080884E+01  0.56254747863E+02  0.68556469593E+02  0.00000000000E+00 0.  1.
         14    1    5    5    0    0 -0.40853767344E+02  0.23217102697E+02  0.11310091298E+03  0.12247400002E+03  0.00000000000E+00 0. -1.
         11    1    3    3    0    0  0.43436940294E+02  0.49685075593E+02 -0.19100184911E+03  0.20208186678E+03  0.00000000000E+00 0. -1.
        -12    1    3    3    0    0  0.44994029189E+02 -0.13333059451E+02 -0.41606213675E+02  0.62716107607E+02  0.00000000000E+00 0.  1.
          5    1    4    4  501    0 -0.61379414219E+02 -0.32673186541E+02 -0.81945501443E+02  0.10755234640E+03  0.41800000000E+01 0. -1.
         -5    1    4    4    0  501 -0.24883007524E+02 -0.33128640386E+02  0.45831793436E+02  0.61924926861E+02  0.41800000000E+01 0. -1.
</event>
<event>
11    1  0.1003949E-008  0.1449030E+04  0.7561462E-02  0.8340242E-01
         22   -1    0    0    0    0  0.00000000000E+00  0.00000000000E+00  0.94560108294E+03  0.94560108294E+03  0.00000000000E+00 0. -1.
         22   -1    0    0    0    0 -0.00000000000E+00 -0.00000000000E+00 -0.30602709192E+04  0.30602709192E+04  0.00000000000E+00 0. -1.
         24    2    1    2    0    0 -0.54921049336E+03 -0.13919577157E+04 -0.17259523035E+04  0.22857506382E+04  0.81031956283E+02 0.  0.
         25    2    1    2    0    0  0.51675521200E+03  0.12559874741E+04 -0.57061410702E+03  0.14784415242E+04  0.12509355289E+03 0.  0.
        -24    2    1    2    0    0  0.32455281354E+02  0.13597024157E+03  0.18189657422E+03  0.24167983975E+03  0.76036368572E+02 0.  0.
        -11    1    3    3    0    0 -0.27462693195E+03 -0.62957304540E+03 -0.74286620722E+03  0.10117471883E+04  0.00000000000E+00 0.  1.
         12    1    3    3    0    0 -0.27458356141E+03 -0.76238467031E+03 -0.98308609624E+03  0.12740034499E+04  0.00000000000E+00 0. -1.
         13    1    5    5    0    0  0.50917676261E+02  0.12725831888E+03  0.16873231709E+03  0.21738878608E+03  0.00000000000E+00 0. -1.
        -14    1    5    5    0    0 -0.18462394907E+02  0.87119226943E+01  0.13164257126E+02  0.24291053670E+02  0.00000000000E+00 0.  1.
          5    1    4    4  501    0  0.45799034779E+03  0.11040735350E+04 -0.54428108658E+03  0.13133898518E+04  0.41800000000E+01 0.  1.
         -5    1    4    4    0  501  0.58764864216E+02  0.15191393918E+03 -0.26333020438E+02  0.16505167236E+03  0.41800000000E+01 0.  1.
</event>
<event>
11    1  0.1003949E-008  0.1668034E+03  0.7561462E-02  0.1080847E+00
         22   -1    0    0    0    0  0.00000000000E+00  0.00000000000E+00  0.47967921691E+03  0.47967921691E+03  0.00000000000E+00 0. -1.
         22   -1    0    0    0    0 -0.00000000000E+00 -0.00000000000E+00 -0.84343911702E+03  0.84343911702E+03  0.00000000000E+00 0.  1.
         24    2    1    2    0    0  0.10647729307E+03 -0.32837430800E+02 -0.78542374164E+03  0.79887489260E+03  0.94312932799E+02 0.  0.
         25    2    1    2    0    0 -0.66064657514E+02  0.77184979911E+02  0.10546353250E+03  0.19259131939E+03  0.12508716769E+03 0.  0.
        -24    2    1    2    0    0 -0.40412635551E+02 -0.44347549111E+02  0.31620030904E+03  0.33165212195E+03  0.80066274625E+02 0.  0.
        -11    1    3    3    0    0  0.97229548925E+02 -0.39271196780E+02 -0.77875558977E+03  0.78578373659E+03  0.00000000000E+00 0.  1.
         12    1    3    3    0    0  0.92477441403E+01  0.64337659802E+01 -0.66681518626E+01  0.13091156008E+02  0.00000000000E+00 0. -1.
         11    1    5    5    0    0 -0.52633992572E+02 -0.19906742525E+02  0.28352982136E+03  0.28906015840E+03  0.00000000000E+00 0. -1.
        -12    1    5    5    0    0  0.12221357021E+02 -0.24440806585E+02  0.32670487677E+02  0.42591963550E+02  0.00000000000E+00 0.  1.
          5    1    4    4  501    0 -0.59568826619E+02  0.11039496330E+03  0.71416975624E+02  0.14440688984E+03  0.41800000000E+01 0. -1.
         -5    1    4    4    0  501 -0.64958308952E+01 -0.33209983389E+02  0.34046556875E+02  0.48184429547E+02  0.41800000000E+01 0. -1.
</event>
<event>
11    1  0.1003949E-008  0.2447476E+03  0.7561462E-02  0.1026735E+00
         22   -1    0    0    0    0  0.00000000000E+00  0.00000000000E+00  0.12403610438E+04  0.12403610438E+04  0.00000000000E+00 0. -1.
         22   -1    0    0    0    0 -0.00000000000E+00 -0.00000000000E+00 -0.57892172559E+03  0.57892172559E+03  0.00000000000E+00 0.  1.
        -24    2    1    2    0    0 -0.17597051792E+03 -0.10834913897E+03 -0.47647371067E+03  0.52551748785E+03  0.80226392064E+02 0.  0.
         25    2    1    2    0    0  0.19058726367E+03  0.16791391365E+03  0.19111243198E+03  0.34159949148E+03  0.12509062096E+03 0.  0.
         24    2    1    2    0    0 -0.14616745753E+02 -0.59564774680E+02  0.94680059689E+03  0.95216579003E+03  0.80166762473E+02 0.  0.
        -13    1    5    5    0    0  0.26200804299E+02 -0.44792057012E+02  0.35465930934E+03  0.35843553984E+03  0.00000000000E+00 0.  1.
         14    1    5    5    0    0 -0.40817550052E+02 -0.14772717668E+02  0.59214128755E+03  0.59373025019E+03  0.00000000000E+00 0. -1.
         13    1    3    3    0    0 -0.52459087112E+02 -0.19152824371E+02 -0.59596549854E+02  0.81673344835E+02  0.00000000000E+00 0. -1.
        -14    1    3    3    0    0 -0.12351143081E+03 -0.89196314594E+02 -0.41687716082E+03  0.44384414302E+03  0.00000000000E+00 0.  1.
          5    1    4    4  501    0  0.10122160619E+03  0.18751977483E+02  0.37805073821E+02  0.10974582555E+03  0.41800000000E+01 0.  1.
         -5    1    4    4    0  501  0.89365657478E+02  0.14916193616E+03  0.15330735816E+03  0.23185366592E+03  0.41800000000E+01 0.  1.
</event>
<event>
11    1  0.1003949E-008  0.1405684E+03  0.7561462E-02  0.1106925E+00
         22   -1    0    0    0    0  0.00000000000E+00  0.00000000000E+00  0.14181635171E+04  0.14181635171E+04  0.00000000000E+00 0.  1.
         22   -1    0    0    0    0 -0.00000000000E+00 -0.00000000000E+00 -0.59226756895E+03  0.59226756895E+03  0.00000000000E+00 0. -1.
        -24    2    1    2    0    0 -0.53226064055E+02 -0.34979756483E+02 -0.57218204187E+03  0.58169095923E+03  0.83159399684E+02 0.  0.
         25    2    1    2    0    0  0.10377689244E+03  0.57153935051E+02  0.58783859836E+03  0.61256726079E+03  0.12509282782E+03 0.  0.
         24    2    1    2    0    0 -0.50550828385E+02 -0.22174178568E+02  0.81023939170E+03  0.81617286608E+03  0.81260045553E+02 0.  0.
        -13    1    5    5    0    0 -0.25671286884E+01 -0.35192667446E+02  0.55594615442E+03  0.55706484417E+03  0.00000000000E+00 0.  1.
         14    1    5    5    0    0 -0.47983699696E+02  0.13018488879E+02  0.25429323728E+03  0.25910802191E+03  0.00000000000E+00 0. -1.
         13    1    3    3    0    0 -0.88509171415E+01 -0.52394099880E+02 -0.37938510203E+03  0.38308815706E+03  0.00000000000E+00 0. -1.
        -14    1    3    3    0    0 -0.44375146914E+02  0.17414343397E+02 -0.19279693984E+03  0.19860280218E+03  0.00000000000E+00 0.  1.
          5    1    4    4  501    0  0.76325182622E+02 -0.28051093306E+02  0.24323067965E+03  0.25649762818E+03  0.41800000000E+01 0.  1.
         -5    1    4    4    0  501  0.27451709819E+02  0.85205028357E+02  0.34460791871E+03  0.35606963261E+03  0.41800000000E+01 0.  1.
</event>
<event>
11    1  0.1003949E-008  0.3201185E+03  0.7561462E-02  0.9920187E-01
         22   -1    0    0    0    0  0.00000000000E+00  0.00000000000E+00  0.29657939740E+03  0.29657939740E+03  0.00000000000E+00 0.  1.
         22   -1    0    0    0    0 -0.00000000000E+00 -0.00000000000E+00 -0.25063984350E+04  0.25063984350E+04  0.00000000000E+00 0.  1.
         24    2    1    2    0    0 -0.46052391982E+01 -0.79207274838E+02 -0.60008858331E+03  0.61146809315E+03  0.86555880840E+02 0.  0.
         25    2    1    2    0    0  0.26294528861E+03 -0.65650692149E+02 -0.18043509326E+04  0.18288744512E+04  0.12509689130E+03 0.  0.
        -24    2    1    2    0    0 -0.25834004941E+03  0.14485796699E+03  0.19462047831E+03  0.36263528800E+03  0.76836253142E+02 0.  0.
        -11    1    3    3    0    0 -0.23576666240E+01  0.15381810953E+02 -0.32335237126E+02  0.35884902955E+02  0.00000000000E+00 0.  1.
         12    1    3    3    0    0 -0.22475725742E+01 -0.94589085791E+02 -0.56775334618E+03  0.57558319019E+03  0.00000000000E+00 0. -1.
         13    1    5    5    0    0 -0.36399695898E+02  0.32743148850E+02  0.67464808847E+02  0.83357975568E+02  0.00000000000E+00 0. -1.
        -14    1    5    5    0    0 -0.22194035351E+03  0.11211481814E+03  0.12715566947E+03  0.27927731244E+03  0.00000000000E+00 0.  1.
          5    1    4    4  501    0  0.18948540078E+03  0.13231511660E+02 -0.12069979016E+04  0.12218597288E+04  0.41800000000E+01 0.  1.
         -5    1    4    4    0  501  0.73459887835E+02 -0.78882203809E+02 -0.59735303102E+03  0.60701472245E+03  0.41800000000E+01 0.  1.
</event>
<event>
11    1  0.1003949E-008  0.1305121E+03  0.7561462E-02  0.1118641E+00
         22   -1    0    0    0    0  0.00000000000E+00  0.00000000000E+00  0.30256524409E+03  0.30256524409E+03  0.00000000000E+00 0.  1.
         22   -1    0    0    0    0 -0.00000000000E+00 -0.00000000000E+00 -0.12062848536E+03  0.12062848536E+03  0.00000000000E+00 0. -1.
        -24    2    1    2    0    0 -0.13526271719E+02 -0.24956617245E+02 -0.29470769097E+02  0.88953217973E+02  0.78983263959E+02 0.  0.
         25    2    1    2    0    0 -0.89268112730E+01  0.51228899903E+02  0.47368899686E+02  0.14351283512E+03  0.12509209824E+03 0.  0.
         24    2    1    2    0    0  0.22453082992E+02 -0.26272282658E+02  0.16403862814E+03  0.19072767635E+03  0.90961537118E+02 0.  0.
        -11    1    5    5    0    0  0.43121937879E+02 -0.45759481170E+02  0.78388906862E+02  0.10049006101E+03  0.00000000000E+00 0.  1.
         12    1    5    5    0    0 -0.20668854888E+02  0.19487198511E+02  0.85649721274E+02  0.90237615341E+02  0.00000000000E+00 0. -1.
         11    1    3    3    0    0 -0.14254398252E+02  0.42831583773E+01 -0.50682270017E+02  0.52822588059E+02  0.00000000000E+00 0. -1.
        -12    1    3    3    0    0  0.72812653301E+00 -0.29239775622E+02  0.21211500920E+02  0.36130629914E+02  0.00000000000E+00 0.  1.
          5    1    4    4  501    0  0.27790709964E+02  0.39628432072E+02  0.79512495778E+02  0.93179641411E+02  0.41800000000E+01 0. -1.
         -5    1    4    4    0  501 -0.36717521237E+02  0.11600467831E+02 -0.32143596091E+02  0.50333193713E+02  0.41800000000E+01 0. -1.
</event>
<event>
11    1  0.1003949E-008  0.1794531E+03  0.7561462E-02  0.1070086E+00
         22   -1    0    0    0    0  0.00000000000E+00  0.00000000000E+00  0.15115561665E+03  0.15115561665E+03  0.00000000000E+00 0.  1.
         22   -1    0    0    0    0 -0.00000000000E+00 -0.00000000000E+00 -0.13495263089E+04  0.13495263089E+04  0.00000000000E+00 0. -1.
         24    2    1    2    0    0  0.11654073728E+03 -0.37018379831E+02 -0.70748091127E+03  0.72238302558E+03  0.79723848004E+02 0.  0.
         25    2    1    2    0    0 -0.94525057830E+02  0.13871842470E+03 -0.58147524807E+03  0.61801221301E+03  0.12509134025E+03 0.  0.
        -24    2    1    2    0    0 -0.22015679448E+02 -0.10170004487E+03  0.90585467114E+02  0.16028668694E+03  0.81599668442E+02 0.  0.
        -11    1    3    3    0    0  0.26503454577E+01 -0.72106166973E+00  0.16791382040E+01  0.32192803675E+01  0.00000000000E+00 0.  1.
         12    1    3    3    0    0  0.11389039182E+03 -0.36297318161E+02 -0.70916004947E+03  0.71916374521E+03  0.00000000000E+00 0. -1.
         13    1    5    5    0    0 -0.56688736793E+01  0.11387456645E+02 -0.24303177287E+01  0.12950549868E+02  0.00000000000E+00 0. -1.
        -14    1    5    5    0    0 -0.16346805769E+02 -0.11308750151E+03  0.93015784842E+02  0.14733613707E+03  0.00000000000E+00 0.  1.
          5    1    4    4  501    0 -0.51350648486E+02  0.12995596096E+03 -0.27637388380E+03  0.30971831869E+03  0.41800000000E+01 0. -1.
         -5    1    4    4    0  501 -0.43174409344E+02  0.87624637363E+01 -0.30510136427E+03  0.30829389432E+03  0.41800000000E+01 0. -1.
</event>
<event>
11    1  0.1003949E-008  0.1530434E+03  0.7561462E-02  0.1093809E+00
         22   -1    0    0    0    0  0.00000000000E+00  0.00000000000E+00  0.61353449469E+03  0.61353449469E+03  0.00000000000E+00 0.  1.
         22   -1    0    0    0    0 -0.00000000000E+00 -0.00000000000E+00 -0.24527795592E+03  0.24527795592E+03  0.00000000000E+00 0. -1.
         24    2    1    2    0    0 -0.12657371931E+02 -0.63648454033E+02 -0.18657824321E+03  0.21439223797E+03  0.83314201058E+02 0.  0.
         25    2    1    2    0    0 -0.54720056816E+02  0.11124139839E+03  0.17697993002E+03  0.24967578895E+03  0.12508865107E+03 0.  0.
        -24    2    1    2    0    0  0.67377428747E+02 -0.47592944353E+02  0.37785485195E+03  0.39474442369E+03  0.79019394031E+02 0.  0.
        -11    1    3    3    0    0 -0.21117926759E+01  0.20277633237E+02 -0.46218915877E+02  0.50515643743E+02  0.00000000000E+00 0.  1.
         12    1    3    3    0    0 -0.10545579255E+02 -0.83926087270E+02 -0.14035932733E+03  0.16387659423E+03  0.00000000000E+00 0. -1.
         13    1    5    5    0    0  0.28277919963E+02  0.20628271425E+02  0.98509623748E+02  0.10454335135E+03  0.00000000000E+00 0. -1.
        -14    1    5    5    0    0  0.39099508784E+02 -0.68221215778E+02  0.27934522820E+03  0.29020107234E+03  0.00000000000E+00 0.  1.
          5    1    4    4  501    0  0.17376770065E+01 -0.18654805098E+02 -0.42164767016E+01  0.19653812617E+02  0.41800000000E+01 0. -1.
         -5    1    4    4    0  501 -0.56457733822E+02  0.12989620348E+03  0.18119640672E+03  0.23002197634E+03  0.41800000000E+01 0. -1.
</event>
<event>
11    1  0.1569848E-008  0.1585972E+03  0.7561462E-02  0.1088404E+00
         22   -1    0    0    0    0  0.00000000000E+00  0.00000000000E+00  0.75820584834E+03  0.75820584834E+03  0.00000000000E+00 0. -1.
         22   -1    0    0    0    0 -0.00000000000E+00 -0.00000000000E+00 -0.53491412818E+03  0.53491412818E+03  0.00000000000E+00 0.  1.
        -24    2    1    2    0    0  0.25882862129E+02 -0.34799114290E+02 -0.25152329100E+03  0.26779612757E+03  0.81054914212E+02 0.  0.
         25    2    1    2    0    0 -0.89947224559E+02  0.10714579531E+03 -0.23712659717E+03  0.30240239294E+03  0.12508980578E+03 0.  0.
         24    2    1    2    0    0  0.64064362430E+02 -0.72346681021E+02  0.71194160833E+03  0.72292145601E+03  0.80101767125E+02 0.  0.
        -13    1    5    5    0    0  0.65929053271E+01 -0.29474485858E+02  0.61254854262E+02  0.68296185017E+02  0.00000000000E+00 0.  1.
         14    1    5    5    0    0  0.57471457103E+02 -0.42872195162E+02  0.65068675407E+03  0.65462527099E+03  0.00000000000E+00 0. -1.
         11    1    3    3    0    0 -0.16132167629E+02  0.17396099645E+02 -0.86341088107E+02  0.89541356985E+02  0.00000000000E+00 0. -1.
        -12    1    3    3    0    0  0.42015029757E+02 -0.52195213935E+02 -0.16518220290E+03  0.17825477059E+03  0.00000000000E+00 0.  1.
          5    1    4    4  501    0 -0.32139701153E+02 -0.16554557978E+02 -0.10655089050E+02  0.37921195955E+02  0.41800000000E+01 0. -1.
         -5    1    4    4    0  501 -0.57807523406E+02  0.12370035329E+03 -0.22647150812E+03  0.26448119698E+03  0.41800000000E+01 0. -1.
</event>
<event>
11    1  0.1003949E-008  0.1729370E+03  0.7561462E-02  0.1075504E+00
         22   -1    0    0    0    0  0.00000000000E+00  0.00000000000E+00  0.22085356622E+03  0.22085356622E+03  0.00000000000E+00 0.  1.
         22   -1    0    0    0    0 -0.00000000000E+00 -0.00000000000E+00 -0.20584681336E+04  0.20584681336E+04  0.00000000000E+00 0. -1.
        -24    2    1    2    0    0 -0.94734841711E+02 -0.73276007277E+02 -0.18630897425E+04  0.18686460652E+04  0.79941633227E+02 0.  0.
         25    2    1    2    0    0  0.11695229060E+03  0.33735658024E+02 -0.13875381048E+03  0.22298411252E+03  0.12511339501E+03 0.  0.
         24    2    1    2    0    0 -0.22217448889E+02  0.39540349253E+02  0.16422898561E+03  0.18769152214E+03  0.78739402567E+02 0.  0.
        -11    1    5    5    0    0 -0.18638360195E+02  0.27488836816E+02  0.17045651360E+03  0.17366187736E+03  0.00000000000E+00 0.  1.
         12    1    5    5    0    0 -0.35790886942E+01  0.12051512437E+02 -0.62275279900E+01  0.14029644784E+02  0.00000000000E+00 0. -1.
         13    1    3    3    0    0 -0.12197286240E+02 -0.26001580087E+01 -0.78397513292E+03  0.78407432279E+03  0.00000000000E+00 0. -1.
        -14    1    3    3    0    0 -0.82537555471E+02 -0.70675849268E+02 -0.10791146096E+04  0.10845717424E+04  0.00000000000E+00 0.  1.
          5    1    4    4  501    0  0.19657218589E+02 -0.91200345481E+01  0.21379126442E+02  0.30726547483E+02  0.41800000000E+01 0. -1.
         -5    1    4    4    0  501  0.97295072011E+02  0.42855692572E+02 -0.16013293693E+03  0.19225756503E+03  0.41800000000E+01 0. -1.
</event>
<event>
11    1  0.1003949E-008  0.1204309E+04  0.7561462E-02  0.8505782E-01
         22   -1    0    0    0    0  0.00000000000E+00  0.00000000000E+00  0.15498982668E+04  0.15498982668E+04  0.00000000000E+00 0. -1.
         22   -1    0    0    0    0 -0.00000000000E+00 -0.00000000000E+00 -0.28635203903E+04  0.28635203903E+04  0.00000000000E+00 0. -1.
         24    2    1    2    0    0  0.75854487855E+03  0.34301198354E+02 -0.13010581173E+04  0.15085164301E+04  0.79389485816E+02 0.  0.
         25    2    1    2    0    0 -0.17435160806E+04  0.23600306490E+03 -0.40149535737E+03  0.18089757389E+04  0.12509569207E+03 0.  0.
        -24    2    1    2    0    0  0.98497120201E+03 -0.27030426325E+03  0.38893135114E+03  0.10959264881E+04  0.80960532771E+02 0.  0.
        -11    1    3    3    0    0  0.66707878652E+03  0.54442275065E+02 -0.11226804628E+04  0.13070460934E+04  0.00000000000E+00 0.  1.
         12    1    3    3    0    0  0.91466092033E+02 -0.20141076711E+02 -0.17837765450E+03  0.20147033674E+03  0.00000000000E+00 0. -1.
         13    1    5    5    0    0  0.75409403027E+03 -0.17464204801E+03  0.27741023358E+03  0.82226156977E+03  0.00000000000E+00 0. -1.
        -14    1    5    5    0    0  0.23087717174E+03 -0.95662215243E+02  0.11152111757E+03  0.27366491832E+03  0.00000000000E+00 0.  1.
          5    1    4    4  501    0 -0.12514903941E+04  0.18347632046E+03 -0.34392535376E+03  0.13107989502E+04  0.41800000000E+01 0. -1.
         -5    1    4    4    0  501 -0.49202568650E+03  0.52526744438E+02 -0.57570003619E+02  0.49817678868E+03  0.41800000000E+01 0. -1.
</event>
<event>
11    1  0.1003949E-008  0.2616244E+03  0.7561462E-02  0.1017883E+00
         22   -1    0    0    0    0  0.00000000000E+00  0.00000000000E+00  0.70061743795E+03  0.70061743795E+03  0.00000000000E+00 0. -1.
         22   -1    0    0    0    0 -0.00000000000E+00 -0.00000000000E+00 -0.92702127521E+03  0.92702127521E+03  0.00000000000E+00 0. -1.
         24    2    1    2    0    0 -0.22251665818E+03  0.36581805186E+02 -0.81276463530E+03  0.84731429519E+03  0.80642859581E+02 0.  0.
         25    2    1    2    0    0  0.33102469438E+03  0.29656618957E+01  0.31016046098E+03  0.47056706905E+03  0.12509081295E+03 0.  0.
        -24    2    1    2    0    0 -0.10850803620E+03 -0.39547467082E+02  0.27620033707E+03  0.30975734892E+03  0.79529824204E+02 0.  0.
        -11    1    3    3    0    0 -0.20318533354E+02  0.66039675272E+01 -0.22441619060E+02  0.30985181148E+02  0.00000000000E+00 0.  1.
         12    1    3    3    0    0 -0.20219812483E+03  0.29977837659E+02 -0.79032301624E+03  0.81632911404E+03  0.00000000000E+00 0. -1.
         13    1    5    5    0    0 -0.12065087577E+03 -0.36008243525E+02  0.26235780094E+03  0.29100660326E+03  0.00000000000E+00 0. -1.
        -14    1    5    5    0    0  0.12142839571E+02 -0.35392235561E+01  0.13842536132E+02  0.18750745660E+02  0.00000000000E+00 0.  1.
          5    1    4    4  501    0  0.31156800613E+03 -0.25956177535E+02  0.30160560921E+03  0.43443268927E+03  0.41800000000E+01 0.  1.
         -5    1    4    4    0  501  0.19456688251E+02  0.28921839430E+02  0.85548517617E+01  0.36134379785E+02  0.41800000000E+01 0.  1.
</event>
<event>
11    1  0.1003949E-008  0.1511039E+03  0.7561462E-02  0.1095756E+00
         22   -1    0    0    0    0  0.00000000000E+00  0.00000000000E+00  0.85247294532E+03  0.85247294532E+03  0.00000000000E+00 0. -1.
         22   -1    0    0    0    0 -0.00000000000E+00 -0.00000000000E+00 -0.12096049588E+03  0.12096049588E+03  0.00000000000E+00 0.  1.
         24    2    1    2    0    0 -0.45740169119E+02 -0.58441174301E+02  0.46791517471E+02  0.12012238839E+03  0.82051253259E+02 0.  0.
         25    2    1    2    0    0  0.55370357106E+02  0.76311948950E+02 -0.68319663956E+01  0.15678715726E+03  0.12508455907E+03 0.  0.
        -24    2    1    2    0    0 -0.96301879863E+01 -0.17870774649E+02  0.69155289837E+03  0.69652389555E+03  0.80548250942E+02 0.  0.
        -13    1    3    3    0    0 -0.64142329464E+02 -0.42171236457E+02  0.12245825074E+02  0.77734238564E+02  0.00000000000E+00 0.  1.
         14    1    3    3    0    0  0.18402160345E+02 -0.16269937844E+02  0.34545692396E+02  0.42388149829E+02  0.00000000000E+00 0. -1.
         13    1    5    5    0    0  0.72016752107E+00 -0.59375170076E-02  0.65115782543E+03  0.65115822370E+03  0.00000000000E+00 0. -1.
        -14    1    5    5    0    0 -0.10350355507E+02 -0.17864837132E+02  0.40395072936E+02  0.45365671850E+02  0.00000000000E+00 0.  1.
          5    1    4    4  501    0 -0.37058544001E+02  0.43132273504E+02  0.72962578042E+01  0.57484228089E+02  0.41800000000E+01 0.  1.
         -5    1    4    4    0  501  0.92428901107E+02  0.33179675446E+02 -0.14128224200E+02  0.99302929169E+02  0.41800000000E+01 0.  1.
</event>
<event>
11    1  0.1003949E-008  0.1718031E+03  0.7561462E-02  0.1076473E+00
         22   -1    0    0    0    0  0.00000000000E+00  0.00000000000E+00  0.75671630613E+02  0.75671630613E+02  0.00000000000E+00 0.  1.
         22   -1    0    0    0    0 -0.00000000000E+00 -0.00000000000E+00 -0.13222605214E+04  0.13222605214E+04  0.00000000000E+00 0. -1.
        -24    2    1    2    0    0 -0.49027711752E+02 -0.10847323149E+03 -0.90306513252E+03  0.91272372068E+03  0.58032734300E+02 0.  0.
         25    2    1    2    0    0  0.35824948119E+02  0.10751408115E+03 -0.36324342386E+03  0.40054500748E+03  0.12509122068E+03 0.  0.
         24    2    1    2    0    0  0.13202763633E+02  0.95915034009E+00  0.19719665632E+02  0.84663423808E+02  0.81263750721E+02 0.  0.
        -13    1    5    5    0    0 -0.19977300519E+02  0.68294481293E+01  0.40075607216E+02  0.45296668658E+02  0.00000000000E+00 0.  1.
         14    1    5    5    0    0  0.33180064152E+02 -0.58702977892E+01 -0.20355941584E+02  0.39366755150E+02  0.00000000000E+00 0. -1.
         13    1    3    3    0    0 -0.35988511506E+02 -0.11277768896E+03 -0.78808320046E+03  0.79692478373E+03  0.00000000000E+00 0. -1.
        -14    1    3    3    0    0 -0.13039200247E+02  0.43044574642E+01 -0.11498193207E+03  0.11579893695E+03  0.00000000000E+00 0.  1.
          5    1    4    4  501    0  0.44830371614E+02  0.67950841873E+01 -0.22297224663E+03  0.22757423087E+03  0.41800000000E+01 0. -1.
         -5    1    4    4    0  501 -0.90054234944E+01  0.10071899697E+03 -0.14027117723E+03  0.17297077662E+03  0.41800000000E+01 0. -1.
</event>
<event>
11    1  0.1003949E-008  0.3890283E+03  0.7561462E-02  0.9682697E-01
         22   -1    0    0    0    0  0.00000000000E+00  0.00000000000E+00  0.81304270450E+03  0.81304270450E+03  0.00000000000E+00 0.  1.
         22   -1    0    0    0    0 -0.00000000000E+00 -0.00000000000E+00 -0.10835051484E+04  0.10835051484E+04  0.00000000000E+00 0. -1.
         24    2    1    2    0    0 -0.15463093838E+03  0.19958658892E+02 -0.58156440471E+03  0.60738145439E+03  0.79912446768E+02 0.  0.
         25    2    1    2    0    0  0.50624427813E+03 -0.41842040103E+02 -0.28247986556E+03  0.59453953285E+03  0.12509338996E+03 0.  0.
        -24    2    1    2    0    0 -0.35161333976E+03  0.21883381212E+02  0.59358182639E+03  0.69462686564E+03  0.77822071233E+02 0.  0.
        -11    1    3    3    0    0 -0.61665088454E+02  0.18389871914E+02 -0.11627891335E+03  0.13289678782E+03  0.00000000000E+00 0.  1.
         12    1    3    3    0    0 -0.92965849923E+02  0.15687869777E+01 -0.46528549135E+03  0.47448466657E+03  0.00000000000E+00 0. -1.
         13    1    5    5    0    0 -0.38741630857E+02 -0.56968088097E+01  0.29608807508E+02  0.49092250653E+02  0.00000000000E+00 0. -1.
        -14    1    5    5    0    0 -0.31287170890E+03  0.27580190022E+02  0.56397301889E+03  0.64553461499E+03  0.00000000000E+00 0.  1.
          5    1    4    4  501    0  0.27928762611E+03  0.13603567801E+02 -0.21054954562E+03  0.35005030883E+03  0.41800000000E+01 0.  1.
         -5    1    4    4    0  501  0.22695665203E+03 -0.55445607904E+02 -0.71930319948E+02  0.24448922402E+03  0.41800000000E+01 0.  1.
</event>
<event>
11    1  0.1003949E-008  0.1450244E+03  0.7561462E-02  0.1102074E+00
         22   -1    0    0    0    0  0.00000000000E+00  0.00000000000E+00  0.76426091680E+03  0.76426091680E+03  0.00000000000E+00 0.  1.
         22   -1    0    0    0    0 -0.00000000000E+00 -0.00000000000E+00 -0.15386614838E+04  0.15386614838E+04  0.00000000000E+00 0.  1.
         24    2    1    2    0    0  0.34801590005E+01 -0.48616507939E+02 -0.13223068142E+04  0.13256895651E+04  0.81128514781E+02 0.  0.
         25    2    1    2    0    0 -0.76782497456E+02  0.49243202818E+02 -0.18227765025E+03  0.23915000472E+03  0.12508852081E+03 0.  0.
        -24    2    1    2    0    0  0.73302338455E+02 -0.62669487930E+00  0.73018389736E+03  0.73808283081E+03  0.78893064294E+02 0.  0.
        -13    1    3    3    0    0  0.23923526382E+02 -0.51453790406E+02 -0.12201466820E+04  0.12214654122E+04  0.00000000000E+00 0.  1.
         14    1    3    3    0    0 -0.20443367382E+02  0.28372824670E+01 -0.10216013220E+03  0.10422415292E+03  0.00000000000E+00 0. -1.
         11    1    5    5    0    0  0.26754855522E+02 -0.44905612364E+01  0.55415356231E+02  0.61699668884E+02  0.00000000000E+00 0. -1.
        -12    1    5    5    0    0  0.46547482933E+02  0.38638663571E+01  0.67476854113E+03  0.67638316192E+03  0.00000000000E+00 0.  1.
          5    1    4    4  501    0 -0.47878863783E+02 -0.35400594529E+02 -0.10542582373E+03  0.12115141105E+03  0.41800000000E+01 0.  1.
         -5    1    4    4    0  501 -0.28903633673E+02  0.84643797347E+02 -0.76851826519E+02  0.11799859367E+03  0.41800000000E+01 0.  1.
</event>
<event>
11    1  0.1003949E-008  0.1649244E+03  0.7561462E-02  0.1082535E+00
         22   -1    0    0    0    0  0.00000000000E+00  0.00000000000E+00  0.17227420285E+03  0.17227420285E+03  0.00000000000E+00 0.  1.
         22   -1    0    0    0    0 -0.00000000000E+00 -0.00000000000E+00 -0.15278382054E+04  0.15278382054E+04  0.00000000000E+00 0. -1.
         24    2    1    2    0    0  0.10122328942E+03  0.22675156139E+02 -0.11930198574E+04  0.12001919238E+04  0.80024725861E+02 0.  0.
         25    2    1    2    0    0 -0.12695465341E+03 -0.54743164338E+02 -0.28937284106E+03  0.34423493990E+03  0.12508698828E+03 0.  0.
        -24    2    1    2    0    0  0.25731363998E+02  0.32068008199E+02  0.12682869594E+03  0.15568554453E+03  0.80386630841E+02 0.  0.
        -13    1    3    3    0    0  0.21979123709E+00  0.34079757088E+01 -0.75014302024E+00  0.34964726755E+01  0.00000000000E+00 0.  1.
         14    1    3    3    0    0  0.10100349818E+03  0.19267180430E+02 -0.11922697144E+04  0.11966954511E+04  0.00000000000E+00 0. -1.
         13    1    5    5    0    0  0.13784499875E+02  0.30099348557E+02  0.52665974537E+01  0.33521937133E+02  0.00000000000E+00 0. -1.
        -14    1    5    5    0    0  0.11946864123E+02  0.19686596418E+01  0.12156209849E+03  0.12216360740E+03  0.00000000000E+00 0.  1.
          5    1    4    4  501    0 -0.36739181935E+02  0.23639269342E+02 -0.17541046494E+02  0.47262493125E+02  0.41800000000E+01 0.  1.
         -5    1    4    4    0  501 -0.90215471480E+02 -0.78382433680E+02 -0.27183179457E+03  0.29697244677E+03  0.41800000000E+01 0.  1.
</event>
<event>
11    1  0.1003949E-008  0.4978745E+03  0.7561462E-02  0.9398283E-01
         22   -1    0    0    0    0  0.00000000000E+00  0.00000000000E+00  0.19973598304E+03  0.19973598304E+03  0.00000000000E+00 0.  1.
         22   -1    0    0    0    0 -0.00000000000E+00 -0.00000000000E+00 -0.25283003333E+04  0.25283003333E+04  0.00000000000E+00 0.  1.
        -24    2    1    2    0    0  0.43459905429E+03 -0.13995656323E+03 -0.15105214192E+04  0.15791897471E+04  0.60836847785E+02 0.  0.
         25    2    1    2    0    0 -0.49319882619E+03  0.24263861123E+03 -0.83187213047E+03  0.10048766036E+04  0.12508864536E+03 0.  0.
         24    2    1    2    0    0  0.58599771900E+02 -0.10268204800E+03  0.13829199416E+02  0.14396996559E+03  0.80984986194E+02 0.  0.
        -13    1    5    5    0    0  0.55189507709E+02 -0.10522697648E+03  0.33812219639E+02  0.12353891912E+03  0.00000000000E+00 0.  1.
         14    1    5    5    0    0  0.34102641909E+01  0.25449284808E+01 -0.19983020224E+02  0.20431046475E+02  0.00000000000E+00 0. -1.
         13    1    3    3    0    0  0.59900822648E+02 -0.24200766788E+02 -0.15111905679E+03  0.16434949039E+03  0.00000000000E+00 0. -1.
        -14    1    3    3    0    0  0.37469823164E+03 -0.11575579644E+03 -0.13594023624E+04  0.14148402567E+04  0.00000000000E+00 0.  1.
          5    1    4    4  501    0 -0.36004381465E+03  0.16716574399E+03 -0.69047871297E+03  0.79646359609E+03  0.41800000000E+01 0.  1.
         -5    1    4    4    0  501 -0.13315501154E+03  0.75472867241E+02 -0.14139341750E+03  0.20841300751E+03  0.41800000000E+01 0.  1.
</event>
<event>
11    1  0.1003949E-008  0.1390765E+03  0.7561462E-02  0.1108594E+00
         22   -1    0    0    0    0  0.00000000000E+00  0.00000000000E+00  0.19012278955E+04  0.19012278955E+04  0.00000000000E+00 0. -1.
         22   -1    0    0    0    0 -0.00000000000E+00 -0.00000000000E+00 -0.44165041195E+03  0.44165041195E+03  0.00000000000E+00 0.  1.
        -24    2    1    2    0    0 -0.55425841609E+02 -0.22445278779E+02 -0.41318404054E+03  0.42516398228E+03  0.80421054544E+02 0.  0.
         25    2    1    2    0    0  0.10412796926E+03  0.32111308773E+02  0.30612607281E+03  0.34820646799E+03  0.12514312511E+03 0.  0.
         24    2    1    2    0    0 -0.48702127652E+02 -0.96660299936E+01  0.15666354513E+04  0.15695078572E+04  0.80888485675E+02 0.  0.
        -13    1    5    5    0    0 -0.42537605242E+02 -0.10974927743E+02  0.33640764236E+03  0.33926390722E+03  0.00000000000E+00 0.  1.
         14    1    5    5    0    0 -0.61645224103E+01  0.13088977496E+01  0.12302278089E+04  0.12302439500E+04  0.00000000000E+00 0. -1.
         11    1    3    3    0    0 -0.44118356372E+02  0.15391615895E+02 -0.11133620257E+03  0.12074386614E+03  0.00000000000E+00 0. -1.
        -12    1    3    3    0    0 -0.11307485237E+02 -0.37836894674E+02 -0.30184783797E+03  0.30442011614E+03  0.00000000000E+00 0.  1.
          5    1    4    4  501    0  0.54084942601E+02  0.61238698570E+02  0.78812221181E+02  0.11359664531E+03  0.41800000000E+01 0. -1.
         -5    1    4    4    0  501  0.50043026661E+02 -0.29127389797E+02  0.22731385163E+03  0.23460982268E+03  0.41800000000E+01 0. -1.
</event>
<event>
11    1  0.1003949E-008  0.2334788E+03  0.7561462E-02  0.1033088E+00
         22   -1    0    0    0    0  0.00000000000E+00  0.00000000000E+00  0.20904134748E+03  0.20904134748E+03  0.00000000000E+00 0.  1.
         22   -1    0    0    0    0 -0.00000000000E+00 -0.00000000000E+00 -0.21006028981E+04  0.21006028981E+04  0.00000000000E+00 0. -1.
        -24    2    1    2    0    0  0.65229120542E+02  0.65942978563E+02 -0.14778667099E+04  0.14828766212E+04  0.78928747091E+02 0.  0.
         25    2    1    2    0    0 -0.27367922787E+02 -0.25360017643E+03 -0.51746569681E+03  0.59032129915E+03  0.12508571531E+03 0.  0.
         24    2    1    2    0    0 -0.37861197755E+02  0.18765719787E+03  0.10377085600E+03  0.23644632524E+03  0.92140001934E+02 0.  0.
        -11    1    5    5    0    0 -0.40544851857E+02  0.17471014488E+03  0.11978757506E+03  0.21567703372E+03  0.00000000000E+00 0.  1.
         12    1    5    5    0    0  0.26836541025E+01  0.12947052985E+02 -0.16016719064E+02  0.20769291512E+02  0.00000000000E+00 0. -1.
         13    1    3    3    0    0  0.72039535169E+02  0.78905325647E+02 -0.12627397356E+04  0.12672519027E+04  0.00000000000E+00 0. -1.
        -14    1    3    3    0    0 -0.68104146272E+01 -0.12962347084E+02 -0.21512697426E+03  0.21562471854E+03  0.00000000000E+00 0.  1.
          5    1    4    4  501    0 -0.77124422149E+02 -0.14773408974E+03 -0.31802406403E+03  0.35906867792E+03  0.41800000000E+01 0. -1.
         -5    1    4    4    0  501  0.49756499362E+02 -0.10586608669E+03 -0.19944163278E+03  0.23125262123E+03  0.41800000000E+01 0. -1.
</event>
<event>
11    1  0.1003949E-008  0.1723164E+03  0.7561462E-02  0.1076033E+00
         22   -1    0    0    0    0  0.00000000000E+00  0.00000000000E+00  0.71372348283E+03  0.71372348283E+03  0.00000000000E+00 0. -1.
         22   -1    0    0    0    0 -0.00000000000E+00 -0.00000000000E+00 -0.16871580737E+03  0.16871580737E+03  0.00000000000E+00 0. -1.
        -24    2    1    2    0    0  0.10049883986E+03  0.22307120477E+02 -0.25836023934E+02  0.13124038545E+03  0.77194003665E+02 0.  0.
         25    2    1    2    0    0 -0.14024470726E+03 -0.65916537493E+02  0.30177035691E+02  0.20142442195E+03  0.12509027319E+03 0.  0.
         24    2    1    2    0    0  0.39745867399E+02  0.43609417016E+02  0.54066666370E+03  0.54977448280E+03  0.80312050562E+02 0.  0.
        -13    1    5    5    0    0  0.80351760534E+01  0.23454118084E+01  0.39503531786E+03  0.39512398986E+03  0.00000000000E+00 0.  1.
         14    1    5    5    0    0  0.31710691345E+02  0.41264005207E+02  0.14563134585E+03  0.15465049293E+03  0.00000000000E+00 0. -1.
         11    1    3    3    0    0  0.87675556308E+02  0.45032994442E+02 -0.33403754481E+02  0.10407105542E+03  0.00000000000E+00 0. -1.
        -12    1    3    3    0    0  0.12823283553E+02 -0.22725873965E+02  0.75677305466E+01  0.27169330028E+02  0.00000000000E+00 0.  1.
          5    1    4    4  501    0 -0.45319967033E+02 -0.53779093533E+02 -0.41518305512E+02  0.81776111461E+02  0.41800000000E+01 0. -1.
         -5    1    4    4    0  501 -0.94924740227E+02 -0.12137443960E+02  0.71695341204E+02  0.11964831049E+03  0.41800000000E+01 0. -1.
</event>
<event>
11    1  0.1003949E-008  0.1408977E+03  0.7561462E-02  0.1106560E+00
         22   -1    0    0    0    0  0.00000000000E+00  0.00000000000E+00  0.28822907666E+03  0.28822907666E+03  0.00000000000E+00 0.  1.
         22   -1    0    0    0    0 -0.00000000000E+00 -0.00000000000E+00 -0.19465976879E+04  0.19465976879E+04  0.00000000000E+00 0.  1.
        -24    2    1    2    0    0  0.36680924124E+01  0.64559047792E+02 -0.18534986229E+04  0.18563630016E+04  0.80281522746E+02 0.  0.
         25    2    1    2    0    0 -0.61716242387E+00 -0.72643659312E+02 -0.23200844525E+02  0.14650379611E+03  0.12509037117E+03 0.  0.
         24    2    1    2    0    0 -0.30509299886E+01  0.80846115196E+01  0.21833085616E+03  0.23195996694E+03  0.77861379342E+02 0.  0.
        -13    1    5    5    0    0  0.73141830664E+01 -0.16315276595E+02  0.19733292609E+03  0.19814128607E+03  0.00000000000E+00 0.  1.
         14    1    5    5    0    0 -0.10365113055E+02  0.24399888114E+02  0.20997930065E+02  0.33818680868E+02  0.00000000000E+00 0. -1.
         13    1    3    3    0    0  0.35694985052E+02  0.59146243896E+01 -0.68711601575E+03  0.68806797182E+03  0.00000000000E+00 0. -1.
        -14    1    3    3    0    0 -0.32026892640E+02  0.58644423403E+02 -0.11663826071E+04  0.11682950297E+04  0.00000000000E+00 0.  1.
          5    1    4    4  501    0  0.41141803612E+02 -0.12312055971E+02  0.32723379642E+02  0.54152808809E+02  0.41800000000E+01 0.  1.
         -5    1    4    4    0  501 -0.41758966036E+02 -0.60331603341E+02 -0.55924224167E+02  0.92350987297E+02  0.41800000000E+01 0.  1.
</event>
<event>
11    1  0.1003949E-008  0.3262648E+03  0.7561462E-02  0.9896499E-01
         22   -1    0    0    0    0  0.00000000000E+00  0.00000000000E+00  0.11481588946E+04  0.11481588946E+04  0.00000000000E+00 0. -1.
         22   -1    0    0    0    0 -0.00000000000E+00 -0.00000000000E+00 -0.11343691322E+04  0.11343691322E+04  0.00000000000E+00 0. -1.
        -24    2    1    2    0    0 -0.21237060415E+03 -0.16593360802E+03 -0.60164875608E+03  0.66399987939E+03  0.79242528671E+02 0.  0.
         25    2    1    2    0    0  0.36364180871E+03  0.16432692427E+03 -0.40609354045E+03  0.58292236197E+03  0.12509122034E+03 0.  0.
         24    2    1    2    0    0 -0.15127120456E+03  0.16066837571E+01  0.10215320589E+04  0.10356057854E+04  0.77884764587E+02 0.  0.
        -13    1    5    5    0    0  0.65632016903E+01 -0.21902938874E+01  0.13131039413E+03  0.13149255725E+03  0.00000000000E+00 0.  1.
         14    1    5    5    0    0 -0.15783440625E+03  0.37969776445E+01  0.89022166482E+03  0.90411322816E+03  0.00000000000E+00 0. -1.
         13    1    3    3    0    0 -0.15234714756E+03 -0.75448987470E+02 -0.32443496955E+03  0.36627892725E+03  0.00000000000E+00 0. -1.
        -14    1    3    3    0    0 -0.60023456594E+02 -0.90484620554E+02 -0.27721378654E+03  0.29772095214E+03  0.00000000000E+00 0.  1.
          5    1    4    4  501    0  0.22816643318E+03  0.68188439953E+02 -0.16357987530E+03  0.28893845811E+03  0.41800000000E+01 0.  1.
         -5    1    4    4    0  501  0.13547537553E+03  0.96138484314E+02 -0.24251366515E+03  0.29398390385E+03  0.41800000000E+01 0.  1.
</event>
<event>
11    1  0.1003949E-008  0.1422388E+03  0.7561462E-02  0.1105084E+00
         22   -1    0    0    0    0  0.00000000000E+00  0.00000000000E+00  0.25064656710E+03  0.25064656710E+03  0.00000000000E+00 0. -1.
         22   -1    0    0    0    0 -0.00000000000E+00 -0.00000000000E+00 -0.12244438264E+04  0.12244438264E+04  0.00000000000E+00 0.  1.
         24    2    1    2    0    0 -0.10739344568E+02 -0.15620536006E+00 -0.74768256548E+03  0.75216771446E+03  0.81312323961E+02 0.  0.
         25    2    1    2    0    0  0.74152076947E+02  0.23186009467E+02 -0.45117763624E+03  0.47459885443E+03  0.12508673645E+03 0.  0.
        -24    2    1    2    0    0 -0.63412732380E+02 -0.23029804107E+02  0.22506294242E+03  0.24832382461E+03  0.80373175330E+02 0.  0.
        -11    1    3    3    0    0 -0.29821559953E+02 -0.28917176824E+02 -0.26326123955E+03  0.26651830857E+03  0.00000000000E+00 0.  1.
         12    1    3    3    0    0  0.19082215385E+02  0.28760971464E+02 -0.48442132593E+03  0.48564940589E+03  0.00000000000E+00 0. -1.
         13    1    5    5    0    0 -0.69452002832E+02 -0.15522214855E+02  0.22751178207E+03  0.23838232072E+03  0.00000000000E+00 0. -1.
        -14    1    5    5    0    0  0.60392704524E+01 -0.75075892523E+01 -0.24488396482E+01  0.99415038903E+01  0.00000000000E+00 0.  1.
          5    1    4    4  501    0  0.97222480728E+02  0.51678157685E+02 -0.32787375869E+03  0.34589234854E+03  0.41800000000E+01 0.  1.
         -5    1    4    4    0  501 -0.23070403781E+02 -0.28492148218E+02 -0.12330387754E+03  0.12870650589E+03  0.41800000000E+01 0.  1.
</event>
<event>
11    1  0.1003949E-008  0.1293245E+03  0.7561462E-02  0.1120102E+00
         22   -1    0    0    0    0  0.00000000000E+00  0.00000000000E+00  0.57306862817E+03  0.57306862817E+03  0.00000000000E+00 0.  1.
         22   -1    0    0    0    0 -0.00000000000E+00 -0.00000000000E+00 -0.11758938762E+03  0.11758938762E+03  0.00000000000E+00 0.  1.
        -24    2    1    2    0    0 -0.31815940709E+02 -0.18786654833E+01 -0.57913686008E+02  0.10523818730E+03  0.81885881397E+02 0.  0.
         25    2    1    2    0    0  0.38539767734E+02 -0.91548804186E+01  0.10260198227E+03  0.16656475731E+03  0.12509007187E+03 0.  0.
         24    2    1    2    0    0 -0.67238270242E+01  0.11033545902E+02  0.41079094429E+03  0.41885507118E+03  0.80767702449E+02 0.  0.
        -13    1    5    5    0    0 -0.10489679901E+02  0.14907105907E+02  0.41271719399E+03  0.41311951951E+03  0.00000000000E+00 0.  1.
         14    1    5    5    0    0  0.37658528772E+01 -0.38735600052E+01 -0.19262496991E+01  0.57355516657E+01  0.00000000000E+00 0. -1.
         11    1    3    3    0    0 -0.12898301643E+02 -0.26515654373E+01  0.20613671472E+02  0.24460589447E+02  0.00000000000E+00 0. -1.
        -12    1    3    3    0    0 -0.18917639067E+02  0.77289995407E+00 -0.78527357480E+02  0.80777597854E+02  0.00000000000E+00 0.  1.
          5    1    4    4  501    0  0.39759675498E+02  0.53946792872E+02  0.62076156235E+02  0.91444025664E+02  0.41800000000E+01 0. -1.
         -5    1    4    4    0  501 -0.12199077641E+01 -0.63101673291E+02  0.40525826037E+02  0.75120731646E+02  0.41800000000E+01 0. -1.
</event>
<event>
11    1  0.1003949E-008  0.1462699E+03  0.7561462E-02  0.1100752E+00
         22   -1    0    0    0    0  0.00000000000E+00  0.00000000000E+00  0.91276509970E+02  0.91276509970E+02  0.00000000000E+00 0. -1.
         22   -1    0    0    0    0 -0.00000000000E+00 -0.00000000000E+00 -0.61680019962E+03  0.61680019962E+03  0.00000000000E+00 0. -1.
        -24    2    1    2    0    0 -0.58165824322E+02  0.62629401537E+02 -0.41830510730E+03  0.43472165419E+03  0.81841607857E+02 0.  0.
         25    2    1    2    0    0  0.33819502073E+02 -0.25500306008E+02 -0.12195713826E+03  0.17976472359E+03  0.12509111858E+03 0.  0.
         24    2    1    2    0    0  0.24346322249E+02 -0.37129095529E+02  0.14738555909E+02  0.93590331805E+02  0.81059311836E+02 0.  0.
        -11    1    5    5    0    0  0.47659251077E+02 -0.42476457113E+02 -0.28449379215E+01  0.63904204039E+02  0.00000000000E+00 0.  1.
         12    1    5    5    0    0 -0.23312928829E+02  0.53473615838E+01  0.17583493830E+02  0.29686127766E+02  0.00000000000E+00 0. -1.
         13    1    3    3    0    0 -0.21700356174E+02  0.71812477257E+02 -0.33539167867E+03  0.34367937888E+03  0.00000000000E+00 0. -1.
        -14    1    3    3    0    0 -0.36465468148E+02 -0.91830757198E+01 -0.82913428630E+02  0.91042275312E+02  0.00000000000E+00 0.  1.
          5    1    4    4  501    0 -0.15518757097E+02 -0.50923756594E+02 -0.94325996909E+01  0.54226443221E+02  0.41800000000E+01 0. -1.
         -5    1    4    4    0  501  0.49338259170E+02  0.25423450586E+02 -0.11252453857E+03  0.12553828037E+03  0.41800000000E+01 0. -1.
</event>
<event>
11    1  0.1003949E-008  0.2704486E+03  0.7561462E-02  0.1013537E+00
         22   -1    0    0    0    0  0.00000000000E+00  0.00000000000E+00  0.12811913073E+03  0.12811913073E+03  0.00000000000E+00 0.  1.
         22   -1    0    0    0    0 -0.00000000000E+00 -0.00000000000E+00 -0.18012171120E+04  0.18012171120E+04  0.00000000000E+00 0. -1.
        -24    2    1    2    0    0 -0.26445035396E+03 -0.57622224349E+02 -0.13892898081E+04  0.14175401494E+04  0.77714822537E+02 0.  0.
         25    2    1    2    0    0  0.12110048881E+03  0.12845563271E+03 -0.24766036297E+03  0.32886035409E+03  0.12508916475E+03 0.  0.
         24    2    1    2    0    0  0.14334986515E+03 -0.70833408365E+02 -0.36147810226E+02  0.18293573934E+03  0.81192764238E+02 0.  0.
        -13    1    5    5    0    0  0.10342928404E+03 -0.67938273974E+01 -0.25315610088E+02  0.10669888942E+03  0.00000000000E+00 0.  1.
         14    1    5    5    0    0  0.39920581104E+02 -0.64039580968E+02 -0.10832200138E+02  0.76236849922E+02  0.00000000000E+00 0. -1.
         13    1    3    3    0    0 -0.24768494086E+03 -0.52071940856E+02 -0.13599001293E+04  0.13832525722E+04  0.00000000000E+00 0. -1.
        -14    1    3    3    0    0 -0.16765413100E+02 -0.55502834931E+01 -0.29389678854E+02  0.34287577144E+02  0.00000000000E+00 0.  1.
          5    1    4    4  501    0  0.44748128497E+02  0.10507959037E+03 -0.21297357765E+03  0.24170091537E+03  0.41800000000E+01 0. -1.
         -5    1    4    4    0  501  0.76352360310E+02  0.23376042344E+02 -0.34686785322E+02  0.87159438712E+02  0.41800000000E+01 0. -1.
</event>
<event>
11    1  0.1003949E-008  0.1599471E+03  0.7561462E-02  0.1087127E+00
         22   -1    0    0    0    0  0.00000000000E+00  0.00000000000E+00  0.81260094786E+03  0.81260094786E+03  0.00000000000E+00 0.  1.
         22   -1    0    0    0    0 -0.00000000000E+00 -0.00000000000E+00 -0.36186742255E+03  0.36186742255E+03  0.00000000000E+00 0. -1.
         24    2    1    2    0    0 -0.12712096470E+02  0.10809579194E+03 -0.29344067950E+03  0.32282296984E+03  0.79126100892E+02 0.  0.
         25    2    1    2    0    0 -0.16618565942E+02 -0.45292011639E+02  0.40494279402E+02  0.14005262827E+03  0.12508960376E+03 0.  0.
        -24    2    1    2    0    0  0.29330662412E+02 -0.62803780297E+02  0.70367992540E+03  0.71159277229E+03  0.79963951856E+02 0.  0.
        -13    1    3    3    0    0 -0.23527324145E+02  0.51538696905E+02 -0.23116306389E+03  0.23800448392E+03  0.00000000000E+00 0.  1.
         14    1    3    3    0    0  0.10815227674E+02  0.56557095031E+02 -0.62277615611E+02  0.84818485922E+02  0.00000000000E+00 0. -1.
         13    1    5    5    0    0  0.17359910387E+02 -0.40159983215E+02  0.12663914354E+03  0.13398381774E+03  0.00000000000E+00 0. -1.
        -14    1    5    5    0    0  0.11970752026E+02 -0.22643797082E+02  0.57704078186E+03  0.57760895456E+03  0.00000000000E+00 0.  1.
          5    1    4    4  501    0 -0.41018052275E+02 -0.71475107091E+02 -0.42253357490E+01  0.82622620439E+02  0.41800000000E+01 0. -1.
         -5    1    4    4    0  501  0.24399486333E+02  0.26183095452E+02  0.44719615151E+02  0.57430007835E+02  0.41800000000E+01 0. -1.
</event>
<event>
11    1  0.1003949E-008  0.1427974E+03  0.7561462E-02  0.1104474E+00
         22   -1    0    0    0    0  0.00000000000E+00  0.00000000000E+00  0.42330221778E+03  0.42330221778E+03  0.00000000000E+00 0.  1.
         22   -1    0    0    0    0 -0.00000000000E+00 -0.00000000000E+00 -0.17592835788E+03  0.17592835788E+03  0.00000000000E+00 0. -1.
        -24    2    1    2    0    0 -0.66159234464E+02  0.29093593783E+02 -0.11033576688E+03  0.15352232366E+03  0.78559791915E+02 0.  0.
         25    2    1    2    0    0  0.34675417562E+02 -0.41706803531E+02  0.88007650163E+02  0.16228042435E+03  0.12509095730E+03 0.  0.
         24    2    1    2    0    0  0.31483816902E+02  0.12613209749E+02  0.26970197662E+03  0.28342782765E+03  0.80261158166E+02 0.  0.
        -13    1    5    5    0    0 -0.24327038104E+02  0.19008882450E+02  0.10168085911E+03  0.10626447904E+03  0.00000000000E+00 0.  1.
         14    1    5    5    0    0  0.55810855006E+02 -0.63956727010E+01  0.16802111750E+03  0.17716334862E+03  0.00000000000E+00 0. -1.
         11    1    3    3    0    0 -0.18096176002E+01  0.25990606846E+02 -0.76371617965E+02  0.80693310694E+02  0.00000000000E+00 0. -1.
        -12    1    3    3    0    0 -0.64349616864E+02  0.31029869362E+01 -0.33964148913E+02  0.72829012967E+02  0.00000000000E+00 0.  1.
          5    1    4    4  501    0  0.76251373756E+02 -0.85182948585E+00  0.37695384177E+02  0.85166965435E+02  0.41800000000E+01 0.  1.
         -5    1    4    4    0  501 -0.41575956194E+02 -0.40854974046E+02  0.50312265986E+02  0.77113458918E+02  0.41800000000E+01 0.  1.
</event>
<event>
11    1  0.1003949E-008  0.1654243E+03  0.7561462E-02  0.1082084E+00
         22   -1    0    0    0    0  0.00000000000E+00  0.00000000000E+00  0.11129267017E+04  0.11129267017E+04  0.00000000000E+00 0. -1.
         22   -1    0    0    0    0 -0.00000000000E+00 -0.00000000000E+00 -0.12019238811E+03  0.12019238811E+03  0.00000000000E+00 0. -1.
         24    2    1    2    0    0 -0.83763581999E+02  0.30594195043E+02  0.31458892178E+02  0.12452244537E+03  0.81017498500E+02 0.  0.
         25    2    1    2    0    0  0.13934509175E+03 -0.17087993672E+02  0.52571637694E+02  0.19524299672E+03  0.12508795529E+03 0.  0.
        -24    2    1    2    0    0 -0.55581509747E+02 -0.13506201371E+02  0.90870378371E+03  0.91335364770E+03  0.72115168623E+02 0.  0.
        -11    1    3    3    0    0  0.16075251005E+02  0.70939318609E+01  0.13283563297E+01  0.17621069623E+02  0.00000000000E+00 0.  1.
         12    1    3    3    0    0 -0.99838833004E+02  0.23500263182E+02  0.30130535848E+02  0.10690137574E+03  0.00000000000E+00 0. -1.
         11    1    5    5    0    0 -0.31941148354E+01 -0.11266555162E+02  0.60797482767E+03  0.60808759954E+03  0.00000000000E+00 0. -1.
        -12    1    5    5    0    0 -0.52387394912E+02 -0.22396462091E+01  0.30072895603E+03  0.30526604816E+03  0.00000000000E+00 0.  1.
          5    1    4    4  501    0  0.12077364351E+03 -0.71367128301E+01  0.90846173403E+02  0.15135291625E+03  0.41800000000E+01 0.  1.
         -5    1    4    4    0  501  0.18571448237E+02 -0.99512808419E+01 -0.38274535709E+02  0.43890080471E+02  0.41800000000E+01 0.  1.
</event>
<event>
11    1  0.1003949E-008  0.1548445E+03  0.7561462E-02  0.1092029E+00
         22   -1    0    0    0    0  0.00000000000E+00  0.00000000000E+00  0.46840121319E+03  0.46840121319E+03  0.00000000000E+00 0.  1.
         22   -1    0    0    0    0 -0.00000000000E+00 -0.00000000000E+00 -0.75102648271E+03  0.75102648271E+03  0.00000000000E+00 0. -1.
        -24    2    1    2    0    0 -0.90756599724E+02  0.10271472876E+02 -0.70837338306E+03  0.71864133148E+03  0.79437081614E+02 0.  0.
         25    2    1    2    0    0  0.81600823414E+02 -0.60169223794E+02  0.20461370119E+03  0.26037069434E+03  0.12508837629E+03 0.  0.
         24    2    1    2    0    0  0.91557763094E+01  0.49897750918E+02  0.22113441235E+03  0.24041567009E+03  0.79533969541E+02 0.  0.
        -13    1    5    5    0    0 -0.89914224425E+01  0.71600405604E+01  0.17355556545E+03  0.17393575295E+03  0.00000000000E+00 0.  1.
         14    1    5    5    0    0  0.18147198752E+02  0.42737710357E+02  0.47578846904E+02  0.66479917132E+02  0.00000000000E+00 0. -1.
         13    1    3    3    0    0 -0.77837887440E+02  0.23445700388E+01 -0.29859004480E+03  0.30857778369E+03  0.00000000000E+00 0. -1.
        -14    1    3    3    0    0 -0.12918712283E+02  0.79269028374E+01 -0.40978333825E+03  0.41006354779E+03  0.00000000000E+00 0.  1.
          5    1    4    4  501    0  0.69360567760E+02 -0.93981053763E+02  0.11610976006E+03  0.16474912931E+03  0.41800000000E+01 0.  1.
         -5    1    4    4    0  501  0.12240255654E+02  0.33811829969E+02  0.88503941127E+02  0.95621565033E+02  0.41800000000E+01 0.  1.
</event>
<event>
11    1  0.1003949E-008  0.1530520E+03  0.7561462E-02  0.1093800E+00
         22   -1    0    0    0    0  0.00000000000E+00  0.00000000000E+00  0.70067354491E+02  0.70067354491E+02  0.00000000000E+00 0.  1.
         22   -1    0    0    0    0 -0.00000000000E+00 -0.00000000000E+00 -0.29684034159E+04  0.29684034159E+04  0.00000000000E+00 0.  1.
         24    2    1    2    0    0  0.55193883900E+02 -0.99286380777E+01 -0.19183314416E+04  0.19208643311E+04  0.81112981135E+02 0.  0.
         25    2    1    2    0    0 -0.13586507685E+01 -0.62750078076E+02 -0.98516584169E+03  0.99505735372E+03  0.12509189955E+03 0.  0.
        -24    2    1    2    0    0 -0.53835233132E+02  0.72678716154E+02  0.51612219471E+01  0.12254908558E+03  0.82530067584E+02 0.  0.
        -13    1    3    3    0    0  0.13080300222E+02 -0.33817481266E+02 -0.13460888167E+04  0.13465770749E+04  0.00000000000E+00 0.  1.
         14    1    3    3    0    0  0.42113583679E+02  0.23888843188E+02 -0.57224262496E+03  0.57428725615E+03  0.00000000000E+00 0. -1.
         11    1    5    5    0    0 -0.39471496882E+02  0.10212903394E+02 -0.28890260600E+02  0.49969486883E+02  0.00000000000E+00 0. -1.
        -12    1    5    5    0    0 -0.14363736250E+02  0.62465812760E+02  0.34051482547E+02  0.72579598694E+02  0.00000000000E+00 0.  1.
          5    1    4    4  501    0 -0.43818930229E+02 -0.80513654939E+02 -0.72944226910E+03  0.73519116128E+03  0.41800000000E+01 0. -1.
         -5    1    4    4    0  501  0.42460279461E+02  0.17763576863E+02 -0.25572357259E+03  0.25986619244E+03  0.41800000000E+01 0. -1.
</event>
<event>
11    1  0.1003949E-008  0.1508874E+03  0.7561462E-02  0.1095975E+00
         22   -1    0    0    0    0  0.00000000000E+00  0.00000000000E+00  0.30158774718E+04  0.30158774718E+04  0.00000000000E+00 0. -1.
         22   -1    0    0    0    0 -0.00000000000E+00 -0.00000000000E+00 -0.50681701954E+03  0.50681701954E+03  0.00000000000E+00 0. -1.
        -24    2    1    2    0    0  0.47810354918E+02 -0.24165744626E+02 -0.49538677854E+03  0.50486463001E+03  0.81304495757E+02 0.  0.
         25    2    1    2    0    0  0.26097514193E+01 -0.59083743309E+02  0.10084123373E+04  0.10178604139E+04  0.12508669213E+03 0.  0.
         24    2    1    2    0    0 -0.50420106337E+02  0.83249487934E+02  0.19960348935E+04  0.19999694475E+04  0.79055868736E+02 0.  0.
        -13    1    5    5    0    0 -0.16632404744E+02 -0.13339663771E+02  0.23547793207E+03  0.23644119778E+03  0.00000000000E+00 0.  1.
         14    1    5    5    0    0 -0.33787701593E+02  0.96589151706E+02  0.17605569614E+04  0.17635282497E+04  0.00000000000E+00 0. -1.
         11    1    3    3    0    0  0.32402606672E+01 -0.12216197526E+02 -0.38518079075E+03  0.38538808535E+03  0.00000000000E+00 0. -1.
        -12    1    3    3    0    0  0.44570094251E+02 -0.11949547100E+02 -0.11020598779E+03  0.11947654466E+03  0.00000000000E+00 0.  1.
          5    1    4    4  501    0 -0.24084024854E+02 -0.78705337818E+02  0.39327728438E+03  0.40181969247E+03  0.41800000000E+01 0.  1.
         -5    1    4    4    0  501  0.26693776273E+02  0.19621594509E+02  0.61513505294E+03  0.61604072140E+03  0.41800000000E+01 0.  1.
</event>
<event>
11    1  0.1003949E-008  0.5035956E+03  0.7561462E-02  0.9385523E-01
         22   -1    0    0    0    0  0.00000000000E+00  0.00000000000E+00  0.28193427093E+04  0.28193427093E+04  0.00000000000E+00 0. -1.
         22   -1    0    0    0    0 -0.00000000000E+00 -0.00000000000E+00 -0.20234249369E+03  0.20234249369E+03  0.00000000000E+00 0. -1.
        -24    2    1    2    0    0  0.10256626062E+03 -0.49318760467E+01  0.50757929082E+02  0.13870008210E+03  0.78212429895E+02 0.  0.
         25    2    1    2    0    0 -0.45885603348E+03  0.31714612545E+03  0.49331016660E+03  0.75507298640E+03  0.12509904059E+03 0.  0.
         24    2    1    2    0    0  0.35628977286E+03 -0.31221424941E+03  0.20729321199E+04  0.21279121345E+04  0.80884723650E+02 0.  0.
        -11    1    5    5    0    0 -0.15410707651E+01 -0.15935809300E+02  0.71144236461E+02  0.72923434497E+02  0.00000000000E+00 0.  1.
         12    1    5    5    0    0  0.35783084363E+03 -0.29627844011E+03  0.20017878835E+04  0.20549887000E+04  0.00000000000E+00 0. -1.
         13    1    3    3    0    0  0.19725873558E+02  0.31931042638E+02  0.22344761385E+02  0.43680544100E+02  0.00000000000E+00 0. -1.
        -14    1    3    3    0    0  0.82840387062E+02 -0.36862918684E+02  0.28413167696E+02  0.95019537996E+02  0.00000000000E+00 0.  1.
          5    1    4    4  501    0 -0.18710877667E+02  0.18321146531E+02  0.71086220428E+02  0.75871499840E+02  0.41800000000E+01 0.  1.
         -5    1    4    4    0  501 -0.44014515581E+03  0.29882497892E+03  0.42222394618E+03  0.67920148656E+03  0.41800000000E+01 0.  1.
</event>
<event>
11    1  0.1003949E-008  0.1757420E+03  0.7561462E-02  0.1073140E+00
         22   -1    0    0    0    0  0.00000000000E+00  0.00000000000E+00  0.83318600888E+03  0.83318600888E+03  0.00000000000E+00 0. -1.
         22   -1    0    0    0    0 -0.00000000000E+00 -0.00000000000E+00 -0.14455297595E+04  0.14455297595E+04  0.00000000000E+00 0.  1.
         24    2    1    2    0    0  0.10243536179E+03 -0.69086571130E+02 -0.14149303213E+04  0.14225103506E+04  0.79005858015E+02 0.  0.
         25    2    1    2    0    0 -0.99270408254E+02  0.58436910605E+02  0.28384744178E+03  0.33088357994E+03  0.12508032136E+03 0.  0.
        -24    2    1    2    0    0 -0.31649535343E+01  0.10649660525E+02  0.51873912893E+03  0.52532183786E+03  0.82154228406E+02 0.  0.
        -11    1    3    3    0    0  0.79223723174E+02 -0.18752269831E+02 -0.10761951602E+04  0.10792701556E+04  0.00000000000E+00 0.  1.
         12    1    3    3    0    0  0.23211638615E+02 -0.50334301299E+02 -0.33873516114E+03  0.34324019498E+03  0.00000000000E+00 0. -1.
         11    1    5    5    0    0  0.31708646007E+02  0.13556289627E+02  0.40132022472E+03  0.40279912362E+03  0.00000000000E+00 0. -1.
        -12    1    5    5    0    0 -0.34873599542E+02 -0.29066291021E+01  0.11741890421E+03  0.12252271424E+03  0.00000000000E+00 0.  1.
          5    1    4    4  501    0 -0.24579935747E+02 -0.17740744507E+02  0.33857752396E+01  0.30787061096E+02  0.41800000000E+01 0. -1.
         -5    1    4    4    0  501 -0.74690472508E+02  0.76177655112E+02  0.28046166654E+03  0.30009651884E+03  0.41800000000E+01 0. -1.
</event>
<event>
11    1  0.1003949E-008  0.2298570E+03  0.7561462E-02  0.1035213E+00
         22   -1    0    0    0    0  0.00000000000E+00  0.00000000000E+00  0.89383450767E+03  0.89383450767E+03  0.00000000000E+00 0. -1.
         22   -1    0    0    0    0 -0.00000000000E+00 -0.00000000000E+00 -0.42464099921E+03  0.42464099921E+03  0.00000000000E+00 0. -1.
        -24    2    1    2    0    0  0.67263835129E+01 -0.88658235693E+02 -0.34660030147E+03  0.36674651683E+03  0.80409648938E+02 0.  0.
         25    2    1    2    0    0 -0.12314795373E+03  0.21674966517E+03  0.34435152953E+03  0.44313791625E+03  0.12508957220E+03 0.  0.
         24    2    1    2    0    0  0.11642157021E+03 -0.12809142948E+03  0.47144228041E+03  0.50859107379E+03  0.80284869495E+02 0.  0.
        -11    1    5    5    0    0  0.35899681869E+02 -0.86515446437E+01  0.43525600027E+02  0.57079893489E+02  0.00000000000E+00 0.  1.
         12    1    5    5    0    0  0.80521888345E+02 -0.11943988484E+03  0.42791668038E+03  0.45151118030E+03  0.00000000000E+00 0. -1.
         11    1    3    3    0    0  0.26792606347E+02 -0.94959953587E+02 -0.27770022089E+03  0.29470773526E+03  0.00000000000E+00 0. -1.
        -12    1    3    3    0    0 -0.20066222834E+02  0.63017178938E+01 -0.68900080578E+02  0.72038781576E+02  0.00000000000E+00 0.  1.
          5    1    4    4  501    0 -0.10234730135E+03  0.22782791405E+03  0.33395725288E+03  0.41704369995E+03  0.41800000000E+01 0.  1.
         -5    1    4    4    0  501 -0.20800652373E+02 -0.11078248878E+02  0.10394276640E+02  0.26094216299E+02  0.41800000000E+01 0.  1.
</event>
<event>
11    1  0.1003949E-008  0.1785224E+03  0.7561462E-02  0.1070844E+00
         22   -1    0    0    0    0  0.00000000000E+00  0.00000000000E+00  0.72681305814E+03  0.72681305814E+03  0.00000000000E+00 0.  1.
         22   -1    0    0    0    0 -0.00000000000E+00 -0.00000000000E+00 -0.29472315263E+03  0.29472315263E+03  0.00000000000E+00 0.  1.
         24    2    1    2    0    0 -0.79400852024E+02  0.55839938154E+02 -0.77358108097E+02  0.15249135725E+03  0.88581844373E+02 0.  0.
         25    2    1    2    0    0  0.14717291306E+03 -0.11378970802E+03 -0.10038553307E+03  0.24562768699E+03  0.12509093242E+03 0.  0.
        -24    2    1    2    0    0 -0.67772061037E+02  0.57949769871E+02  0.60983354668E+03  0.62341716653E+03  0.93812476675E+02 0.  0.
        -11    1    3    3    0    0 -0.82960066460E+02  0.66959886595E+02 -0.86798047112E+02  0.13747690723E+03  0.00000000000E+00 0.  1.
         12    1    3    3    0    0  0.35592144356E+01 -0.11119948441E+02  0.94399390148E+01  0.15014450018E+02  0.00000000000E+00 0. -1.
         13    1    5    5    0    0 -0.57691193401E+02  0.17833283303E+01  0.16225058368E+03  0.17221122484E+03  0.00000000000E+00 0. -1.
        -14    1    5    5    0    0 -0.10080867636E+02  0.56166441540E+02  0.44758296300E+03  0.45120594169E+03  0.00000000000E+00 0.  1.
          5    1    4    4  501    0  0.29478031514E+02 -0.45858221824E+02  0.25509773438E+02  0.60333670464E+02  0.41800000000E+01 0. -1.
         -5    1    4    4    0  501  0.11769488155E+03 -0.67931486201E+02 -0.12589530651E+03  0.18529401652E+03  0.41800000000E+01 0. -1.
</event>
<event>
11    1  0.1452677E-008  0.1714614E+03  0.7561462E-02  0.1076767E+00
         22   -1    0    0    0    0  0.00000000000E+00  0.00000000000E+00  0.12525589786E+03  0.12525589786E+03  0.00000000000E+00 0.  1.
         22   -1    0    0    0    0 -0.00000000000E+00 -0.00000000000E+00 -0.22246914708E+04  0.22246914708E+04  0.00000000000E+00 0.  1.
         24    2    1    2    0    0 -0.28983070674E+02 -0.83256685497E+02 -0.15121775138E+04  0.15169172034E+04  0.81149705571E+02 0.  0.
         25    2    1    2    0    0  0.13785514277E+03  0.39310472776E+02 -0.64875611788E+03  0.67607768060E+03  0.12508867274E+03 0.  0.
        -24    2    1    2    0    0 -0.10887207210E+03  0.43946212721E+02  0.61498058736E+02  0.15695248465E+03  0.84069456494E+02 0.  0.
        -13    1    3    3    0    0 -0.71059687529E+01 -0.66632223178E+02 -0.13930988262E+04  0.13947095351E+04  0.00000000000E+00 0.  1.
         14    1    3    3    0    0 -0.21877101921E+02 -0.16624462320E+02 -0.11907868762E+03  0.12220766826E+03  0.00000000000E+00 0. -1.
         13    1    5    5    0    0  0.31263885374E+01 -0.60052292694E+01 -0.12146493842E+02  0.13905912286E+02  0.00000000000E+00 0. -1.
        -14    1    5    5    0    0 -0.11199846063E+03  0.49951441991E+02  0.73644552578E+02  0.14304657237E+03  0.00000000000E+00 0.  1.
          5    1    4    4  501    0  0.13562366231E+03 -0.13937454557E+02 -0.44594528761E+03  0.46633968560E+03  0.41800000000E+01 0.  1.
         -5    1    4    4    0  501  0.22314804577E+01  0.53247927333E+02 -0.20281083027E+03  0.20973799500E+03  0.41800000000E+01 0.  1.
</event>
<event>
11    1  0.1003949E-008  0.1482324E+03  0.7561462E-02  0.1098699E+00
         22   -1    0    0    0    0  0.00000000000E+00  0.00000000000E+00  0.77740545526E+03  0.77740545526E+03  0.00000000000E+00 0. -1.
         22   -1    0    0    0    0 -0.00000000000E+00 -0.00000000000E+00 -0.37203102614E+03  0.37203102614E+03  0.00000000000E+00 0.  1.
         24    2    1    2    0    0 -0.48743075466E+02  0.38404809320E+02 -0.32526637151E+03  0.34017018725E+03  0.77889197406E+02 0.  0.
         25    2    1    2    0    0  0.71153267479E+02 -0.10693389902E+03  0.20418992587E+03  0.27173384499E+03  0.12509240767E+03 0.  0.
        -24    2    1    2    0    0 -0.22410192013E+02  0.68529089697E+02  0.52645087477E+03  0.53753244916E+03  0.81192102506E+02 0.  0.
        -13    1    3    3    0    0 -0.59232024252E+02  0.50330273018E+02 -0.30306047262E+03  0.31286933238E+03  0.00000000000E+00 0.  1.
         14    1    3    3    0    0  0.10488948786E+02 -0.11925463698E+02 -0.22205898889E+02  0.27300854868E+02  0.00000000000E+00 0. -1.
         13    1    5    5    0    0 -0.49096533038E+02  0.24600792675E+02  0.21692524163E+03  0.22376824845E+03  0.00000000000E+00 0. -1.
        -14    1    5    5    0    0  0.26686341025E+02  0.43928297023E+02  0.30952563314E+03  0.31376420071E+03  0.00000000000E+00 0.  1.
          5    1    4    4  501    0 -0.47488904142E+01 -0.10281605813E+03  0.11183654268E+03  0.15204794786E+03  0.41800000000E+01 0.  1.
         -5    1    4    4    0  501  0.75902157893E+02 -0.41178408844E+01  0.92353383188E+02  0.11968589713E+03  0.41800000000E+01 0.  1.
</event>
<event>
11    1  0.1003949E-008  0.1827817E+03  0.7561462E-02  0.1067415E+00
         22   -1    0    0    0    0  0.00000000000E+00  0.00000000000E+00  0.25417581836E+03  0.25417581836E+03  0.00000000000E+00 0. -1.
         22   -1    0    0    0    0 -0.00000000000E+00 -0.00000000000E+00 -0.48441161497E+03  0.48441161497E+03  0.00000000000E+00 0.  1.
         24    2    1    2    0    0 -0.76410533102E+02 -0.10180120772E+03 -0.16645911066E+03  0.22446351849E+03  0.80456075889E+02 0.  0.
         25    2    1    2    0    0  0.77411416329E+02  0.11649868871E+03 -0.24874147918E+03  0.31158327768E+03  0.12508934253E+03 0.  0.
        -24    2    1    2    0    0 -0.10008832277E+01 -0.14697480992E+02  0.18496479323E+03  0.20254063716E+03  0.81201707196E+02 0.  0.
        -13    1    3    3    0    0 -0.59360462065E+02 -0.99321946355E+02 -0.17116243167E+03  0.20660370640E+03  0.00000000000E+00 0.  1.
         14    1    3    3    0    0 -0.17050071037E+02 -0.24792613665E+01  0.47033210066E+01  0.17859812087E+02  0.00000000000E+00 0. -1.
         13    1    5    5    0    0 -0.26923674562E+02 -0.33252671329E+02  0.14630093555E+03  0.15242896098E+03  0.00000000000E+00 0. -1.
        -14    1    5    5    0    0  0.25922791334E+02  0.18555190337E+02  0.38663857688E+02  0.50111676188E+02  0.00000000000E+00 0.  1.
          5    1    4    4  501    0  0.24305368029E+02 -0.25564505144E+02 -0.55546757318E+02  0.65933371572E+02  0.41800000000E+01 0.  1.
         -5    1    4    4    0  501  0.53106048300E+02  0.14206319386E+03 -0.19319472187E+03  0.24564990611E+03  0.41800000000E+01 0.  1.
</event>
<event>
11    1  0.1003949E-008  0.1419144E+03  0.7561462E-02  0.1105439E+00
         22   -1    0    0    0    0  0.00000000000E+00  0.00000000000E+00  0.57640295066E+03  0.57640295066E+03  0.00000000000E+00 0.  1.
         22   -1    0    0    0    0 -0.00000000000E+00 -0.00000000000E+00 -0.43837579257E+03  0.43837579257E+03  0.00000000000E+00 0. -1.
        -24    2    1    2    0    0  0.21773403780E+02  0.65604377126E+02 -0.39807679302E+03  0.41130246780E+03  0.76984228714E+02 0.  0.
         25    2    1    2    0    0 -0.22121104993E+02 -0.14908937266E+02  0.11582802363E+03  0.17255580114E+03  0.12509098189E+03 0.  0.
         24    2    1    2    0    0  0.34770121326E+00 -0.50695439860E+02  0.42027592748E+03  0.43092047429E+03  0.80563337967E+02 0.  0.
        -11    1    5    5    0    0  0.11635368301E+02 -0.31397344601E+02  0.39784197858E+03  0.39924856288E+03  0.00000000000E+00 0.  1.
         12    1    5    5    0    0 -0.11287667087E+02 -0.19298095258E+02  0.22433948896E+02  0.31671911403E+02  0.00000000000E+00 0. -1.
         13    1    3    3    0    0  0.47618297964E+02  0.59745011583E+02 -0.31326548640E+03  0.32244725720E+03  0.00000000000E+00 0. -1.
        -14    1    3    3    0    0 -0.25844894185E+02  0.58593655431E+01 -0.84811306622E+02  0.88855210601E+02  0.00000000000E+00 0.  1.
          5    1    4    4  501    0 -0.49142094412E+02  0.36584928158E+02  0.89604207676E+02  0.10862683299E+03  0.41800000000E+01 0.  1.
         -5    1    4    4    0  501  0.27020989419E+02 -0.51493865424E+02  0.26223815958E+02  0.63928968151E+02  0.41800000000E+01 0.  1.
</event>
<event>
11    1  0.1003949E-008  0.1291598E+03  0.7561462E-02  0.1120306E+00
         22   -1    0    0    0    0  0.00000000000E+00  0.00000000000E+00  0.27500213001E+03  0.27500213001E+03  0.00000000000E+00 0.  1.
         22   -1    0    0    0    0 -0.00000000000E+00 -0.00000000000E+00 -0.19684196778E+04  0.19684196778E+04  0.00000000000E+00 0. -1.
        -24    2    1    2    0    0  0.39007826585E+02  0.18495973385E+02 -0.18941331936E+04  0.18963369639E+04  0.80558142436E+02 0.  0.
         25    2    1    2    0    0 -0.10979515069E+02  0.10878169243E+02  0.11458612666E+02  0.12656286053E+03  0.12509186043E+03 0.  0.
         24    2    1    2    0    0 -0.28028311515E+02 -0.29374142628E+02  0.18925703310E+03  0.22052198333E+03  0.10565649082E+03 0.  0.
        -13    1    5    5    0    0 -0.31560632662E+02 -0.39216588270E+02  0.19957847962E+03  0.20582901607E+03  0.00000000000E+00 0.  1.
         14    1    5    5    0    0  0.35323211465E+01  0.98424456426E+01 -0.10321446514E+02  0.14692967265E+02  0.00000000000E+00 0. -1.
         13    1    3    3    0    0  0.52504129954E+02  0.31834952360E+02 -0.17334595905E+04  0.17345467130E+04  0.00000000000E+00 0. -1.
        -14    1    3    3    0    0 -0.13496303369E+02 -0.13338978975E+02 -0.16067360310E+03  0.16179025094E+03  0.00000000000E+00 0.  1.
          5    1    4    4  501    0  0.31345694151E+02 -0.14160015082E+02  0.52140572936E+02  0.62603277191E+02  0.41800000000E+01 0.  1.
         -5    1    4    4    0  501 -0.42325209221E+02  0.25038184325E+02 -0.40681960270E+02  0.63959583342E+02  0.41800000000E+01 0.  1.
</event>
<event>
11    1  0.1003949E-008  0.1401642E+03  0.7561462E-02  0.1107375E+00
         22   -1    0    0    0    0  0.00000000000E+00  0.00000000000E+00  0.43727848001E+03  0.43727848001E+03  0.00000000000E+00 0.  1.
         22   -1    0    0    0    0 -0.00000000000E+00 -0.00000000000E+00 -0.90924257390E+03  0.90924257390E+03  0.00000000000E+00 0. -1.
         24    2    1    2    0    0  0.32255339765E+02 -0.54023357359E+02 -0.85436519809E+03  0.86047091034E+03  0.80693034096E+02 0.  0.
         25    2    1    2    0    0 -0.12297823226E+02  0.80831132472E+02  0.76030292443E+02  0.16766813446E+03  0.12508832684E+03 0.  0.
        -24    2    1    2    0    0 -0.19957516539E+02 -0.26807775112E+02  0.30637081175E+03  0.31838200911E+03  0.79919147616E+02 0.  0.
        -11    1    3    3    0    0  0.54341875987E+02 -0.58385575976E+02 -0.67717417338E+03  0.68185539234E+03  0.00000000000E+00 0.  1.
         12    1    3    3    0    0 -0.22086536222E+02  0.43622186169E+01 -0.17719102471E+03  0.17861551800E+03  0.00000000000E+00 0. -1.
         13    1    5    5    0    0  0.21133675663E+02 -0.27667891779E+02  0.66975246238E+02  0.75483959165E+02  0.00000000000E+00 0. -1.
        -14    1    5    5    0    0 -0.41091192203E+02  0.86011666606E+00  0.23939556552E+03  0.24289804994E+03  0.00000000000E+00 0.  1.
          5    1    4    4  501    0  0.20744262406E+02  0.10459371894E+03  0.42862782560E+02  0.11499939563E+03  0.41800000000E+01 0. -1.
         -5    1    4    4    0  501 -0.33042085632E+02 -0.23762586473E+02  0.33167509883E+02  0.52668738836E+02  0.41800000000E+01 0. -1.
</event>
<event>
11    1  0.1003949E-008  0.1796840E+03  0.7561462E-02  0.1069899E+00
         22   -1    0    0    0    0  0.00000000000E+00  0.00000000000E+00  0.12427571865E+04  0.12427571865E+04  0.00000000000E+00 0.  1.
         22   -1    0    0    0    0 -0.00000000000E+00 -0.00000000000E+00 -0.36122204170E+03  0.36122204170E+03  0.00000000000E+00 0. -1.
        -24    2    1    2    0    0  0.20159300847E+02 -0.32692621272E+02 -0.30573447879E+03  0.31834251561E+03  0.79957368795E+02 0.  0.
         25    2    1    2    0    0  0.82423076910E+02  0.11011036741E+03  0.15420090825E+03  0.24154329645E+03  0.12508951729E+03 0.  0.
         24    2    1    2    0    0 -0.10258237776E+03 -0.77417746141E+02  0.10330687153E+04  0.10440934161E+04  0.79896429087E+02 0.  0.
        -11    1    5    5    0    0 -0.63896271380E+02 -0.23009815015E+02  0.75812530627E+03  0.76116106383E+03  0.00000000000E+00 0.  1.
         12    1    5    5    0    0 -0.38686106377E+02 -0.54407931126E+02  0.27494340907E+03  0.28293235231E+03  0.00000000000E+00 0. -1.
         11    1    3    3    0    0  0.18437458038E+02 -0.44248793077E+02 -0.30242297617E+03  0.30619855007E+03  0.00000000000E+00 0. -1.
        -12    1    3    3    0    0  0.17218428092E+01  0.11556171805E+02 -0.33115026228E+01  0.12143965541E+02  0.00000000000E+00 0.  1.
          5    1    4    4  501    0  0.66891033368E+02  0.61492974387E+02  0.16573273105E+03  0.18905186269E+03  0.41800000000E+01 0.  1.
         -5    1    4    4    0  501  0.15532043542E+02  0.48617393027E+02 -0.11531822802E+02  0.52491433762E+02  0.41800000000E+01 0.  1.
</event>
<event>
11    1  0.1003949E-008  0.1346840E+03  0.7561462E-02  0.1113644E+00
         22   -1    0    0    0    0  0.00000000000E+00  0.00000000000E+00  0.40761592832E+03  0.40761592832E+03  0.00000000000E+00 0. -1.
         22   -1    0    0    0    0 -0.00000000000E+00 -0.00000000000E+00 -0.65593677603E+03  0.65593677603E+03  0.00000000000E+00 0.  1.
         24    2    1    2    0    0 -0.26327984261E+01 -0.48260375676E+02 -0.55901782276E+03  0.56694065110E+03  0.81146658686E+02 0.  0.
         25    2    1    2    0    0  0.23446545485E+02  0.89268221829E+02 -0.13427404374E+02  0.15603011047E+03  0.12508614735E+03 0.  0.
        -24    2    1    2    0    0 -0.20813747059E+02 -0.41007846153E+02  0.32412437942E+03  0.34058194278E+03  0.93939293714E+02 0.  0.
        -13    1    3    3    0    0 -0.31695610682E+02  0.33222402944E+01 -0.27337527761E+03  0.27522661831E+03  0.00000000000E+00 0.  1.
         14    1    3    3    0    0  0.29062812256E+02 -0.51582615970E+02 -0.28564254515E+03  0.29171403279E+03  0.00000000000E+00 0. -1.
         11    1    5    5    0    0 -0.48791385345E+02 -0.13713091659E+02  0.26433608457E+03  0.26915091264E+03  0.00000000000E+00 0. -1.
        -12    1    5    5    0    0  0.27977638286E+02 -0.27294754494E+02  0.59788294847E+02  0.71431030146E+02  0.00000000000E+00 0.  1.
          5    1    4    4  501    0  0.59849032160E+02  0.39373040026E+02  0.32670169236E+02  0.78847671426E+02  0.41800000000E+01 0. -1.
         -5    1    4    4    0  501 -0.36402486675E+02  0.49895181802E+02 -0.46097573610E+02  0.77182439039E+02  0.41800000000E+01 0. -1.
</event>
<event>
11    1  0.1003949E-008  0.1317603E+03  0.7561462E-02  0.1117125E+00
         22   -1    0    0    0    0  0.00000000000E+00  0.00000000000E+00  0.10983371561E+03  0.10983371561E+03  0.00000000000E+00 0.  1.
         22   -1    0    0    0    0 -0.00000000000E+00 -0.00000000000E+00 -0.21022246568E+04  0.21022246568E+04  0.00000000000E+00 0.  1.
         24    2    1    2    0    0  0.38324856191E+02 -0.13375675550E+02 -0.17914506648E+04  0.17950318393E+04  0.10581170187E+03 0.  0.
         25    2    1    2    0    0 -0.62910021216E+02 -0.40120339365E+02 -0.26219522877E+03  0.29993564565E+03  0.12509093150E+03 0.  0.
        -24    2    1    2    0    0  0.24585165026E+02  0.53496014915E+02  0.61254952453E+02  0.11709088743E+03  0.80572034656E+02 0.  0.
        -11    1    3    3    0    0  0.26986465802E+01  0.42395652977E+02 -0.96549952662E+03  0.96643365524E+03  0.00000000000E+00 0.  1.
         12    1    3    3    0    0  0.35626209610E+02 -0.55771328527E+02 -0.82595113821E+03  0.82859818404E+03  0.00000000000E+00 0. -1.
         11    1    5    5    0    0  0.10638857740E+02 -0.20770310693E+02  0.21386154310E+02  0.31653731162E+02  0.00000000000E+00 0. -1.
        -12    1    5    5    0    0  0.13946307286E+02  0.74266325608E+02  0.39868798142E+02  0.85437156271E+02  0.00000000000E+00 0.  1.
          5    1    4    4  501    0 -0.99461385189E+02 -0.39095150487E+02 -0.17225577058E+03  0.20275729539E+03  0.41800000000E+01 0.  1.
         -5    1    4    4    0  501  0.36551363972E+02 -0.10251888778E+01 -0.89939458187E+02  0.97178350261E+02  0.41800000000E+01 0.  1.
</event>
<event>
11    1  0.1003949E-008  0.1781159E+03  0.7561462E-02  0.1071177E+00
         22   -1    0    0    0    0  0.00000000000E+00  0.00000000000E+00  0.62973751257E+03  0.62973751257E+03  0.00000000000E+00 0. -1.
         22   -1    0    0    0    0 -0.00000000000E+00 -0.00000000000E+00 -0.73434061691E+03  0.73434061691E+03  0.00000000000E+00 0. -1.
         24    2    1    2    0    0 -0.87884664964E+02 -0.90775701871E+02 -0.67018684138E+03  0.68682257823E+03  0.81307497930E+02 0.  0.
         25    2    1    2    0    0  0.92804645042E+02  0.98923163059E+02  0.11100527115E+03  0.21533248939E+03  0.12508963360E+03 0.  0.
        -24    2    1    2    0    0 -0.49199800779E+01 -0.81474611882E+01  0.45457846590E+03  0.46192306185E+03  0.81490772977E+02 0.  0.
        -13    1    3    3    0    0  0.13800650962E+02 -0.13266961666E+02 -0.48850968803E+02  0.52467965387E+02  0.00000000000E+00 0.  1.
         14    1    3    3    0    0 -0.10168531593E+03 -0.77508740205E+02 -0.62133587258E+03  0.63435461285E+03  0.00000000000E+00 0. -1.
         13    1    5    5    0    0  0.30502122025E+02  0.17092216257E+02  0.27185871304E+03  0.27409794446E+03  0.00000000000E+00 0. -1.
        -14    1    5    5    0    0 -0.35422102103E+02 -0.25239677445E+02  0.18271975286E+03  0.18782511739E+03  0.00000000000E+00 0.  1.
          5    1    4    4  501    0  0.10180577851E+03  0.19352579504E+02  0.71268127041E+02  0.12583941037E+03  0.41800000000E+01 0.  1.
         -5    1    4    4    0  501 -0.90011334643E+01  0.79570583555E+02  0.39737144104E+02  0.89493079020E+02  0.41800000000E+01 0.  1.
</event>
<event>
11    1  0.1003949E-008  0.1916076E+03  0.7561462E-02  0.1060622E+00
         22   -1    0    0    0    0  0.00000000000E+00  0.00000000000E+00  0.48038307452E+03  0.48038307452E+03  0.00000000000E+00 0.  1.
         22   -1    0    0    0    0 -0.00000000000E+00 -0.00000000000E+00 -0.38495771147E+03  0.38495771147E+03  0.00000000000E+00 0.  1.
         24    2    1    2    0    0 -0.42874724611E+02 -0.42191811659E+02 -0.26290005706E+03  0.28036680857E+03  0.76620600146E+02 0.  0.
         25    2    1    2    0    0  0.13638455192E+03  0.13931238343E+03  0.49012162996E+02  0.23676788291E+03  0.12509257402E+03 0.  0.
        -24    2    1    2    0    0 -0.93509827312E+02 -0.97120571775E+02  0.30931325712E+03  0.34820609450E+03  0.86001743906E+02 0.  0.
        -13    1    3    3    0    0 -0.16659212058E+01 -0.17802413835E+02 -0.20249970314E+03  0.20328755742E+03  0.00000000000E+00 0.  1.
         14    1    3    3    0    0 -0.41208803406E+02 -0.24389397824E+02 -0.60400353923E+02  0.77079251154E+02  0.00000000000E+00 0. -1.
         11    1    5    5    0    0 -0.10466176507E+03 -0.88438818263E+02  0.23063475240E+03  0.26826833331E+03  0.00000000000E+00 0. -1.
        -12    1    5    5    0    0  0.11151937756E+02 -0.86817535115E+01  0.78678504721E+02  0.79937761195E+02  0.00000000000E+00 0.  1.
          5    1    4    4  501    0  0.15706231468E+03  0.13477837911E+03  0.32376890947E+02  0.20952211729E+03  0.41800000000E+01 0.  1.
         -5    1    4    4    0  501 -0.20677762757E+02  0.45340043275E+01  0.16635272049E+02  0.27245765616E+02  0.41800000000E+01 0.  1.
</event>
<event>
11    1  0.1129796E-008  0.1565515E+03  0.7561462E-02  0.1090366E+00
         22   -1    0    0    0    0  0.00000000000E+00  0.00000000000E+00  0.79829115572E+03  0.79829115572E+03  0.00000000000E+00 0. -1.
         22   -1    0    0    0    0 -0.00000000000E+00 -0.00000000000E+00 -0.11344871869E+04  0.11344871869E+04  0.00000000000E+00 0. -1.
        -24    2    1    2    0    0 -0.11088781806E+02  0.48096432807E+01 -0.86340957908E+03  0.86745047335E+03  0.82753421155E+02 0.  0.
         25    2    1    2    0    0  0.73673415599E+02  0.65407341639E+02 -0.24011675733E+03  0.28811445023E+03  0.12509191331E+03 0.  0.
         24    2    1    2    0    0 -0.62584633794E+02 -0.70216984920E+02  0.76733030519E+03  0.77721341909E+03  0.80110175351E+02 0.  0.
        -11    1    5    5    0    0  0.18521317865E+02 -0.64748150711E+01  0.15789215233E+03  0.15910654988E+03  0.00000000000E+00 0.  1.
         12    1    5    5    0    0 -0.81105951659E+02 -0.63742169848E+02  0.60943815286E+03  0.61810686921E+03  0.00000000000E+00 0. -1.
         13    1    3    3    0    0 -0.84032575997E+01 -0.15273424466E+02 -0.81207204981E+03  0.81225913741E+03  0.00000000000E+00 0. -1.
        -14    1    3    3    0    0 -0.26855242060E+01  0.20083067746E+02 -0.51337529274E+02  0.55191335935E+02  0.00000000000E+00 0.  1.
          5    1    4    4  501    0 -0.24726478008E+02  0.39537088071E+02 -0.12979240792E+03  0.13797869981E+03  0.41800000000E+01 0.  1.
         -5    1    4    4    0  501  0.98399893608E+02  0.25870253567E+02 -0.11032434941E+03  0.15013575042E+03  0.41800000000E+01 0.  1.
</event>
<event>
11    1  0.1003949E-008  0.1798426E+03  0.7561462E-02  0.1069770E+00
         22   -1    0    0    0    0  0.00000000000E+00  0.00000000000E+00  0.18639117387E+04  0.18639117387E+04  0.00000000000E+00 0.  1.
         22   -1    0    0    0    0 -0.00000000000E+00 -0.00000000000E+00 -0.15961750180E+03  0.15961750180E+03  0.00000000000E+00 0.  1.
         24    2    1    2    0    0 -0.90911439604E+02  0.90936893898E+02 -0.11132131685E+03  0.18467876053E+03  0.71968051834E+02 0.  0.
         25    2    1    2    0    0  0.11370923085E+03 -0.10340136175E+03  0.14236154320E+04  0.14373415618E+04  0.12509291094E+03 0.  0.
        -24    2    1    2    0    0 -0.22797791245E+02  0.12464467848E+02  0.39200012174E+03  0.40150891812E+03  0.82886751913E+02 0.  0.
        -13    1    3    3    0    0 -0.74071515926E+02  0.23391453056E+02 -0.55949292643E+02  0.95729164286E+02  0.00000000000E+00 0.  1.
         14    1    3    3    0    0 -0.16839923677E+02  0.67545440841E+02 -0.55372024202E+02  0.88949596245E+02  0.00000000000E+00 0. -1.
         11    1    5    5    0    0 -0.50704006841E+01 -0.15229013333E+02  0.33733439113E+03  0.33771603937E+03  0.00000000000E+00 0. -1.
        -12    1    5    5    0    0 -0.17727390561E+02  0.27693481181E+02  0.54665730610E+02  0.63792878750E+02  0.00000000000E+00 0.  1.
          5    1    4    4  501    0  0.13034307349E+03 -0.50033909167E+02  0.11102513301E+04  0.11190032160E+04  0.41800000000E+01 0. -1.
         -5    1    4    4    0  501 -0.16633842637E+02 -0.53367452579E+02  0.31336410186E+03  0.31833834587E+03  0.41800000000E+01 0. -1.
</event>
<event>
11    1  0.1003949E-008  0.1583997E+03  0.7561462E-02  0.1088592E+00
         22   -1    0    0    0    0  0.00000000000E+00  0.00000000000E+00  0.15735103191E+04  0.15735103191E+04  0.00000000000E+00 0. -1.
         22   -1    0    0    0    0 -0.00000000000E+00 -0.00000000000E+00 -0.76259884253E+03  0.76259884253E+03  0.00000000000E+00 0.  1.
         24    2    1    2    0    0  0.32015060490E+02  0.90286661476E+02 -0.71622719114E+03  0.72709113407E+03  0.80644172684E+02 0.  0.
         25    2    1    2    0    0 -0.11866779509E+03 -0.44691265264E+02  0.17051064597E+03  0.24657741017E+03  0.12508870466E+03 0.  0.
        -24    2    1    2    0    0  0.86652734602E+02 -0.45595396212E+02  0.13566280218E+04  0.13624406174E+04  0.78849286446E+02 0.  0.
        -13    1    3    3    0    0  0.11448478731E+02  0.85960314265E+02 -0.67751120720E+03  0.68303856346E+03  0.00000000000E+00 0.  1.
         14    1    3    3    0    0  0.20566581759E+02  0.43263472115E+01 -0.38715983933E+02  0.44052570610E+02  0.00000000000E+00 0. -1.
         13    1    5    5    0    0  0.32156917005E+02  0.21924726206E+02  0.43372628396E+03  0.43546900042E+03  0.00000000000E+00 0. -1.
        -14    1    5    5    0    0  0.54495817597E+02 -0.67520122418E+02  0.92290173782E+03  0.92697161700E+03  0.00000000000E+00 0.  1.
          5    1    4    4  501    0 -0.51348493809E+02  0.23212513869E+02  0.67618882005E+01  0.56909438133E+02  0.41800000000E+01 0.  1.
         -5    1    4    4    0  501 -0.67319301283E+02 -0.67903779133E+02  0.16374875777E+03  0.18966797204E+03  0.41800000000E+01 0.  1.
</event>
<event>
11    1  0.1003949E-008  0.1426180E+03  0.7561462E-02  0.1104670E+00
         22   -1    0    0    0    0  0.00000000000E+00  0.00000000000E+00  0.21943794246E+04  0.21943794246E+04  0.00000000000E+00 0. -1.
         22   -1    0    0    0    0 -0.00000000000E+00 -0.00000000000E+00 -0.50700331895E+03  0.50700331895E+03  0.00000000000E+00 0. -1.
        -24    2    1    2    0    0 -0.66101792328E+02 -0.17173444737E+02 -0.40785573399E+03  0.42126691377E+03  0.80343878045E+02 0.  0.
         25    2    1    2    0    0  0.54699923939E+02  0.63171671881E+02 -0.29614296001E+02  0.15331887024E+03  0.12508767980E+03 0.  0.
         24    2    1    2    0    0  0.11401868390E+02 -0.45998227144E+02  0.21248461357E+04  0.21267969596E+04  0.77771250719E+02 0.  0.
        -11    1    5    5    0    0  0.57226774078E+01  0.21280154969E+02  0.37315122961E+03  0.37380132985E+03  0.00000000000E+00 0.  1.
         12    1    5    5    0    0  0.56791909818E+01 -0.67278382113E+02  0.17516949061E+04  0.17529956297E+04  0.00000000000E+00 0. -1.
         11    1    3    3    0    0 -0.12242912890E+02 -0.20583622393E+02 -0.29709106970E+03  0.29805482402E+03  0.00000000000E+00 0. -1.
        -12    1    3    3    0    0 -0.53858879439E+02  0.34101776569E+01 -0.11076466429E+03  0.12321208975E+03  0.00000000000E+00 0.  1.
          5    1    4    4  501    0 -0.26709645832E+02  0.63132332179E+02 -0.17835675928E+02  0.70955480991E+02  0.41800000000E+01 0. -1.
         -5    1    4    4    0  501  0.81409569771E+02  0.39339701386E-01 -0.11778620073E+02  0.82363389250E+02  0.41800000000E+01 0. -1.
</event>
<event>
11    1  0.1003949E-008  0.1605733E+03  0.7561462E-02  0.1086539E+00
         22   -1    0    0    0    0  0.00000000000E+00  0.00000000000E+00  0.10416926225E+04  0.10416926225E+04  0.00000000000E+00 0.  1.
         22   -1    0    0    0    0 -0.00000000000E+00 -0.00000000000E+00 -0.10796868873E+04  0.10796868873E+04  0.00000000000E+00 0.  1.
         24    2    1    2    0    0 -0.95974745389E+02  0.30215780057E+02 -0.10499903525E+04  0.10578511139E+04  0.80281340809E+02 0.  0.
         25    2    1    2    0    0  0.12471056783E+03  0.40779453493E+02  0.37166678047E+03  0.41352002978E+03  0.12508768833E+03 0.  0.
        -24    2    1    2    0    0 -0.28735822443E+02 -0.70995233550E+02  0.64032930726E+03  0.65000836603E+03  0.81382943532E+02 0.  0.
        -13    1    3    3    0    0 -0.48307582934E+02  0.55287045279E+02 -0.68197954983E+03  0.68592010200E+03  0.00000000000E+00 0.  1.
         14    1    3    3    0    0 -0.47667162455E+02 -0.25071265222E+02 -0.36801080272E+03  0.37193101193E+03  0.00000000000E+00 0. -1.
         13    1    5    5    0    0 -0.27884653253E+02 -0.27261394854E+02  0.91823810268E+02  0.99761463845E+02  0.00000000000E+00 0. -1.
        -14    1    5    5    0    0 -0.85116918958E+00 -0.43733838696E+02  0.54850549699E+03  0.55024690219E+03  0.00000000000E+00 0.  1.
          5    1    4    4  501    0 -0.49922625269E+01  0.42419960094E+02  0.45823575893E+02  0.62782546994E+02  0.41800000000E+01 0. -1.
         -5    1    4    4    0  501  0.12970283036E+03 -0.16405066011E+01  0.32584320457E+03  0.35073748279E+03  0.41800000000E+01 0. -1.
</event>
<event>
11    1  0.1003949E-008  0.1952686E+03  0.7561462E-02  0.1057921E+00
         22   -1    0    0    0    0  0.00000000000E+00  0.00000000000E+00  0.13737892833E+03  0.13737892833E+03  0.00000000000E+00 0. -1.
         22   -1    0    0    0    0 -0.00000000000E+00 -0.00000000000E+00 -0.12403204826E+04  0.12403204826E+04  0.00000000000E+00 0.  1.
         24    2    1    2    0    0  0.10230493590E+02 -0.20791833846E+02 -0.92669137316E+03  0.93013958336E+03  0.76588380836E+02 0.  0.
         25    2    1    2    0    0  0.63471531640E+02 -0.11609276733E+03 -0.20261123074E+03  0.27240557763E+03  0.12508925594E+03 0.  0.
        -24    2    1    2    0    0 -0.73702025230E+02  0.13688460117E+03  0.26361049597E+02  0.17515424997E+03  0.76254336185E+02 0.  0.
        -13    1    3    3    0    0 -0.25831206859E+02 -0.78931067923E+01 -0.67601252182E+03  0.67655190639E+03  0.00000000000E+00 0.  1.
         14    1    3    3    0    0  0.36061700449E+02 -0.12898727054E+02 -0.25067885135E+03  0.25358767697E+03  0.00000000000E+00 0. -1.
         13    1    5    5    0    0 -0.65757650750E+02  0.90351581267E+02 -0.14545447492E+02  0.11269004797E+03  0.00000000000E+00 0. -1.
        -14    1    5    5    0    0 -0.79443744799E+01  0.46533019905E+02  0.40906497090E+02  0.62464202000E+02  0.00000000000E+00 0.  1.
          5    1    4    4  501    0  0.77638242914E+01 -0.70538330960E+02 -0.18502027107E+03  0.19820672594E+03  0.41800000000E+01 0. -1.
         -5    1    4    4    0  501  0.55707707349E+02 -0.45554436365E+02 -0.17590959670E+02  0.74198851694E+02  0.41800000000E+01 0. -1.
</event>
<event>
11    1  0.1003949E-008  0.1627391E+03  0.7561462E-02  0.1084529E+00
         22   -1    0    0    0    0  0.00000000000E+00  0.00000000000E+00  0.30002846594E+03  0.30002846594E+03  0.00000000000E+00 0. -1.
         22   -1    0    0    0    0 -0.00000000000E+00 -0.00000000000E+00 -0.11245445990E+04  0.11245445990E+04  0.00000000000E+00 0. -1.
        -24    2    1    2    0    0 -0.71615810440E+02  0.71482669680E+02 -0.92249632418E+03  0.93123390750E+03  0.77191489025E+02 0.  0.
         25    2    1    2    0    0  0.43121458336E+02 -0.15282261761E+03 -0.12723336154E+03  0.23887444882E+03  0.12513377397E+03 0.  0.
         24    2    1    2    0    0  0.28494352104E+02  0.81339947926E+02  0.22521355263E+03  0.25446470865E+03  0.81259020606E+02 0.  0.
        -13    1    5    5    0    0  0.46297239264E+02  0.16882528424E+02  0.71518670376E+02  0.86852601238E+02  0.00000000000E+00 0.  1.
         14    1    5    5    0    0 -0.17802887160E+02  0.64457419502E+02  0.15369488225E+03  0.16761210741E+03  0.00000000000E+00 0. -1.
         13    1    3    3    0    0 -0.19844129921E+02  0.54655553603E+02 -0.69016684163E+03  0.69261193198E+03  0.00000000000E+00 0. -1.
        -14    1    3    3    0    0 -0.51771680518E+02  0.16827116077E+02 -0.23232948255E+03  0.23862197552E+03  0.00000000000E+00 0.  1.
          5    1    4    4  501    0 -0.11316340645E+02 -0.14134567276E+03 -0.67371656550E+02  0.15704480660E+03  0.41800000000E+01 0. -1.
         -5    1    4    4    0  501  0.54437798980E+02 -0.11476944844E+02 -0.59861704992E+02  0.81829642217E+02  0.41800000000E+01 0. -1.
</event>
<event>
11    1  0.1003949E-008  0.4210226E+03  0.7561462E-02  0.9589688E-01
         22   -1    0    0    0    0  0.00000000000E+00  0.00000000000E+00  0.69964908537E+03  0.69964908537E+03  0.00000000000E+00 0. -1.
         22   -1    0    0    0    0 -0.00000000000E+00 -0.00000000000E+00 -0.12287922962E+04  0.12287922962E+04  0.00000000000E+00 0. -1.
         24    2    1    2    0    0 -0.34854538945E+03 -0.60638790593E+02 -0.63143712911E+03  0.72825186581E+03  0.80479690615E+02 0.  0.
         25    2    1    2    0    0  0.55835247067E+03  0.47736917543E+02 -0.36574653036E+03  0.68077213329E+03  0.12507548995E+03 0.  0.
        -24    2    1    2    0    0 -0.20980708122E+03  0.12901873050E+02  0.46804044864E+03  0.51941738248E+03  0.80914065506E+02 0.  0.
        -13    1    3    3    0    0 -0.11698278866E+03 -0.59424127175E+02 -0.23379619339E+03  0.26809860085E+03  0.00000000000E+00 0.  1.
         14    1    3    3    0    0 -0.23156260079E+03 -0.12146634178E+01 -0.39764093572E+03  0.46015326496E+03  0.00000000000E+00 0. -1.
         11    1    5    5    0    0 -0.17611114878E+03  0.16626923559E+02  0.30236244544E+03  0.35030649398E+03  0.00000000000E+00 0. -1.
        -12    1    5    5    0    0 -0.33695932445E+02 -0.37250505098E+01  0.16567800320E+03  0.16911088850E+03  0.00000000000E+00 0.  1.
          5    1    4    4  501    0  0.41553190085E+03  0.89202382691E+02 -0.28167606533E+03  0.50988499084E+03  0.41800000000E+01 0.  1.
         -5    1    4    4    0  501  0.14282056983E+03 -0.41465465147E+02 -0.84070465036E+02  0.17088714245E+03  0.41800000000E+01 0.  1.
</event>
<event>
11    1  0.1003949E-008  0.1905716E+03  0.7561462E-02  0.1061399E+00
         22   -1    0    0    0    0  0.00000000000E+00  0.00000000000E+00  0.61948419516E+03  0.61948419516E+03  0.00000000000E+00 0.  1.
         22   -1    0    0    0    0 -0.00000000000E+00 -0.00000000000E+00 -0.27589198282E+03  0.27589198282E+03  0.00000000000E+00 0. -1.
        -24    2    1    2    0    0 -0.10677480600E+03  0.96216866701E+02 -0.15508259112E+03  0.22626493579E+03  0.80539843949E+02 0.  0.
         25    2    1    2    0    0  0.13554871032E+03 -0.62196980037E+02  0.37131065760E+02  0.19815616685E+03  0.12508090670E+03 0.  0.
         24    2    1    2    0    0 -0.28773904311E+02 -0.34019886664E+02  0.46154373771E+03  0.47095507534E+03  0.82406133986E+02 0.  0.
        -11    1    5    5    0    0 -0.24400007434E+02 -0.55444929575E+02  0.21285784781E+03  0.22130965626E+03  0.00000000000E+00 0.  1.
         12    1    5    5    0    0 -0.43738968774E+01  0.21425042911E+02  0.24868588989E+03  0.24964541909E+03  0.00000000000E+00 0. -1.
         13    1    3    3    0    0 -0.10665125090E+03  0.90123404552E+02 -0.16404664346E+03  0.21542520419E+03  0.00000000000E+00 0. -1.
        -14    1    3    3    0    0 -0.12355510459E+00  0.60934621491E+01  0.89640523424E+01  0.10839731603E+02  0.00000000000E+00 0.  1.
          5    1    4    4  501    0  0.54352553638E+02 -0.91796737787E+02  0.88576825904E+01  0.10712969755E+03  0.41800000000E+01 0. -1.
         -5    1    4    4    0  501  0.81196156678E+02  0.29599757750E+02  0.28273383170E+02  0.91026469304E+02  0.41800000000E+01 0. -1.
</event>
<event>
11    1  0.1003949E-008  0.3242443E+03  0.7561462E-02  0.9904223E-01
         22   -1    0    0    0    0  0.00000000000E+00  0.00000000000E+00  0.33329705481E+03  0.33329705481E+03  0.00000000000E+00 0.  1.
         22   -1    0    0    0    0 -0.00000000000E+00 -0.00000000000E+00 -0.41858125557E+03  0.41858125557E+03  0.00000000000E+00 0.  1.
        -24    2    1    2    0    0  0.33049964340E+03  0.47609857879E+02 -0.11098667373E+03  0.36064740596E+03  0.79068304822E+02 0.  0.
         25    2    1    2    0    0 -0.25535773380E+03 -0.26018059226E+02  0.19694892580E+02  0.28621597409E+03  0.12508870217E+03 0.  0.
         24    2    1    2    0    0 -0.75141909590E+02 -0.21591798653E+02  0.60075803868E+01  0.10501493033E+03  0.69853648616E+02 0.  0.
        -11    1    5    5    0    0 -0.77700934453E+02 -0.13356779910E+02  0.26182384132E+02  0.83074400529E+02  0.00000000000E+00 0.  1.
         12    1    5    5    0    0  0.25590248626E+01 -0.82350187434E+01 -0.20174803745E+02  0.21940529805E+02  0.00000000000E+00 0. -1.
         13    1    3    3    0    0  0.47412149799E+02 -0.11408213926E+01  0.10803781699E+02  0.48640879114E+02  0.00000000000E+00 0. -1.
        -14    1    3    3    0    0  0.28308749360E+03  0.48750679271E+02 -0.12179045543E+03  0.31200652684E+03  0.00000000000E+00 0.  1.
          5    1    4    4  501    0 -0.50396014092E+01  0.26109598128E+02 -0.10128262419E+02  0.28760438043E+02  0.41800000000E+01 0.  1.
         -5    1    4    4    0  501 -0.25031813240E+03 -0.52127657354E+02  0.29823154999E+02  0.25745553605E+03  0.41800000000E+01 0.  1.
</event>
<event>
11    1  0.1003949E-008  0.1837114E+03  0.7561462E-02  0.1066680E+00
         22   -1    0    0    0    0  0.00000000000E+00  0.00000000000E+00  0.21017415997E+04  0.21017415997E+04  0.00000000000E+00 0. -1.
         22   -1    0    0    0    0 -0.00000000000E+00 -0.00000000000E+00 -0.13598133493E+04  0.13598133493E+04  0.00000000000E+00 0. -1.
        -24    2    1    2    0    0 -0.12976287415E+03 -0.38351795042E+02 -0.12880735278E+04  0.12977878412E+04  0.82526384708E+02 0.  0.
         25    2    1    2    0    0  0.11381783967E+03  0.27430069204E+02  0.45167785974E+02  0.17718716652E+03  0.12509298049E+03 0.  0.
         24    2    1    2    0    0  0.15945034482E+02  0.10921725838E+02  0.19848339923E+04  0.19865799412E+04  0.80996035550E+02 0.  0.
        -11    1    5    5    0    0  0.17699314119E+02  0.39947488716E+02  0.66932277100E+03  0.67074737372E+03  0.00000000000E+00 0.  1.
         12    1    5    5    0    0 -0.17542796374E+01 -0.29025762878E+02  0.13155112213E+04  0.13158325675E+04  0.00000000000E+00 0. -1.
         11    1    3    3    0    0 -0.12994254688E+03 -0.45095360145E+02 -0.97630116186E+03  0.98594250119E+03  0.00000000000E+00 0. -1.
        -12    1    3    3    0    0  0.17967272757E+00  0.67435651023E+01 -0.31177236593E+03  0.31184534005E+03  0.00000000000E+00 0.  1.
          5    1    4    4  501    0 -0.14898182029E+02  0.48311104203E+01 -0.24235841494E+02  0.29157226695E+02  0.41800000000E+01 0.  1.
         -5    1    4    4    0  501  0.12871602170E+03  0.22598958784E+02  0.69403627467E+02  0.14802993983E+03  0.41800000000E+01 0.  1.
</event>
<event>
11    1  0.1003949E-008  0.1487750E+03  0.7561462E-02  0.1098137E+00
         22   -1    0    0    0    0  0.00000000000E+00  0.00000000000E+00  0.20545742674E+03  0.20545742674E+03  0.00000000000E+00 0. -1.
         22   -1    0    0    0    0 -0.00000000000E+00 -0.00000000000E+00 -0.64488408657E+03  0.64488408657E+03  0.00000000000E+00 0. -1.
         24    2    1    2    0    0  0.28812584769E+01  0.83121730672E+02 -0.38713785429E+03  0.40391686560E+03  0.79721968905E+02 0.  0.
         25    2    1    2    0    0  0.35605035726E+02 -0.71986628107E+02 -0.21366899622E+03  0.26030141081E+03  0.12511031664E+03 0.  0.
        -24    2    1    2    0    0 -0.38486294203E+02 -0.11135102565E+02  0.16138019068E+03  0.18612323690E+03  0.83624805048E+02 0.  0.
        -11    1    3    3    0    0  0.33828516236E+02  0.51963771151E+02 -0.14304966533E+03  0.15590961732E+03  0.00000000000E+00 0.  1.
         12    1    3    3    0    0 -0.30947257760E+02  0.31157959522E+02 -0.24408818897E+03  0.24800724828E+03  0.00000000000E+00 0. -1.
         11    1    5    5    0    0 -0.12804700807E+02 -0.69360872395E+01  0.15935819030E+03  0.16002219373E+03  0.00000000000E+00 0. -1.
        -12    1    5    5    0    0 -0.25681593396E+02 -0.41990153254E+01  0.20220003763E+01  0.26101043171E+02  0.00000000000E+00 0.  1.
          5    1    4    4  501    0  0.60374473016E+02 -0.14085045214E+02 -0.17635353640E+03  0.18697996602E+03  0.41800000000E+01 0. -1.
         -5    1    4    4    0  501 -0.24769437290E+02 -0.57901582893E+02 -0.37315459813E+02  0.73321444791E+02  0.41800000000E+01 0. -1.
</event>
<event>
11    1  0.1003949E-008  0.1328478E+03  0.7561462E-02  0.1115819E+00
         22   -1    0    0    0    0  0.00000000000E+00  0.00000000000E+00  0.49607841502E+03  0.49607841502E+03  0.00000000000E+00 0. -1.
         22   -1    0    0    0    0 -0.00000000000E+00 -0.00000000000E+00 -0.12146185998E+04  0.12146185998E+04  0.00000000000E+00 0.  1.
         24    2    1    2    0    0 -0.43649147034E+02 -0.13389851706E+02 -0.11129446038E+04  0.11168354028E+04  0.81185526343E+02 0.  0.
         25    2    1    2    0    0  0.27733043693E+02 -0.11180303790E+02 -0.52395600174E+02  0.13888834113E+03  0.12510216416E+03 0.  0.
        -24    2    1    2    0    0  0.15916103341E+02  0.24570155496E+02  0.44680001916E+03  0.45497327092E+03  0.80705670447E+02 0.  0.
        -13    1    3    3    0    0 -0.44897695187E+02 -0.35867524577E+02 -0.47047880014E+03  0.47397529865E+03  0.00000000000E+00 0.  1.
         14    1    3    3    0    0  0.12485481530E+01  0.22477672870E+02 -0.64246580363E+03  0.64286010413E+03  0.00000000000E+00 0. -1.
         11    1    5    5    0    0  0.33917628652E+02 -0.16709080088E+02  0.26473404299E+03  0.26742047866E+03  0.00000000000E+00 0. -1.
        -12    1    5    5    0    0 -0.18001525311E+02  0.41279235585E+02  0.18206597617E+03  0.18755279226E+03  0.00000000000E+00 0.  1.
          5    1    4    4  501    0 -0.18186943931E+02  0.47982653871E+02 -0.91032299435E+01  0.52282322035E+02  0.41800000000E+01 0. -1.
         -5    1    4    4    0  501  0.45919987624E+02 -0.59162957661E+02 -0.43292370231E+02  0.86606019091E+02  0.41800000000E+01 0. -1.
</event>
<event>
11    1  0.1003949E-008  0.3330522E+03  0.7561462E-02  0.9870982E-01
         22   -1    0    0    0    0  0.00000000000E+00  0.00000000000E+00  0.48399756374E+03  0.48399756374E+03  0.00000000000E+00 0.  1.
         22   -1    0    0    0    0 -0.00000000000E+00 -0.00000000000E+00 -0.20360388801E+04  0.20360388801E+04  0.00000000000E+00 0. -1.
         24    2    1    2    0    0  0.67533217035E+02  0.26176327865E+03 -0.92381315559E+03  0.96591989931E+03  0.80559021704E+02 0.  0.
         25    2    1    2    0    0 -0.91939073094E+02 -0.36275562467E+03 -0.10450878493E+04  0.11170947483E+04  0.12509047742E+03 0.  0.
        -24    2    1    2    0    0  0.24405856059E+02  0.10099234602E+03  0.41685968855E+03  0.43702179621E+03  0.80130834655E+02 0.  0.
        -11    1    3    3    0    0 -0.24598154060E+01  0.38319183324E+01 -0.35722403127E+00  0.45674827801E+01  0.00000000000E+00 0.  1.
         12    1    3    3    0    0  0.69993032441E+02  0.25793136032E+03 -0.92345593156E+03  0.96135241653E+03  0.00000000000E+00 0. -1.
         11    1    5    5    0    0 -0.37409513695E+01  0.57754833968E+02  0.96427046992E+02  0.11246239796E+03  0.00000000000E+00 0. -1.
        -12    1    5    5    0    0  0.28146807428E+02  0.43237512051E+02  0.32043264156E+03  0.32455939825E+03  0.00000000000E+00 0.  1.
          5    1    4    4  501    0 -0.47076251971E+02 -0.22824440349E+03 -0.80663491884E+03  0.83963625810E+03  0.41800000000E+01 0.  1.
         -5    1    4    4    0  501 -0.44862821123E+02 -0.13451122118E+03 -0.23845293050E+03  0.27745849024E+03  0.41800000000E+01 0.  1.
</event>
<event>
11    1  0.1003949E-008  0.1420577E+03  0.7561462E-02  0.1105282E+00
         22   -1    0    0    0    0  0.00000000000E+00  0.00000000000E+00  0.26204734256E+04  0.26204734256E+04  0.00000000000E+00 0.  1.
         22   -1    0    0    0    0 -0.00000000000E+00 -0.00000000000E+00 -0.33997242441E+03  0.33997242441E+03  0.00000000000E+00 0.  1.
         24    2    1    2    0    0  0.70511639058E+02 -0.38211802232E+01 -0.28624542119E+03  0.30512418069E+03  0.78599184654E+02 0.  0.
         25    2    1    2    0    0 -0.33183299732E+02 -0.26410320752E+02  0.57538268112E+02  0.14407217041E+03  0.12508997388E+03 0.  0.
        -24    2    1    2    0    0 -0.37328339326E+02  0.30231500976E+02  0.25092081543E+04  0.25112494989E+04  0.89113050749E+02 0.  0.
        -11    1    3    3    0    0  0.83542890494E+02  0.21867700151E+01 -0.27332155973E+03  0.28581265110E+03  0.00000000000E+00 0.  1.
         12    1    3    3    0    0 -0.13031251437E+02 -0.60079502383E+01 -0.12923861460E+02  0.19311529590E+02  0.00000000000E+00 0. -1.
         13    1    5    5    0    0 -0.90697058455E+01 -0.50364378992E+01  0.32217388930E+02  0.33846497903E+02  0.00000000000E+00 0. -1.
        -14    1    5    5    0    0 -0.28258633480E+02  0.35267938875E+02  0.24769907653E+04  0.24774030010E+04  0.00000000000E+00 0.  1.
          5    1    4    4  501    0  0.28579772670E+02 -0.55766790988E+02  0.35284744311E+02  0.72036268394E+02  0.41800000000E+01 0. -1.
         -5    1    4    4    0  501 -0.61763072402E+02  0.29356470236E+02  0.22253523801E+02  0.72035902013E+02  0.41800000000E+01 0. -1.
</event>
<event>
11    1  0.1003949E-008  0.1465303E+03  0.7561462E-02  0.1100478E+00
         22   -1    0    0    0    0  0.00000000000E+00  0.00000000000E+00  0.13571131075E+03  0.13571131075E+03  0.00000000000E+00 0.  1.
         22   -1    0    0    0    0 -0.00000000000E+00 -0.00000000000E+00 -0.96520770006E+03  0.96520770006E+03  0.00000000000E+00 0. -1.
         24    2    1    2    0    0 -0.22519148902E+02 -0.73736158984E+02 -0.73458779142E+03  0.74295129530E+03  0.80082898727E+02 0.  0.
         25    2    1    2    0    0  0.74815140660E+02  0.48341799210E+02 -0.16971067483E+03  0.22887381833E+03  0.12508907524E+03 0.  0.
        -24    2    1    2    0    0 -0.52295991759E+02  0.25394359774E+02  0.74802076936E+02  0.12909389719E+03  0.87693439404E+02 0.  0.
        -13    1    3    3    0    0 -0.17412218223E+02 -0.33065228153E+02 -0.95512919479E+02  0.10256321194E+03  0.00000000000E+00 0.  1.
         14    1    3    3    0    0 -0.51069306783E+01 -0.40670930831E+02 -0.63907487194E+03  0.64038808335E+03  0.00000000000E+00 0. -1.
         13    1    5    5    0    0 -0.61677640528E+02  0.11925789346E+02  0.11710576920E+02  0.63902217523E+02  0.00000000000E+00 0. -1.
        -14    1    5    5    0    0  0.93816487690E+01  0.13468570428E+02  0.63091500016E+02  0.65191679663E+02  0.00000000000E+00 0.  1.
          5    1    4    4  501    0  0.84844688039E+02  0.34636679171E+02 -0.43627266119E+02  0.10158312548E+03  0.41800000000E+01 0. -1.
         -5    1    4    4    0  501 -0.10029547379E+02  0.13705120039E+02 -0.12608340871E+03  0.12729069285E+03  0.41800000000E+01 0. -1.
</event>
<event>
11    1  0.1003949E-008  0.1533724E+03  0.7561462E-02  0.1093482E+00
         22   -1    0    0    0    0  0.00000000000E+00  0.00000000000E+00  0.20385740996E+04  0.20385740996E+04  0.00000000000E+00 0. -1.
         22   -1    0    0    0    0 -0.00000000000E+00 -0.00000000000E+00 -0.50023266445E+03  0.50023266445E+03  0.00000000000E+00 0.  1.
        -24    2    1    2    0    0  0.62391509760E+02 -0.56734600821E+02 -0.40442212461E+03  0.42076288343E+03  0.79828777870E+02 0.  0.
         25    2    1    2    0    0 -0.10945777390E+03  0.98408586539E+02  0.21869766522E+02  0.19439870470E+03  0.12508923027E+03 0.  0.
         24    2    1    2    0    0  0.47066264138E+02 -0.41673985718E+02  0.19208937933E+04  0.19236451760E+04  0.81399285651E+02 0.  0.
        -13    1    5    5    0    0 -0.16290080679E+02 -0.22453383285E+02  0.26932166311E+03  0.27074652236E+03  0.00000000000E+00 0.  1.
         14    1    5    5    0    0  0.63356344817E+02 -0.19220602433E+02  0.16515721302E+04  0.16528986536E+04  0.00000000000E+00 0. -1.
         13    1    3    3    0    0  0.56198286594E+01 -0.59027642311E+02 -0.20394330629E+03  0.21238812870E+03  0.00000000000E+00 0. -1.
        -14    1    3    3    0    0  0.56771681100E+02  0.22930414896E+01 -0.20047881832E+03  0.20837475473E+03  0.00000000000E+00 0.  1.
          5    1    4    4  501    0  0.16920660399E+02  0.36965902508E+02 -0.22912410142E+02  0.46853363114E+02  0.41800000000E+01 0. -1.
         -5    1    4    4    0  501 -0.12637843430E+03  0.61442684031E+02  0.44782176664E+02  0.14754534158E+03  0.41800000000E+01 0. -1.
</event>
<event>
11    1  0.1003949E-008  0.1387308E+03  0.7561462E-02  0.1108984E+00
         22   -1    0    0    0    0  0.00000000000E+00  0.00000000000E+00  0.23472833405E+03  0.23472833405E+03  0.00000000000E+00 0.  1.
         22   -1    0    0    0    0 -0.00000000000E+00 -0.00000000000E+00 -0.30108220540E+03  0.30108220540E+03  0.00000000000E+00 0. -1.
        -24    2    1    2    0    0 -0.48116474527E+02  0.26855377847E+02 -0.17716945001E+03  0.20223705026E+03  0.80463681505E+02 0.  0.
         25    2    1    2    0    0  0.58142642610E+02 -0.62973623648E+02 -0.41581849814E+02  0.15723576585E+03  0.12509113343E+03 0.  0.
         24    2    1    2    0    0 -0.10026168083E+02  0.36118245801E+02  0.15239742847E+03  0.17633772335E+03  0.80405004490E+02 0.  0.
        -13    1    5    5    0    0  0.29732464278E+02  0.27079147847E+02  0.11174393722E+03  0.11876029297E+03  0.00000000000E+00 0.  1.
         14    1    5    5    0    0 -0.39758632361E+02  0.90390979542E+01  0.40653491248E+02  0.57577430385E+02  0.00000000000E+00 0. -1.
         13    1    3    3    0    0  0.15815540607E+02  0.51488236236E+01 -0.92304422092E+02  0.93790980628E+02  0.00000000000E+00 0. -1.
        -14    1    3    3    0    0 -0.63932015134E+02  0.21706554223E+02 -0.84865027913E+02  0.10844606963E+03  0.00000000000E+00 0.  1.
          5    1    4    4  501    0 -0.23858907217E+02  0.28725037695E+01 -0.45812444437E+02  0.51901360260E+02  0.41800000000E+01 0.  1.
         -5    1    4    4    0  501  0.82001549827E+02 -0.65846127418E+02  0.42305946238E+01  0.10533440559E+03  0.41800000000E+01 0.  1.
</event>
<event>
11    1  0.1003949E-008  0.2136995E+03  0.7561462E-02  0.1045238E+00
         22   -1    0    0    0    0  0.00000000000E+00  0.00000000000E+00  0.83558014183E+03  0.83558014183E+03  0.00000000000E+00 0. -1.
         22   -1    0    0    0    0 -0.00000000000E+00 -0.00000000000E+00 -0.78338665327E+03  0.78338665327E+03  0.00000000000E+00 0. -1.
         24    2    1    2    0    0  0.11703671711E+03  0.11788307576E+03 -0.62253557853E+03  0.64943307501E+03  0.81355759916E+02 0.  0.
         25    2    1    2    0    0 -0.17217023631E+03 -0.17083626442E+03 -0.12453056279E+02  0.27318628445E+03  0.12509215759E+03 0.  0.
        -24    2    1    2    0    0  0.55133519194E+02  0.52953188659E+02  0.68718212337E+03  0.69634743564E+03  0.82684553072E+02 0.  0.
        -11    1    3    3    0    0  0.90076708642E+02  0.11929950691E+03 -0.43510087198E+03  0.46006407661E+03  0.00000000000E+00 0.  1.
         12    1    3    3    0    0  0.26960008469E+02 -0.14164311479E+01 -0.18743470656E+03  0.18936899840E+03  0.00000000000E+00 0. -1.
         11    1    5    5    0    0  0.66847021343E+02  0.64444137194E+02  0.63176872969E+03  0.63855563492E+03  0.00000000000E+00 0. -1.
        -12    1    5    5    0    0 -0.11713502148E+02 -0.11490948535E+02  0.55413393680E+02  0.57791800715E+02  0.00000000000E+00 0.  1.
          5    1    4    4  501    0 -0.67732975997E+02 -0.55891779211E+02 -0.64830623294E+02  0.10923428554E+03  0.41800000000E+01 0. -1.
         -5    1    4    4    0  501 -0.10443726031E+03 -0.11494448521E+03  0.52377567015E+02  0.16395199891E+03  0.41800000000E+01 0. -1.
</event>
<event>
11    1  0.1003949E-008  0.1341861E+03  0.7561462E-02  0.1114230E+00
         22   -1    0    0    0    0  0.00000000000E+00  0.00000000000E+00  0.23526720287E+04  0.23526720287E+04  0.00000000000E+00 0.  1.
         22   -1    0    0    0    0 -0.00000000000E+00 -0.00000000000E+00 -0.77979185187E+03  0.77979185187E+03  0.00000000000E+00 0. -1.
         24    2    1    2    0    0  0.28397910222E+02 -0.42791299099E+02 -0.62801479167E+03  0.63514769750E+03  0.79827830370E+02 0.  0.
         25    2    1    2    0    0 -0.86976918863E+01  0.26244267684E+02 -0.11958444404E+03  0.17525014707E+03  0.12509102031E+03 0.  0.
        -24    2    1    2    0    0 -0.19700218336E+02  0.16547031415E+02  0.23204794125E+04  0.23220660360E+04  0.81878377612E+02 0.  0.
        -11    1    3    3    0    0  0.20886536248E+01 -0.41009503568E+02 -0.12772413319E+03  0.13416257324E+03  0.00000000000E+00 0.  1.
         12    1    3    3    0    0  0.26309256597E+02 -0.17817955309E+01 -0.50029065847E+03  0.50098512427E+03  0.00000000000E+00 0. -1.
         13    1    5    5    0    0 -0.40706996073E+02 -0.16160378108E+02  0.15357853071E+04  0.15364096872E+04  0.00000000000E+00 0. -1.
        -14    1    5    5    0    0  0.21006777737E+02  0.32707409523E+02  0.78469410537E+03  0.78565634876E+03  0.00000000000E+00 0.  1.
          5    1    4    4  501    0 -0.15496707315E+02  0.49854411451E+01 -0.14220703921E+03  0.14319677706E+03  0.41800000000E+01 0. -1.
         -5    1    4    4    0  501  0.67990154287E+01  0.21258826539E+02  0.22622595171E+02  0.32053370008E+02  0.41800000000E+01 0. -1.
</event>
<event>
11    1  0.1003949E-008  0.1887471E+03  0.7561462E-02  0.1062779E+00
         22   -1    0    0    0    0  0.00000000000E+00  0.00000000000E+00  0.17318633035E+03  0.17318633035E+03  0.00000000000E+00 0.  1.
         22   -1    0    0    0    0 -0.00000000000E+00 -0.00000000000E+00 -0.21102343250E+04  0.21102343250E+04  0.00000000000E+00 0. -1.
         24    2    1    2    0    0  0.14469175233E+03 -0.34351622064E+02 -0.18615485357E+04  0.18691606784E+04  0.79265085750E+02 0.  0.
         25    2    1    2    0    0 -0.89346446431E+02 -0.73346496337E+02 -0.16991686230E+03  0.24058726204E+03  0.12509194437E+03 0.  0.
        -24    2    1    2    0    0 -0.55345305903E+02  0.10769811840E+03  0.94417403317E+02  0.17367271493E+03  0.81151575886E+02 0.  0.
        -13    1    3    3    0    0  0.66452992494E+02  0.11019961318E+02 -0.48653526489E+03  0.49117614329E+03  0.00000000000E+00 0.  1.
         14    1    3    3    0    0  0.78238759840E+02 -0.45371583382E+02 -0.13750132708E+04  0.13779845351E+04  0.00000000000E+00 0. -1.
         11    1    5    5    0    0 -0.76663250385E+02  0.85842385366E+02  0.77697266838E+02  0.13886336579E+03  0.00000000000E+00 0. -1.
        -12    1    5    5    0    0  0.21317944482E+02  0.21855733036E+02  0.16720136479E+02  0.34809349137E+02  0.00000000000E+00 0.  1.
          5    1    4    4  501    0 -0.20335071035E+02 -0.90339799581E+02 -0.62786967804E+02  0.11195744829E+03  0.41800000000E+01 0.  1.
         -5    1    4    4    0  501 -0.69011375396E+02  0.16993303244E+02 -0.10712989450E+03  0.12862981374E+03  0.41800000000E+01 0.  1.
</event>
<event>
11    1  0.1003949E-008  0.1593621E+03  0.7561462E-02  0.1087679E+00
         22   -1    0    0    0    0  0.00000000000E+00  0.00000000000E+00  0.51803333460E+03  0.51803333460E+03  0.00000000000E+00 0. -1.
         22   -1    0    0    0    0 -0.00000000000E+00 -0.00000000000E+00 -0.43501097483E+03  0.43501097483E+03  0.00000000000E+00 0.  1.
        -24    2    1    2    0    0 -0.16930644206E+02  0.33503462401E+02 -0.30806410658E+03  0.32062440987E+03  0.80544333951E+02 0.  0.
         25    2    1    2    0    0 -0.69789200128E+02  0.18553293147E+02 -0.64997383097E+02  0.15835506425E+03  0.12504762861E+03 0.  0.
         24    2    1    2    0    0  0.86719844333E+02 -0.52056755548E+02  0.45608384944E+03  0.47406483532E+03  0.80590031417E+02 0.  0.
        -11    1    5    5    0    0  0.92370869671E+02 -0.44851247559E+02  0.28846652532E+03  0.30619756400E+03  0.00000000000E+00 0.  1.
         12    1    5    5    0    0 -0.56510253381E+01 -0.72055079892E+01  0.16761732412E+03  0.16786727131E+03  0.00000000000E+00 0. -1.
         11    1    3    3    0    0  0.25333359123E+02 -0.25586871359E+01 -0.44512946827E+02  0.51280877523E+02  0.00000000000E+00 0. -1.
        -12    1    3    3    0    0 -0.42264003329E+02  0.36062149537E+02 -0.26355115975E+03  0.26934353234E+03  0.00000000000E+00 0.  1.
          5    1    4    4  501    0 -0.52348061696E+02 -0.48688036117E+02 -0.49509446788E+02  0.87060336236E+02  0.41800000000E+01 0. -1.
         -5    1    4    4    0  501 -0.17441138432E+02  0.67241329264E+02 -0.15487936309E+02  0.71294728010E+02  0.41800000000E+01 0. -1.
</event>
<event>
11    1  0.1003949E-008  0.1816642E+03  0.7561462E-02  0.1068305E+00
         22   -1    0    0    0    0  0.00000000000E+00  0.00000000000E+00  0.32457369367E+04  0.32457369367E+04  0.00000000000E+00 0. -1.
         22   -1    0    0    0    0 -0.00000000000E+00 -0.00000000000E+00 -0.64071473077E+02  0.64071473077E+02  0.00000000000E+00 0. -1.
         24    2    1    2    0    0  0.82276563917E+02  0.94045785108E+02  0.93881182016E+02  0.17561579822E+03  0.80082392451E+02 0.  0.
         25    2    1    2    0    0 -0.11324890949E+03 -0.10532022687E+03  0.42117022242E+03  0.46577780859E+03  0.12508774934E+03 0.  0.
        -24    2    1    2    0    0  0.30972345576E+02  0.11274441759E+02  0.26666140592E+04  0.26684148029E+04  0.92307208843E+02 0.  0.
        -13    1    3    3    0    0 -0.32576195592E+01  0.23249597186E+02  0.51808524587E+02  0.56879513662E+02  0.00000000000E+00 0.  1.
         14    1    3    3    0    0  0.85534183476E+02  0.70796187922E+02  0.42072657429E+02  0.11873628456E+03  0.00000000000E+00 0. -1.
         11    1    5    5    0    0  0.18766133380E+02  0.46434619055E+02  0.88789721865E+03  0.88930861488E+03  0.00000000000E+00 0. -1.
        -12    1    5    5    0    0  0.12206212196E+02 -0.35160177296E+02  0.17787168405E+04  0.17791061881E+04  0.00000000000E+00 0.  1.
          5    1    4    4  501    0 -0.39171681613E+02  0.21437777227E+02  0.53229131041E+02  0.69604681769E+02  0.41800000000E+01 0.  1.
         -5    1    4    4    0  501 -0.74077227881E+02 -0.12675800409E+03  0.36794109138E+03  0.39617312683E+03  0.41800000000E+01 0.  1.
</event>
<event>
11    1  0.1003949E-008  0.1446534E+03  0.7561462E-02  0.1102471E+00
         22   -1    0    0    0    0  0.00000000000E+00  0.00000000000E+00  0.25052786227E+04  0.25052786227E+04  0.00000000000E+00 0. -1.
         22   -1    0    0    0    0 -0.00000000000E+00 -0.00000000000E+00 -0.50512348893E+03  0.50512348893E+03  0.00000000000E+00 0. -1.
        -24    2    1    2    0    0 -0.60647316597E+01 -0.33209753714E+02 -0.33257078295E+03  0.34379721509E+03  0.80333870336E+02 0.  0.
         25    2    1    2    0    0  0.99817234599E+01  0.10549879496E+03 -0.12518583190E+03  0.20627530038E+03  0.12509347105E+03 0.  0.
         24    2    1    2    0    0 -0.39169918002E+01 -0.72289041249E+02  0.24579117486E+04  0.24603295961E+04  0.81550655603E+02 0.  0.
        -11    1    5    5    0    0  0.13783388773E+02 -0.44990312682E+02  0.51492359566E+03  0.51706906638E+03  0.00000000000E+00 0.  1.
         12    1    5    5    0    0 -0.17700380573E+02 -0.27298728568E+02  0.19429881529E+04  0.19432605297E+04  0.00000000000E+00 0. -1.
         13    1    3    3    0    0 -0.41211583104E+02 -0.13983726651E+02 -0.22119373374E+03  0.22543426323E+03  0.00000000000E+00 0. -1.
        -14    1    3    3    0    0  0.35146851444E+02 -0.19226027063E+02 -0.11137704921E+03  0.11836295187E+03  0.00000000000E+00 0.  1.
          5    1    4    4  501    0 -0.39326392723E+02 -0.35948463010E+01 -0.53654101887E+02  0.66751203239E+02  0.41800000000E+01 0.  1.
         -5    1    4    4    0  501  0.49308116183E+02  0.10909364126E+03 -0.71531730009E+02  0.13952409714E+03  0.41800000000E+01 0.  1.
</event>
<event>
11    1  0.1003949E-008  0.1520085E+03  0.7561462E-02  0.1094844E+00
         22   -1    0    0    0    0  0.00000000000E+00  0.00000000000E+00  0.28055510451E+03  0.28055510451E+03  0.00000000000E+00 0. -1.
         22   -1    0    0    0    0 -0.00000000000E+00 -0.00000000000E+00 -0.97824794500E+03  0.97824794500E+03  0.00000000000E+00 0.  1.
         24    2    1    2    0    0 -0.23669525410E+02  0.32106215899E+02 -0.87248980994E+03  0.87709702292E+03  0.80434219267E+02 0.  0.
         25    2    1    2    0    0  0.86408492985E+02  0.28141078601E+02 -0.17813011947E+02  0.15562794240E+03  0.12507759631E+03 0.  0.
        -24    2    1    2    0    0 -0.62738967575E+02 -0.60247294500E+02  0.19260998140E+03  0.22607808418E+03  0.80291846824E+02 0.  0.
        -13    1    3    3    0    0  0.23171719021E+01  0.31331839865E+02 -0.78962002455E+03  0.79024479539E+03  0.00000000000E+00 0.  1.
         14    1    3    3    0    0 -0.25986697312E+02  0.77437603336E+00 -0.82869785391E+02  0.86852227526E+02  0.00000000000E+00 0. -1.
         13    1    5    5    0    0 -0.70861350776E+02 -0.21644964432E+02  0.92766451792E+02  0.11872426078E+03  0.00000000000E+00 0. -1.
        -14    1    5    5    0    0  0.81223832010E+01 -0.38602330068E+02  0.99843529603E+02  0.10735382340E+03  0.00000000000E+00 0.  1.
          5    1    4    4  501    0  0.13786283870E+02  0.51633697583E+02  0.33819297087E+02  0.63382313026E+02  0.41800000000E+01 0. -1.
         -5    1    4    4    0  501  0.72622209115E+02 -0.23492618981E+02 -0.51632309034E+02  0.92245629379E+02  0.41800000000E+01 0. -1.
</event>
<event>
11    1  0.1003949E-008  0.1473869E+03  0.7561462E-02  0.1099579E+00
         22   -1    0    0    0    0  0.00000000000E+00  0.00000000000E+00  0.33819052447E+03  0.33819052447E+03  0.00000000000E+00 0. -1.
         22   -1    0    0    0    0 -0.00000000000E+00 -0.00000000000E+00 -0.72938077482E+03  0.72938077482E+03  0.00000000000E+00 0. -1.
         24    2    1    2    0    0  0.14234833621E+02 -0.68233411772E+02 -0.33638931060E+03  0.35302372980E+03  0.81299179272E+02 0.  0.
         25    2    1    2    0    0 -0.48456648579E+01  0.94595324209E+02 -0.36225272321E+03  0.39477415618E+03  0.12509133896E+03 0.  0.
        -24    2    1    2    0    0 -0.93891687629E+01 -0.26361912437E+02  0.30745178346E+03  0.31977341330E+03  0.83338645212E+02 0.  0.
        -13    1    3    3    0    0  0.29981246036E+02 -0.39115913201E+01 -0.45067213160E+02  0.54269967408E+02  0.00000000000E+00 0.  1.
         14    1    3    3    0    0 -0.15746412415E+02 -0.64321820452E+02 -0.29132209744E+03  0.29875376239E+03  0.00000000000E+00 0. -1.
         13    1    5    5    0    0 -0.77971027728E+01 -0.41524290930E+02  0.29971245831E+03  0.30267576582E+03  0.00000000000E+00 0. -1.
        -14    1    5    5    0    0 -0.15920659902E+01  0.15162378493E+02  0.77393251508E+01  0.17097647484E+02  0.00000000000E+00 0.  1.
          5    1    4    4  501    0  0.67511208366E+01  0.17875793753E+02 -0.28338231735E+03  0.28405656448E+03  0.41800000000E+01 0.  1.
         -5    1    4    4    0  501 -0.11596785695E+02  0.76719530456E+02 -0.78870405856E+02  0.11071759170E+03  0.41800000000E+01 0.  1.
</event>
<event>
11    1  0.1003949E-008  0.2159176E+03  0.7561462E-02  0.1043805E+00
         22   -1    0    0    0    0  0.00000000000E+00  0.00000000000E+00  0.55967607135E+03  0.55967607135E+03  0.00000000000E+00 0. -1.
         22   -1    0    0    0    0 -0.00000000000E+00 -0.00000000000E+00 -0.65047271241E+03  0.65047271241E+03  0.00000000000E+00 0. -1.
        -24    2    1    2    0    0 -0.11346686144E+03  0.12218754536E+03 -0.47672210208E+03  0.51118270939E+03  0.78989080787E+02 0.  0.
         25    2    1    2    0    0  0.14319093287E+03 -0.20106267188E+03 -0.19761257586E+02  0.27743089880E+03  0.12509018758E+03 0.  0.
         24    2    1    2    0    0 -0.29724071428E+02  0.78875126522E+02  0.40568671861E+03  0.42153517557E+03  0.77494416437E+02 0.  0.
        -13    1    5    5    0    0  0.13120304084E+02 -0.26521038965E+00  0.12300651548E+02  0.17986626819E+02  0.00000000000E+00 0.  1.
         14    1    5    5    0    0 -0.42844375512E+02  0.79140336912E+02  0.39338606706E+03  0.40354854875E+03  0.00000000000E+00 0. -1.
         13    1    3    3    0    0 -0.11983173957E+03  0.12826885845E+03 -0.44883676759E+03  0.48194085716E+03  0.00000000000E+00 0. -1.
        -14    1    3    3    0    0  0.63648781280E+01 -0.60813130926E+01 -0.27885334493E+02  0.29241852238E+02  0.00000000000E+00 0.  1.
          5    1    4    4  501    0  0.15104733094E+03 -0.19178042321E+03 -0.45776668294E+02  0.24841095522E+03  0.41800000000E+01 0.  1.
         -5    1    4    4    0  501 -0.78563980775E+01 -0.92822486686E+01  0.26015410708E+02  0.29019943581E+02  0.41800000000E+01 0.  1.
</event>
<event>
11    1  0.1003949E-008  0.1569636E+03  0.7561462E-02  0.1089968E+00
         22   -1    0    0    0    0  0.00000000000E+00  0.00000000000E+00  0.73441912181E+03  0.73441912181E+03  0.00000000000E+00 0.  1.
         22   -1    0    0    0    0 -0.00000000000E+00 -0.00000000000E+00 -0.17524591208E+03  0.17524591208E+03  0.00000000000E+00 0. -1.
        -24    2    1    2    0    0  0.96623442976E+02 -0.43194986052E+02 -0.76426665340E+02  0.15357895921E+03  0.80892304850E+02 0.  0.
         25    2    1    2    0    0 -0.55968969658E+02  0.42786630060E+02  0.33465658034E+02  0.14741336631E+03  0.12509008363E+03 0.  0.
         24    2    1    2    0    0 -0.40654473318E+02  0.40835599219E+00  0.60213421704E+03  0.60867270837E+03  0.79144789023E+02 0.  0.
        -13    1    5    5    0    0 -0.12100224044E+02  0.32076201267E+02  0.42889636838E+03  0.43026432913E+03  0.00000000000E+00 0.  1.
         14    1    5    5    0    0 -0.28554249274E+02 -0.31667845275E+02  0.17323784866E+03  0.17840837924E+03  0.00000000000E+00 0. -1.
         13    1    3    3    0    0  0.90248123884E+02 -0.53250652935E+02 -0.88102598532E+02  0.13690297210E+03  0.00000000000E+00 0. -1.
        -14    1    3    3    0    0  0.63753190921E+01  0.10055666883E+02  0.11675933193E+02  0.16675987105E+02  0.00000000000E+00 0.  1.
          5    1    4    4  501    0 -0.39521096374E+02  0.87105674554E+02  0.17407130539E+02  0.97312877831E+02  0.41800000000E+01 0.  1.
         -5    1    4    4    0  501 -0.16447873283E+02 -0.44319044494E+02  0.16058527495E+02  0.50100488478E+02  0.41800000000E+01 0.  1.
</event>
<event>
11    1  0.1003949E-008  0.2131169E+03  0.7561462E-02  0.1045617E+00
         22   -1    0    0    0    0  0.00000000000E+00  0.00000000000E+00  0.80630557344E+03  0.80630557344E+03  0.00000000000E+00 0. -1.
         22   -1    0    0    0    0 -0.00000000000E+00 -0.00000000000E+00 -0.15834260655E+04  0.15834260655E+04  0.00000000000E+00 0.  1.
        -24    2    1    2    0    0 -0.66251716986E+02  0.13135064685E+03 -0.70715850104E+03  0.72671660005E+03  0.80009929152E+02 0.  0.
         25    2    1    2    0    0  0.14190739309E+03 -0.17541259446E+03 -0.84258910772E+03  0.88119860117E+03  0.12508910325E+03 0.  0.
         24    2    1    2    0    0 -0.75655676105E+02  0.44061947613E+02  0.77262711670E+03  0.78181643772E+03  0.81357508996E+02 0.  0.
        -11    1    5    5    0    0 -0.12627043365E+02  0.46735677791E+02  0.48178540765E+03  0.48421157031E+03  0.00000000000E+00 0.  1.
         12    1    5    5    0    0 -0.63028632740E+02 -0.26737301783E+01  0.29084170905E+03  0.29760486741E+03  0.00000000000E+00 0. -1.
         11    1    3    3    0    0 -0.23855356669E+02  0.71461839337E+01 -0.42786340036E+02  0.49505725732E+02  0.00000000000E+00 0. -1.
        -12    1    3    3    0    0 -0.42396360317E+02  0.12420446292E+03 -0.66437216101E+03  0.67721087432E+03  0.00000000000E+00 0.  1.
          5    1    4    4  501    0  0.53610535823E+02 -0.35943223126E+02 -0.90751601435E+02  0.11144204953E+03  0.41800000000E+01 0. -1.
         -5    1    4    4    0  501  0.88296857267E+02 -0.13946937134E+03 -0.75183750628E+03  0.76975655164E+03  0.41800000000E+01 0. -1.
</event>
<event>
11    1  0.1003949E-008  0.1580169E+03  0.7561462E-02  0.1088957E+00
         22   -1    0    0    0    0  0.00000000000E+00  0.00000000000E+00  0.90928913930E+03  0.90928913930E+03  0.00000000000E+00 0.  1.
         22   -1    0    0    0    0 -0.00000000000E+00 -0.00000000000E+00 -0.82454023421E+02  0.82454023421E+02  0.00000000000E+00 0.  1.
         24    2    1    2    0    0 -0.11044946829E+03 -0.34419106476E+02  0.57143386548E+02  0.15134570768E+03  0.79097387253E+02 0.  0.
         25    2    1    2    0    0  0.56577735074E+02  0.40165555290E+02  0.12970565227E+03  0.19309606362E+03  0.12509285197E+03 0.  0.
        -24    2    1    2    0    0  0.53871733215E+02 -0.57464488144E+01  0.63998607706E+03  0.64730139143E+03  0.80509174671E+02 0.  0.
        -13    1    3    3    0    0 -0.73865513196E+02 -0.84441891103E+01  0.72576855232E+02  0.10389811492E+03  0.00000000000E+00 0.  1.
         14    1    3    3    0    0 -0.36583955092E+02 -0.25974917365E+02 -0.15433468685E+02  0.47447592752E+02  0.00000000000E+00 0. -1.
         13    1    5    5    0    0 -0.66387136892E+01  0.23970033743E+02  0.96646245026E+02  0.99795449368E+02  0.00000000000E+00 0. -1.
        -14    1    5    5    0    0  0.60510446904E+02 -0.29716482558E+02  0.54333983203E+03  0.54750594206E+03  0.00000000000E+00 0.  1.
          5    1    4    4  501    0  0.16981217229E+02  0.21614444156E+02 -0.21812952506E+02  0.35338693125E+02  0.41800000000E+01 0.  1.
         -5    1    4    4    0  501  0.39596517844E+02  0.18551111135E+02  0.15151860478E+03  0.15775737049E+03  0.41800000000E+01 0.  1.
</event>
<event>
11    1  0.1003949E-008  0.1331037E+03  0.7561462E-02  0.1115513E+00
         22   -1    0    0    0    0  0.00000000000E+00  0.00000000000E+00  0.14551992742E+03  0.14551992742E+03  0.00000000000E+00 0. -1.
         22   -1    0    0    0    0 -0.00000000000E+00 -0.00000000000E+00 -0.86679623272E+03  0.86679623272E+03  0.00000000000E+00 0.  1.
         24    2    1    2    0    0  0.56119732248E+02 -0.31648688763E+01 -0.60209111347E+03  0.61120353580E+03  0.88862886009E+02 0.  0.
         25    2    1    2    0    0 -0.57462014842E+01 -0.23871721671E+02 -0.22355318583E+03  0.25734380385E+03  0.12508768348E+03 0.  0.
        -24    2    1    2    0    0 -0.50373530764E+02  0.27036590547E+02  0.10436799401E+03  0.14376882049E+03  0.80674195017E+02 0.  0.
        -13    1    3    3    0    0  0.15308431473E+02  0.17253929086E+01 -0.51140788442E+03  0.51163986289E+03  0.00000000000E+00 0.  1.
         14    1    3    3    0    0  0.40811300775E+02 -0.48902617849E+01 -0.90683229052E+02  0.99563672907E+02  0.00000000000E+00 0. -1.
         11    1    5    5    0    0 -0.61716654582E+02  0.11782241388E+02  0.10748819553E+03  0.12450493501E+03  0.00000000000E+00 0. -1.
        -12    1    5    5    0    0  0.11343123818E+02  0.15254349160E+02 -0.31202015162E+01  0.19263885479E+02  0.00000000000E+00 0.  1.
          5    1    4    4  501    0  0.25831958091E+02  0.44465724691E+02 -0.79981417148E+02  0.95178727771E+02  0.41800000000E+01 0. -1.
         -5    1    4    4    0  501 -0.31578159575E+02 -0.68337446362E+02 -0.14357176868E+03  0.16216507608E+03  0.41800000000E+01 0. -1.
</event>
<event>
11    1  0.1003949E-008  0.1667980E+03  0.7561462E-02  0.1080852E+00
         22   -1    0    0    0    0  0.00000000000E+00  0.00000000000E+00  0.10008103991E+04  0.10008103991E+04  0.00000000000E+00 0. -1.
         22   -1    0    0    0    0 -0.00000000000E+00 -0.00000000000E+00 -0.26459965062E+03  0.26459965062E+03  0.00000000000E+00 0. -1.
         24    2    1    2    0    0 -0.42512417000E+02 -0.98869514027E+02 -0.19932575306E+03  0.24051277762E+03  0.80827928127E+02 0.  0.
         25    2    1    2    0    0  0.62157196209E+02  0.12289690832E+03  0.16256733261E+03  0.24706211124E+03  0.12507750423E+03 0.  0.
        -24    2    1    2    0    0 -0.19644779208E+02 -0.24027394292E+02  0.77296916892E+03  0.77783516085E+03  0.81135493590E+02 0.  0.
        -11    1    3    3    0    0  0.18274875190E+02 -0.41673831318E+02 -0.39725032016E+02  0.60404945564E+02  0.00000000000E+00 0.  1.
         12    1    3    3    0    0 -0.60787292190E+02 -0.57195682709E+02 -0.15960072104E+03  0.18010783206E+03  0.00000000000E+00 0. -1.
         13    1    5    5    0    0 -0.15178680946E+02 -0.39381977699E+02  0.18934280141E+03  0.19398976511E+03  0.00000000000E+00 0. -1.
        -14    1    5    5    0    0 -0.44660982624E+01  0.15354583408E+02  0.58362636751E+03  0.58384539574E+03  0.00000000000E+00 0.  1.
          5    1    4    4  501    0 -0.10340608517E+02  0.85746978113E+02  0.30221525828E+02  0.91598501425E+02  0.41800000000E+01 0.  1.
         -5    1    4    4    0  501  0.72497804726E+02  0.37149930206E+02  0.13234580678E+03  0.15546360982E+03  0.41800000000E+01 0.  1.
</event>
<event>
11    1  0.1003949E-008  0.1357715E+03  0.7561462E-02  0.1112374E+00
         22   -1    0    0    0    0  0.00000000000E+00  0.00000000000E+00  0.14589358914E+04  0.14589358914E+04  0.00000000000E+00 0. -1.
         22   -1    0    0    0    0 -0.00000000000E+00 -0.00000000000E+00 -0.11371856001E+03  0.11371856001E+03  0.00000000000E+00 0. -1.
         24    2    1    2    0    0  0.37382829882E+02  0.80685425351E+01 -0.66992186622E+02  0.10894749216E+03  0.76935204108E+02 0.  0.
         25    2    1    2    0    0  0.17426137880E+02  0.17336942577E+01  0.14383201196E+03  0.19142253932E+03  0.12509302506E+03 0.  0.
        -24    2    1    2    0    0 -0.54808967762E+02 -0.98022367928E+01  0.12683775061E+04  0.12722844199E+04  0.82619855766E+02 0.  0.
        -11    1    3    3    0    0 -0.18254469086E+02  0.93926507666E+01 -0.44338386715E+02  0.48860414105E+02  0.00000000000E+00 0.  1.
         12    1    3    3    0    0  0.55637298968E+02 -0.13241082315E+01 -0.22653799907E+02  0.60087078056E+02  0.00000000000E+00 0. -1.
         11    1    5    5    0    0 -0.53882975776E+01 -0.40890752256E+02  0.52563346440E+03  0.52724911216E+03  0.00000000000E+00 0. -1.
        -12    1    5    5    0    0 -0.49420670184E+02  0.31088515463E+02  0.74274404165E+03  0.74503530778E+03  0.00000000000E+00 0.  1.
          5    1    4    4  501    0  0.58904611207E+02  0.38280129837E+02  0.88819522858E+02  0.11332034946E+03  0.41800000000E+01 0. -1.
         -5    1    4    4    0  501 -0.41478473327E+02 -0.36546435580E+02  0.55012489104E+02  0.78102189857E+02  0.41800000000E+01 0. -1.
</event>
<event>
11    1  0.1003949E-008  0.1402571E+03  0.7561462E-02  0.1107272E+00
         22   -1    0    0    0    0  0.00000000000E+00  0.00000000000E+00  0.37571122797E+03  0.37571122797E+03  0.00000000000E+00 0. -1.
         22   -1    0    0    0    0 -0.00000000000E+00 -0.00000000000E+00 -0.16793679555E+04  0.16793679555E+04  0.00000000000E+00 0. -1.
         24    2    1    2    0    0 -0.48927947504E+02  0.40130867722E+02 -0.16072015786E+04  0.16104328788E+04  0.79954438703E+02 0.  0.
         25    2    1    2    0    0  0.56847523726E+02 -0.43018271143E+02  0.14268715142E+02  0.14468363923E+03  0.12509015398E+03 0.  0.
        -24    2    1    2    0    0 -0.79195762221E+01  0.28874034216E+01  0.28927613594E+03  0.29996266543E+03  0.78904125661E+02 0.  0.
        -11    1    3    3    0    0 -0.43773227922E+02  0.52281522586E+02 -0.74098113044E+03  0.74411187919E+03  0.00000000000E+00 0.  1.
         12    1    3    3    0    0 -0.51547195821E+01 -0.12150654864E+02 -0.86622044820E+03  0.86632099965E+03  0.00000000000E+00 0. -1.
         11    1    5    5    0    0 -0.26854700406E+02  0.10881640283E+02  0.27073754710E+03  0.27228368375E+03  0.00000000000E+00 0. -1.
        -12    1    5    5    0    0  0.18935124184E+02 -0.79942368614E+01  0.18538588838E+02  0.27678981682E+02  0.00000000000E+00 0.  1.
          5    1    4    4  501    0  0.48983427391E+02  0.31893495706E+02 -0.19872206964E+02  0.61878495755E+02  0.41800000000E+01 0. -1.
         -5    1    4    4    0  501  0.78640963350E+01 -0.74911766849E+02  0.34140922106E+02  0.82805143475E+02  0.41800000000E+01 0. -1.
</event>
<event>
11    1  0.1003949E-008  0.1645479E+03  0.7561462E-02  0.1082876E+00
         22   -1    0    0    0    0  0.00000000000E+00  0.00000000000E+00  0.16361602835E+03  0.16361602835E+03  0.00000000000E+00 0.  1.
         22   -1    0    0    0    0 -0.00000000000E+00 -0.00000000000E+00 -0.34200344063E+04  0.34200344063E+04  0.00000000000E+00 0.  1.
         24    2    1    2    0    0 -0.10708538205E+03  0.44249105317E-01 -0.32383791974E+04  0.32411648696E+04  0.81133254302E+02 0.  0.
         25    2    1    2    0    0  0.10075478298E+03 -0.52055806195E+02 -0.11358491589E+03  0.20349382749E+03  0.12508745523E+03 0.  0.
        -24    2    1    2    0    0  0.63305990749E+01  0.52011557089E+02  0.95545735348E+02  0.13899173753E+03  0.86281150916E+02 0.  0.
        -13    1    3    3    0    0 -0.11125067731E+03 -0.18195891404E+02 -0.24880722457E+04  0.24906246814E+04  0.00000000000E+00 0.  1.
         14    1    3    3    0    0  0.41652952522E+01  0.18240140509E+02 -0.75030695167E+03  0.75054018822E+03  0.00000000000E+00 0. -1.
         13    1    5    5    0    0  0.14159700494E+02 -0.22104952687E+02  0.21484005074E+02  0.33921800150E+02  0.00000000000E+00 0. -1.
        -14    1    5    5    0    0 -0.78291014187E+01  0.74116509776E+02  0.74061730273E+02  0.10506993738E+03  0.00000000000E+00 0.  1.
          5    1    4    4  501    0  0.10605668756E+03  0.91390706737E+01 -0.81057884323E+02  0.13386335047E+03  0.41800000000E+01 0. -1.
         -5    1    4    4    0  501 -0.53019045767E+01 -0.61194876868E+02 -0.32527031565E+02  0.69630477016E+02  0.41800000000E+01 0. -1.
</event>
<event>
11    1  0.1003949E-008  0.1459398E+03  0.7561462E-02  0.1101101E+00
         22   -1    0    0    0    0  0.00000000000E+00  0.00000000000E+00  0.45709942396E+02  0.45709942396E+02  0.00000000000E+00 0.  1.
         22   -1    0    0    0    0 -0.00000000000E+00 -0.00000000000E+00 -0.14785116803E+04  0.14785116803E+04  0.00000000000E+00 0.  1.
        -24    2    1    2    0    0  0.28527330720E+02 -0.26302578261E+02 -0.10584174940E+04  0.10622191320E+04  0.80970725793E+02 0.  0.
         25    2    1    2    0    0 -0.37365628244E+01 -0.55273615475E+02 -0.27413206483E+03  0.30635191369E+03  0.12503588119E+03 0.  0.
         24    2    1    2    0    0 -0.24790767896E+02  0.81576193736E+02 -0.10025217901E+03  0.15565057700E+03  0.83110439581E+02 0.  0.
        -13    1    5    5    0    0 -0.19671975428E+02  0.48507395881E+02 -0.25832182955E+01  0.52408273098E+02  0.00000000000E+00 0.  1.
         14    1    5    5    0    0 -0.51187924676E+01  0.33068797855E+02 -0.97668960719E+02  0.10324230391E+03  0.00000000000E+00 0. -1.
         13    1    3    3    0    0 -0.18538869455E+02  0.15684503028E+02 -0.19605423386E+03  0.19755241312E+03  0.00000000000E+00 0. -1.
        -14    1    3    3    0    0  0.47066200175E+02 -0.41987081289E+02 -0.86236326016E+03  0.86466671884E+03  0.00000000000E+00 0.  1.
          5    1    4    4  501    0 -0.35227563937E+02 -0.35757536650E+02 -0.28432997618E+02  0.57840214745E+02  0.41800000000E+01 0. -1.
         -5    1    4    4    0  501  0.31491001113E+02 -0.19516078826E+02 -0.24569906721E+03  0.24851169894E+03  0.41800000000E+01 0. -1.
</event>
<event>
11    1  0.1003949E-008  0.1420754E+03  0.7561462E-02  0.1105263E+00
         22   -1    0    0    0    0  0.00000000000E+00  0.00000000000E+00  0.75715469216E+03  0.75715469216E+03  0.00000000000E+00 0.  1.
         22   -1    0    0    0    0 -0.00000000000E+00 -0.00000000000E+00 -0.40957871728E+03  0.40957871728E+03  0.00000000000E+00 0. -1.
         24    2    1    2    0    0  0.21493767783E+02 -0.71827096425E+02 -0.28489826613E+03  0.30496423663E+03  0.78835586765E+02 0.  0.
         25    2    1    2    0    0  0.27631263041E+01  0.40280826897E+02 -0.73084234546E+02  0.15039053796E+03  0.12508328699E+03 0.  0.
        -24    2    1    2    0    0 -0.24256894087E+02  0.31546269528E+02  0.70555847556E+03  0.71137863485E+03  0.81628644828E+02 0.  0.
        -11    1    3    3    0    0 -0.22795752453E+02  0.86208676697E+00 -0.77226550311E+02  0.80525335122E+02  0.00000000000E+00 0.  1.
         12    1    3    3    0    0  0.44289520236E+02 -0.72689183192E+02 -0.20767171582E+03  0.22443890150E+03  0.00000000000E+00 0. -1.
         13    1    5    5    0    0  0.16496021990E+02 -0.66927177791E+01  0.42146854463E+03  0.42184433779E+03  0.00000000000E+00 0. -1.
        -14    1    5    5    0    0 -0.40752916077E+02  0.38238987307E+02  0.28408993093E+03  0.28953429706E+03  0.00000000000E+00 0.  1.
          5    1    4    4  501    0  0.37213333324E+01  0.10760065029E+02  0.35640561973E+02  0.37647700845E+02  0.41800000000E+01 0.  1.
         -5    1    4    4    0  501 -0.95820702830E+00  0.29520761868E+02 -0.10872479652E+03  0.11274283711E+03  0.41800000000E+01 0.  1.
</event>
<event>
11    1  0.1003949E-008  0.1695186E+03  0.7561462E-02  0.1078451E+00
         22   -1    0    0    0    0  0.00000000000E+00  0.00000000000E+00  0.36310732676E+03  0.36310732676E+03  0.00000000000E+00 0. -1.
         22   -1    0    0    0    0 -0.00000000000E+00 -0.00000000000E+00 -0.33864679429E+04  0.33864679429E+04  0.00000000000E+00 0. -1.
         24    2    1    2    0    0  0.42456544803E+02  0.10621244223E+03 -0.33325794660E+04  0.33355677349E+04  0.82719864986E+02 0.  0.
         25    2    1    2    0    0 -0.55502907036E+02 -0.10633674893E+03  0.27674239678E+03  0.32652988015E+03  0.12508929448E+03 0.  0.
        -24    2    1    2    0    0  0.13046362233E+02  0.12430669676E+00  0.32476453046E+02  0.87477654614E+02  0.80171048606E+02 0.  0.
        -13    1    3    3    0    0  0.64586025848E+00  0.68998353322E+01 -0.13799004484E+04  0.13799178499E+04  0.00000000000E+00 0.  1.
         14    1    3    3    0    0  0.41810684545E+02  0.99312606897E+02 -0.19526790176E+04  0.19556498851E+04  0.00000000000E+00 0. -1.
         11    1    5    5    0    0 -0.79432056586E+01  0.11713305349E+02  0.53653116616E+02  0.55488313733E+02  0.00000000000E+00 0. -1.
        -12    1    5    5    0    0  0.20989567891E+02 -0.11588998653E+02 -0.21176663570E+02  0.31989340881E+02  0.00000000000E+00 0.  1.
          5    1    4    4  501    0 -0.56205036599E+02  0.40626624595E+01  0.55333486683E+02  0.79087157705E+02  0.41800000000E+01 0.  1.
         -5    1    4    4    0  501  0.70212956340E+00 -0.11039941139E+03  0.22140891010E+03  0.24744272245E+03  0.41800000000E+01 0.  1.
</event>
<event>
11    1  0.1003949E-008  0.1294182E+03  0.7561462E-02  0.1119986E+00
         22   -1    0    0    0    0  0.00000000000E+00  0.00000000000E+00  0.11113682092E+04  0.11113682092E+04  0.00000000000E+00 0. -1.
         22   -1    0    0    0    0 -0.00000000000E+00 -0.00000000000E+00 -0.18325065905E+04  0.18325065905E+04  0.00000000000E+00 0. -1.
        -24    2    1    2    0    0  0.74196477199E+01 -0.20372043110E+02 -0.17329531999E+04  0.17350147371E+04  0.81726821668E+02 0.  0.
         25    2    1    2    0    0  0.72174734939E+01 -0.98365136683E+01 -0.55964814551E+02  0.13758174732E+03  0.12509127788E+03 0.  0.
         24    2    1    2    0    0 -0.14637121214E+02  0.30208556778E+02  0.10677796332E+04  0.10712783153E+04  0.79731308886E+02 0.  0.
        -11    1    5    5    0    0  0.23319310058E+02  0.39861967833E+02  0.66385214440E+03  0.66545656231E+03  0.00000000000E+00 0.  1.
         12    1    5    5    0    0 -0.37956431272E+02 -0.96534110549E+01  0.40392748880E+03  0.40582175302E+03  0.00000000000E+00 0. -1.
         11    1    3    3    0    0 -0.45977270032E+01 -0.48428826466E+02 -0.13379417948E+04  0.13388258799E+04  0.00000000000E+00 0. -1.
        -12    1    3    3    0    0  0.12017374723E+02  0.28056783356E+02 -0.39501140509E+03  0.39618885717E+03  0.00000000000E+00 0.  1.
          5    1    4    4  501    0 -0.53756696732E+02  0.14736261813E+01  0.70660316193E-02  0.53939099618E+02  0.41800000000E+01 0.  1.
         -5    1    4    4    0  501  0.60974170226E+02 -0.11310139850E+02 -0.55971880583E+02  0.83642647699E+02  0.41800000000E+01 0.  1.
</event>
<event>
11    1  0.1003949E-008  0.2813581E+03  0.7561462E-02  0.1008405E+00
         22   -1    0    0    0    0  0.00000000000E+00  0.00000000000E+00  0.18191674785E+04  0.18191674785E+04  0.00000000000E+00 0. -1.
         22   -1    0    0    0    0 -0.00000000000E+00 -0.00000000000E+00 -0.67242466507E+02  0.67242466507E+02  0.00000000000E+00 0.  1.
         24    2    1    2    0    0  0.15742834350E+02 -0.58399199568E+02  0.88887135185E+02  0.13260576995E+03  0.77621286250E+02 0.  0.
         25    2    1    2    0    0 -0.38588882808E+02 -0.21535508410E+03  0.55718450126E+03  0.61153247194E+03  0.12510188518E+03 0.  0.
        -24    2    1    2    0    0  0.22846048458E+02  0.27375428366E+03  0.11058533756E+04  0.11422717031E+04  0.80060013541E+02 0.  0.
        -13    1    3    3    0    0  0.12104465712E+02 -0.88844396038E+01 -0.12615560963E+02  0.19611316520E+02  0.00000000000E+00 0.  1.
         14    1    3    3    0    0  0.36383686378E+01 -0.49514759964E+02  0.10150269615E+03  0.11299445343E+03  0.00000000000E+00 0. -1.
         11    1    5    5    0    0  0.31217638289E+02  0.98283000698E+02  0.29198111389E+03  0.30965635798E+03  0.00000000000E+00 0. -1.
        -12    1    5    5    0    0 -0.83715898309E+01  0.17547128297E+03  0.81387226166E+03  0.83261534514E+03  0.00000000000E+00 0.  1.
          5    1    4    4  501    0  0.40872886246E+02 -0.31831833679E+02  0.11815071435E+03  0.12907719460E+03  0.41800000000E+01 0.  1.
         -5    1    4    4    0  501 -0.79461769054E+02 -0.18352325042E+03  0.43903378691E+03  0.48245527734E+03  0.41800000000E+01 0.  1.
</event>
<event>
11    1  0.1003949E-008  0.1634189E+03  0.7561462E-02  0.1083905E+00
         22   -1    0    0    0    0  0.00000000000E+00  0.00000000000E+00  0.17674298962E+03  0.17674298962E+03  0.00000000000E+00 0.  1.
         22   -1    0    0    0    0 -0.00000000000E+00 -0.00000000000E+00 -0.27980128368E+03  0.27980128368E+03  0.00000000000E+00 0. -1.
        -24    2    1    2    0    0  0.12466058551E+03  0.16612861878E+02 -0.12010306289E+03  0.19171133918E+03  0.80698470217E+02 0.  0.
         25    2    1    2    0    0 -0.97327431140E+02  0.18066549557E+02  0.48727423297E+02  0.16678128990E+03  0.12507041143E+03 0.  0.
         24    2    1    2    0    0 -0.27333154369E+02 -0.34679411434E+02 -0.31682654474E+02  0.98051644222E+02  0.81612324039E+02 0.  0.
        -13    1    5    5    0    0 -0.18603451542E+01 -0.37366500198E+02 -0.52898765904E+02  0.64791941284E+02  0.00000000000E+00 0.  1.
         14    1    5    5    0    0 -0.25472809214E+02  0.26870887641E+01  0.21216111431E+02  0.33259702938E+02  0.00000000000E+00 0. -1.
         11    1    3    3    0    0  0.13089423199E+03  0.49087064938E+01 -0.12113221180E+03  0.17841078471E+03  0.00000000000E+00 0. -1.
        -12    1    3    3    0    0 -0.62336464776E+01  0.11704155384E+02  0.10291489078E+01  0.13300554467E+02  0.00000000000E+00 0.  1.
          5    1    4    4  501    0 -0.16311064433E+02 -0.49644528807E+02  0.26742869380E+02  0.58849668870E+02  0.41800000000E+01 0.  1.
         -5    1    4    4    0  501 -0.81016366707E+02  0.67711078363E+02  0.21984553917E+02  0.10793162103E+03  0.41800000000E+01 0.  1.
</event>
<event>
11    1  0.1003949E-008  0.1520771E+03  0.7561462E-02  0.1094775E+00
         22   -1    0    0    0    0  0.00000000000E+00  0.00000000000E+00  0.87972250095E+03  0.87972250095E+03  0.00000000000E+00 0. -1.
         22   -1    0    0    0    0 -0.00000000000E+00 -0.00000000000E+00 -0.20454096738E+03  0.20454096738E+03  0.00000000000E+00 0. -1.
         24    2    1    2    0    0  0.73658348087E+02 -0.67842091367E+01 -0.13674611037E+03  0.17551553964E+03  0.81453227178E+02 0.  0.
         25    2    1    2    0    0 -0.15147269579E+03 -0.78896159554E+01  0.17881930008E+03  0.26577204481E+03  0.12510880910E+03 0.  0.
        -24    2    1    2    0    0  0.77814347699E+02  0.14673825092E+02  0.63310834387E+03  0.64297588387E+03  0.79507347535E+02 0.  0.
        -13    1    3    3    0    0 -0.94967567339E+01  0.19164333183E+01  0.50346539552E+01  0.10918280340E+02  0.00000000000E+00 0.  1.
         14    1    3    3    0    0  0.83155104821E+02 -0.87006424550E+01 -0.14178076433E+03  0.16459725930E+03  0.00000000000E+00 0. -1.
         13    1    5    5    0    0  0.77327491365E+02  0.21343599394E+01  0.62008082033E+03  0.62488744599E+03  0.00000000000E+00 0. -1.
        -14    1    5    5    0    0  0.48685633414E+00  0.12539465153E+02  0.13027523534E+02  0.18088437877E+02  0.00000000000E+00 0.  1.
          5    1    4    4  501    0 -0.57899198890E+02 -0.32485124992E+02  0.15101572586E+03  0.16501764280E+03  0.41800000000E+01 0. -1.
         -5    1    4    4    0  501 -0.93573496896E+02  0.24595509036E+02  0.27803574220E+02  0.10075440202E+03  0.41800000000E+01 0. -1.
</event>
<event>
11    1  0.1003949E-008  0.2537269E+03  0.7561462E-02  0.1021932E+00
         22   -1    0    0    0    0  0.00000000000E+00  0.00000000000E+00  0.34585956938E+04  0.34585956938E+04  0.00000000000E+00 0.  1.
         22   -1    0    0    0    0 -0.00000000000E+00 -0.00000000000E+00 -0.94748810541E+02  0.94748810541E+02  0.00000000000E+00 0. -1.
        -24    2    1    2    0    0 -0.59332874891E+02  0.21154166719E+03  0.82172112981E+02  0.24843305355E+03  0.81831894410E+02 0.  0.
         25    2    1    2    0    0  0.13605893777E+03 -0.20397771742E+03  0.21581514580E+04  0.21756367705E+04  0.12513471965E+03 0.  0.
         24    2    1    2    0    0 -0.76726062882E+02 -0.75639497694E+01  0.11235233123E+04  0.11292746802E+04  0.83741077637E+02 0.  0.
        -11    1    5    5    0    0 -0.80114351410E+02 -0.32807164077E+01  0.55863166614E+03  0.56435663443E+03  0.00000000000E+00 0.  1.
         12    1    5    5    0    0  0.33882885285E+01 -0.42832333617E+01  0.56489164614E+03  0.56491804579E+03  0.00000000000E+00 0. -1.
         11    1    3    3    0    0 -0.39933888726E+02  0.20963571394E+03  0.82863536732E+02  0.22892840311E+03  0.00000000000E+00 0. -1.
        -12    1    3    3    0    0 -0.19398986165E+02  0.19059532470E+01 -0.69142375160E+00  0.19504650440E+02  0.00000000000E+00 0.  1.
          5    1    4    4  501    0  0.63211861867E+02 -0.52640471345E+01  0.51019276584E+03  0.51413770566E+03  0.41800000000E+01 0.  1.
         -5    1    4    4    0  501  0.72847075905E+02 -0.19871367029E+03  0.16479586921E+04  0.16614990649E+04  0.41800000000E+01 0.  1.
</event>
<event>
11    1  0.1003949E-008  0.1273979E+03  0.7561462E-02  0.1122508E+00
         22   -1    0    0    0    0  0.00000000000E+00  0.00000000000E+00  0.14730986797E+03  0.14730986797E+03  0.00000000000E+00 0. -1.
         22   -1    0    0    0    0 -0.00000000000E+00 -0.00000000000E+00 -0.16133290624E+04  0.16133290624E+04  0.00000000000E+00 0. -1.
         24    2    1    2    0    0  0.14010716451E+02 -0.14423618580E+01 -0.14810967228E+04  0.14832585146E+04  0.78803162330E+02 0.  0.
         25    2    1    2    0    0 -0.23061606586E+02  0.22847180283E+02 -0.77452692192E+02  0.15065992137E+03  0.12508261684E+03 0.  0.
        -24    2    1    2    0    0  0.90508901349E+01 -0.21404818425E+02  0.92530220471E+02  0.12672049444E+03  0.83403579932E+02 0.  0.
        -13    1    3    3    0    0  0.34663729440E+02  0.26831305518E+02 -0.94826659570E+03  0.94927921583E+03  0.00000000000E+00 0.  1.
         14    1    3    3    0    0 -0.20653012989E+02 -0.28273667376E+02 -0.53283012706E+03  0.53397929877E+03  0.00000000000E+00 0. -1.
         11    1    5    5    0    0  0.14201728910E+02 -0.19874871645E+02  0.10779996113E+03  0.11053294190E+03  0.00000000000E+00 0. -1.
        -12    1    5    5    0    0 -0.51508387748E+01 -0.15299467802E+01 -0.15269740656E+02  0.16187552531E+02  0.00000000000E+00 0.  1.
          5    1    4    4  501    0  0.96005376122E+01 -0.43504492757E+02 -0.18017883730E+01  0.44783144752E+02  0.41800000000E+01 0.  1.
         -5    1    4    4    0  501 -0.32662144198E+02  0.66351673040E+02 -0.75650903819E+02  0.10587677662E+03  0.41800000000E+01 0.  1.
</event>
<event>
11    1  0.1003949E-008  0.4458372E+03  0.7561462E-02  0.9523424E-01
         22   -1    0    0    0    0  0.00000000000E+00  0.00000000000E+00  0.60383797937E+02  0.60383797937E+02  0.00000000000E+00 0. -1.
         22   -1    0    0    0    0 -0.00000000000E+00 -0.00000000000E+00 -0.82294777821E+03  0.82294777821E+03  0.00000000000E+00 0. -1.
        -24    2    1    2    0    0  0.91440817708E+02 -0.22381119944E+02 -0.15803624486E+03  0.19825638399E+03  0.73944583522E+02 0.  0.
         25    2    1    2    0    0 -0.15574141561E+03 -0.54683564917E+01 -0.49758735747E+03  0.53621371048E+03  0.12508666407E+03 0.  0.
         24    2    1    2    0    0  0.64300597904E+02  0.27849476436E+02 -0.10694037794E+03  0.14886148167E+03  0.76245236333E+02 0.  0.
        -11    1    5    5    0    0  0.39706395640E+02  0.37048889030E+02 -0.19723394357E+02  0.57777420486E+02  0.00000000000E+00 0.  1.
         12    1    5    5    0    0  0.24594202264E+02 -0.91994125939E+01 -0.87216983583E+02  0.91084061188E+02  0.00000000000E+00 0. -1.
         11    1    3    3    0    0  0.64312721858E+02 -0.19571516777E+02 -0.42472116738E+02  0.79517615419E+02  0.00000000000E+00 0. -1.
        -12    1    3    3    0    0  0.27128095850E+02 -0.28096031671E+01 -0.11556412812E+03  0.11873876857E+03  0.00000000000E+00 0.  1.
          5    1    4    4  501    0 -0.37698770078E+01  0.37334401418E+02 -0.14560137613E+03  0.15041709555E+03  0.41800000000E+01 0. -1.
         -5    1    4    4    0  501 -0.15197153860E+03 -0.42802757910E+02 -0.35198598135E+03  0.38579661493E+03  0.41800000000E+01 0. -1.
</event>
<event>
11    1  0.1003949E-008  0.1399068E+03  0.7561462E-02  0.1107663E+00
         22   -1    0    0    0    0  0.00000000000E+00  0.00000000000E+00  0.62654093708E+03  0.62654093708E+03  0.00000000000E+00 0. -1.
         22   -1    0    0    0    0 -0.00000000000E+00 -0.00000000000E+00 -0.45041877173E+03  0.45041877173E+03  0.00000000000E+00 0. -1.
        -24    2    1    2    0    0  0.49476001704E+02 -0.44688422503E+02 -0.40371493918E+03  0.41570294467E+03  0.73336595518E+02 0.  0.
         25    2    1    2    0    0 -0.67902625004E+02 -0.18921295464E+02  0.11267490486E+03  0.18251549842E+03  0.12508993195E+03 0.  0.
         24    2    1    2    0    0  0.18426623300E+02  0.63609717967E+02  0.46716219966E+03  0.47874126572E+03  0.81036670995E+02 0.  0.
        -13    1    5    5    0    0 -0.16476316175E+02 -0.66754653121E+01  0.32428563534E+02  0.36981651730E+02  0.00000000000E+00 0.  1.
         14    1    5    5    0    0  0.34902939475E+02  0.70285183279E+02  0.43473363613E+03  0.44175961399E+03  0.00000000000E+00 0. -1.
         13    1    3    3    0    0 -0.62195460775E+01 -0.36673048248E+02 -0.97367307635E+02  0.10423045533E+03  0.00000000000E+00 0. -1.
        -14    1    3    3    0    0  0.55695547781E+02 -0.80153742545E+01 -0.30634763154E+03  0.31147248934E+03  0.00000000000E+00 0.  1.
          5    1    4    4  501    0  0.26362276823E+02  0.49249039825E+01 -0.72252846271E+01  0.28087389635E+02  0.41800000000E+01 0.  1.
         -5    1    4    4    0  501 -0.94264901827E+02 -0.23846199447E+02  0.11990018949E+03  0.15442810879E+03  0.41800000000E+01 0.  1.
</event>
<event>
11    1  0.1003949E-008  0.2526224E+03  0.7561462E-02  0.1022511E+00
         22   -1    0    0    0    0  0.00000000000E+00  0.00000000000E+00  0.25928668814E+04  0.25928668814E+04  0.00000000000E+00 0. -1.
         22   -1    0    0    0    0 -0.00000000000E+00 -0.00000000000E+00 -0.72339133129E+03  0.72339133129E+03  0.00000000000E+00 0. -1.
        -24    2    1    2    0    0  0.48058101560E+02 -0.10860795602E+03 -0.64723399717E+03  0.66321191977E+03  0.82661564166E+02 0.  0.
         25    2    1    2    0    0 -0.16112732398E+03  0.28450054454E+03  0.43087847363E+03  0.55516258427E+03  0.12508661624E+03 0.  0.
         24    2    1    2    0    0  0.11306922242E+03 -0.17589258852E+03  0.20858310737E+04  0.20978837087E+04  0.81865349504E+02 0.  0.
        -11    1    5    5    0    0  0.14775768934E+01 -0.43970011328E+01  0.35071879110E+03  0.35074946512E+03  0.00000000000E+00 0.  1.
         12    1    5    5    0    0  0.11159164552E+03 -0.17149558739E+03  0.17351122826E+04  0.17471342436E+04  0.00000000000E+00 0. -1.
         11    1    3    3    0    0  0.58635788889E+02 -0.11542877363E+03 -0.54302261798E+03  0.55824324551E+03  0.00000000000E+00 0. -1.
        -12    1    3    3    0    0 -0.10577687329E+02  0.68208176126E+01 -0.10421137919E+03  0.10496867426E+03  0.00000000000E+00 0.  1.
          5    1    4    4  501    0  0.17575225301E+02  0.13811393057E+02  0.49603802716E+02  0.54567873025E+02  0.41800000000E+01 0. -1.
         -5    1    4    4    0  501 -0.17870254928E+03  0.27068915148E+03  0.38127467091E+03  0.50059471125E+03  0.41800000000E+01 0. -1.
</event>
<event>
11    1  0.1003949E-008  0.1524333E+03  0.7561462E-02  0.1094418E+00
         22   -1    0    0    0    0  0.00000000000E+00  0.00000000000E+00  0.28492346551E+03  0.28492346551E+03  0.00000000000E+00 0. -1.
         22   -1    0    0    0    0 -0.00000000000E+00 -0.00000000000E+00 -0.28248053672E+03  0.28248053672E+03  0.00000000000E+00 0. -1.
        -24    2    1    2    0    0 -0.37478235925E+01  0.20491049349E+02 -0.18607048009E+03  0.20461924693E+03  0.82540192440E+02 0.  0.
         25    2    1    2    0    0 -0.23626310664E+02  0.66955570333E+02  0.79047765327E+01  0.14405365476E+03  0.12509084300E+03 0.  0.
         24    2    1    2    0    0  0.27374134257E+02 -0.87446619682E+02  0.18060863236E+03  0.21873110054E+03  0.82629061120E+02 0.  0.
        -13    1    5    5    0    0 -0.12253672823E+01  0.66756106419E+01 -0.51589097087E+01  0.85252361728E+01  0.00000000000E+00 0.  1.
         14    1    5    5    0    0  0.28599501539E+02 -0.94122230324E+02  0.18576754206E+03  0.21020586437E+03  0.00000000000E+00 0. -1.
         11    1    3    3    0    0  0.74736855595E-01  0.41872274159E+02 -0.17556977626E+03  0.18049387598E+03  0.00000000000E+00 0. -1.
        -12    1    3    3    0    0 -0.38225604481E+01 -0.21381224810E+02 -0.10500703832E+02  0.24125370955E+02  0.00000000000E+00 0.  1.
          5    1    4    4  501    0  0.27843895976E+01 -0.33286126533E+02 -0.16478890208E+02  0.37479931530E+02  0.41800000000E+01 0.  1.
         -5    1    4    4    0  501 -0.26410700262E+02  0.10024169687E+03  0.24383666740E+02  0.10657372323E+03  0.41800000000E+01 0.  1.
</event>
<event>
11    1  0.1003949E-008  0.1416073E+03  0.7561462E-02  0.1105777E+00
         22   -1    0    0    0    0  0.00000000000E+00  0.00000000000E+00  0.21177337098E+03  0.21177337098E+03  0.00000000000E+00 0.  1.
         22   -1    0    0    0    0 -0.00000000000E+00 -0.00000000000E+00 -0.50662971679E+03  0.50662971679E+03  0.00000000000E+00 0. -1.
         24    2    1    2    0    0  0.19592603531E+02 -0.66634172832E+01 -0.42084360587E+03  0.42918150848E+03  0.81603648082E+02 0.  0.
         25    2    1    2    0    0 -0.12446131182E+02  0.71212674778E+02  0.27895025819E+02  0.14714555009E+03  0.12509008440E+03 0.  0.
        -24    2    1    2    0    0 -0.71464723496E+01 -0.64549257495E+02  0.98092234239E+02  0.14207602919E+03  0.79660736510E+02 0.  0.
        -11    1    3    3    0    0 -0.58999234749E+01  0.22645761365E+01  0.10653913837E+01  0.64087799844E+01  0.00000000000E+00 0.  1.
         12    1    3    3    0    0  0.25492527006E+02 -0.89279934196E+01 -0.42190899725E+03  0.42277272850E+03  0.00000000000E+00 0. -1.
         11    1    5    5    0    0 -0.20573104075E+02 -0.65015487570E+02  0.33269480484E+02  0.75875717901E+02  0.00000000000E+00 0. -1.
        -12    1    5    5    0    0  0.13426631726E+02  0.46623007515E+00  0.64822753755E+02  0.66200311286E+02  0.00000000000E+00 0.  1.
          5    1    4    4  501    0 -0.48287480408E+02  0.66512774409E+00 -0.22288072676E+02  0.53351230002E+02  0.41800000000E+01 0. -1.
         -5    1    4    4    0  501  0.35841349226E+02  0.70547547034E+02  0.50183098495E+02  0.93794320092E+02  0.41800000000E+01 0. -1.
</event>
<event>
11    1  0.1003949E-008  0.4135552E+03  0.7561462E-02  0.9610588E-01
         22   -1    0    0    0    0  0.00000000000E+00  0.00000000000E+00  0.18696339856E+04  0.18696339856E+04  0.00000000000E+00 0. -1.
         22   -1    0    0    0    0 -0.00000000000E+00 -0.00000000000E+00 -0.25677749897E+03  0.25677749897E+03  0.00000000000E+00 0. -1.
         24    2    1    2    0    0 -0.42044642835E+02  0.36268182634E+03  0.63658047032E+02  0.37938560894E+03  0.81087817650E+02 0.  0.
         25    2    1    2    0    0  0.21667981639E+03 -0.49825235305E+03  0.92393156517E+03  0.10791212780E+04  0.12509054858E+03 0.  0.
        -24    2    1    2    0    0 -0.17463517356E+03  0.13557052671E+03  0.62526687444E+03  0.66790459764E+03  0.79126959558E+02 0.  0.
        -13    1    3    3    0    0 -0.18655663560E+02  0.13777192616E+03 -0.15311947488E+02  0.13986991512E+03  0.00000000000E+00 0.  1.
         14    1    3    3    0    0 -0.23388979275E+02  0.22490990018E+03  0.78969994520E+02  0.23951569382E+03  0.00000000000E+00 0. -1.
         11    1    5    5    0    0 -0.18090886913E+03  0.13783773120E+03  0.59685031193E+03  0.63871555009E+03  0.00000000000E+00 0. -1.
        -12    1    5    5    0    0  0.62736955792E+01 -0.22672044893E+01  0.28416562504E+02  0.29189047552E+02  0.00000000000E+00 0.  1.
          5    1    4    4  501    0  0.26124862262E+02 -0.22421635379E+02  0.20173808852E+02  0.40120981106E+02  0.41800000000E+01 0. -1.
         -5    1    4    4    0  501  0.19055495413E+03 -0.47583071767E+03  0.90375775632E+03  0.10390002969E+04  0.41800000000E+01 0. -1.
</event>
<event>
11    1  0.1003949E-008  0.2787438E+03  0.7561462E-02  0.1009611E+00
         22   -1    0    0    0    0  0.00000000000E+00  0.00000000000E+00  0.94403281421E+03  0.94403281421E+03  0.00000000000E+00 0. -1.
         22   -1    0    0    0    0 -0.00000000000E+00 -0.00000000000E+00 -0.22795479049E+04  0.22795479049E+04  0.00000000000E+00 0.  1.
         24    2    1    2    0    0 -0.21490852495E+03  0.12390383456E+03 -0.19601006192E+04  0.19774637996E+04  0.82648697834E+02 0.  0.
         25    2    1    2    0    0  0.20535800685E+03 -0.15795652890E+03 -0.24148221476E+03  0.37561012425E+03  0.12508848626E+03 0.  0.
        -24    2    1    2    0    0  0.95505180990E+01  0.34052694340E+02  0.86606774326E+03  0.87050679521E+03  0.80361347671E+02 0.  0.
        -11    1    3    3    0    0 -0.18656558817E+03  0.11743351012E+03 -0.14631892634E+04  0.14797027298E+04  0.00000000000E+00 0.  1.
         12    1    3    3    0    0 -0.28342936781E+02  0.64703244418E+01 -0.49691135577E+03  0.49776106984E+03  0.00000000000E+00 0. -1.
         13    1    5    5    0    0  0.32143392597E+02  0.43300588488E+02  0.37782527092E+03  0.38165439078E+03  0.00000000000E+00 0. -1.
        -14    1    5    5    0    0 -0.22592874498E+02 -0.92478941482E+01  0.48824247234E+03  0.48885240444E+03  0.00000000000E+00 0.  1.
          5    1    4    4  501    0  0.20956236558E+03 -0.12853394847E+03 -0.17241350596E+03  0.30030193208E+03  0.41800000000E+01 0. -1.
         -5    1    4    4    0  501 -0.42043587298E+01 -0.29422580430E+02 -0.69068708808E+02  0.75308192170E+02  0.41800000000E+01 0. -1.
</event>
<event>
11    1  0.1003949E-008  0.1374781E+03  0.7561462E-02  0.1110408E+00
         22   -1    0    0    0    0  0.00000000000E+00  0.00000000000E+00  0.12421797100E+04  0.12421797100E+04  0.00000000000E+00 0. -1.
         22   -1    0    0    0    0 -0.00000000000E+00 -0.00000000000E+00 -0.78506286117E+03  0.78506286117E+03  0.00000000000E+00 0. -1.
         24    2    1    2    0    0  0.17463081575E+02  0.55890455826E+02 -0.59916886940E+03  0.60759646956E+03  0.82106232951E+02 0.  0.
         25    2    1    2    0    0  0.24895165046E+02 -0.55321096474E+02 -0.15315504800E+03  0.20684414249E+03  0.12509131703E+03 0.  0.
        -24    2    1    2    0    0 -0.42358246621E+02 -0.56935935225E+00  0.12094407662E+04  0.12128019591E+04  0.79668562041E+02 0.  0.
        -11    1    3    3    0    0  0.20437908900E+02 -0.15559315433E+02 -0.96240909736E+02  0.99609804355E+02  0.00000000000E+00 0.  1.
         12    1    3    3    0    0 -0.29748273251E+01  0.71449771259E+02 -0.50292795967E+03  0.50798666521E+03  0.00000000000E+00 0. -1.
         11    1    5    5    0    0 -0.49317954358E+02  0.29784134603E+02  0.88366078116E+03  0.88553697351E+03  0.00000000000E+00 0. -1.
        -12    1    5    5    0    0  0.69597077369E+01 -0.30353493955E+02  0.32577998504E+03  0.32726498557E+03  0.00000000000E+00 0.  1.
          5    1    4    4  501    0 -0.81512608677E+01 -0.62441757870E+01  0.20518210169E+02  0.23321709490E+02  0.41800000000E+01 0.  1.
         -5    1    4    4    0  501  0.33046425914E+02 -0.49076920687E+02 -0.17367325817E+03  0.18352243300E+03  0.41800000000E+01 0.  1.
</event>
<event>
11    1  0.1003949E-008  0.1935172E+03  0.7561462E-02  0.1059205E+00
         22   -1    0    0    0    0  0.00000000000E+00  0.00000000000E+00  0.19677869326E+04  0.19677869326E+04  0.00000000000E+00 0. -1.
         22   -1    0    0    0    0 -0.00000000000E+00 -0.00000000000E+00 -0.32453965683E+03  0.32453965683E+03  0.00000000000E+00 0. -1.
         24    2    1    2    0    0  0.10348368638E+03 -0.11243111046E+03 -0.19619408249E+03  0.26100454863E+03  0.79256724988E+02 0.  0.
         25    2    1    2    0    0 -0.64510668757E+02  0.12035631153E+03 -0.35985814222E+01  0.18521020458E+03  0.12507038812E+03 0.  0.
        -24    2    1    2    0    0 -0.38973017627E+02 -0.79252010719E+01  0.18430399397E+04  0.18461118362E+04  0.98747089079E+02 0.  0.
        -13    1    3    3    0    0  0.21441341777E+02 -0.39471837421E+02 -0.11787002710E+03  0.12613921030E+03  0.00000000000E+00 0.  1.
         14    1    3    3    0    0  0.82042344606E+02 -0.72959273039E+02 -0.78324055393E+02  0.13486533833E+03  0.00000000000E+00 0. -1.
         11    1    5    5    0    0 -0.50823920618E+02  0.34804621051E+02  0.11595219775E+04  0.11611570302E+04  0.00000000000E+00 0. -1.
        -12    1    5    5    0    0  0.11850902991E+02 -0.42729822122E+02  0.68351796217E+03  0.68495480596E+03  0.00000000000E+00 0.  1.
          5    1    4    4  501    0 -0.57694318437E+02 -0.32681046669E+01  0.15226775376E+02  0.59905275030E+02  0.41800000000E+01 0. -1.
         -5    1    4    4    0  501 -0.68163503191E+01  0.12362441620E+03 -0.18825356798E+02  0.12530492955E+03  0.41800000000E+01 0. -1.
</event>
<event>
11    1  0.1003949E-008  0.8911907E+03  0.7561462E-02  0.8790006E-01
         22   -1    0    0    0    0  0.00000000000E+00  0.00000000000E+00  0.16680794460E+04  0.16680794460E+04  0.00000000000E+00 0. -1.
         22   -1    0    0    0    0 -0.00000000000E+00 -0.00000000000E+00 -0.11903222044E+03  0.11903222044E+03  0.00000000000E+00 0. -1.
        -24    2    1    2    0    0 -0.15349946022E+03  0.32026340235E+03  0.71019117850E+03  0.79813357094E+03  0.80715276531E+02 0.  0.
         25    2    1    2    0    0  0.16036419902E+03 -0.36950178168E+03  0.61078251119E+03  0.74226032652E+03  0.12508746285E+03 0.  0.
         24    2    1    2    0    0 -0.68647387927E+01  0.49238379327E+02  0.22807353589E+03  0.24671776899E+03  0.79878514787E+02 0.  0.
        -11    1    5    5    0    0  0.25417008545E+02  0.65518032818E+01  0.14862295039E+03  0.15092293342E+03  0.00000000000E+00 0.  1.
         12    1    5    5    0    0 -0.32281747338E+02  0.42686576045E+02  0.79450585505E+02  0.95794835574E+02  0.00000000000E+00 0. -1.
         11    1    3    3    0    0 -0.83437660998E+02  0.24569104311E+03  0.54866156955E+03  0.60692293567E+03  0.00000000000E+00 0. -1.
        -12    1    3    3    0    0 -0.70061799226E+02  0.74572359241E+02  0.16152960895E+03  0.19121063527E+03  0.00000000000E+00 0.  1.
          5    1    4    4  501    0 -0.49906914536E+01 -0.10127323961E+02 -0.26454104620E+01  0.12326406139E+02  0.41800000000E+01 0. -1.
         -5    1    4    4    0  501  0.16535489047E+03 -0.35937445772E+03  0.61342792166E+03  0.72993392039E+03  0.41800000000E+01 0. -1.
</event>
<event>
11    1  0.1004295E-008  0.1992527E+03  0.7561462E-02  0.1055053E+00
         22   -1    0    0    0    0  0.00000000000E+00  0.00000000000E+00  0.10816661098E+04  0.10816661098E+04  0.00000000000E+00 0.  1.
         22   -1    0    0    0    0 -0.00000000000E+00 -0.00000000000E+00 -0.33556227700E+03  0.33556227700E+03  0.00000000000E+00 0.  1.
         24    2    1    2    0    0  0.48699830801E+02  0.32396576134E+02 -0.24783606713E+03  0.26706991269E+03  0.80513417705E+02 0.  0.
         25    2    1    2    0    0  0.43787629305E+02  0.99201559193E+02  0.28260595919E+02  0.16794198437E+03  0.12509013952E+03 0.  0.
        -24    2    1    2    0    0 -0.92487460106E+02 -0.13159813533E+03  0.96567930400E+03  0.98221648973E+03  0.79628606863E+02 0.  0.
        -11    1    3    3    0    0  0.49421120626E+01  0.34466242250E+02 -0.19660036137E+03  0.19965983176E+03  0.00000000000E+00 0.  1.
         12    1    3    3    0    0  0.43757718738E+02 -0.20696661166E+01 -0.51235705756E+02  0.67410080932E+02  0.00000000000E+00 0. -1.
         11    1    5    5    0    0 -0.31297852706E+02 -0.10822319512E+03  0.55143070756E+03  0.56282114458E+03  0.00000000000E+00 0. -1.
        -12    1    5    5    0    0 -0.61189607400E+02 -0.23374940205E+02  0.41424859644E+03  0.41939534515E+03  0.00000000000E+00 0.  1.
          5    1    4    4  501    0  0.31089308519E+02  0.99408649810E+02  0.69037483585E+02  0.12502908182E+03  0.41800000000E+01 0.  1.
         -5    1    4    4    0  501  0.12698320787E+02 -0.20709061615E+00 -0.40776887666E+02  0.42912902548E+02  0.41800000000E+01 0.  1.
</event>
<event>
11    1  0.1003949E-008  0.1553464E+03  0.7561462E-02  0.1091538E+00
         22   -1    0    0    0    0  0.00000000000E+00  0.00000000000E+00  0.42560043237E+03  0.42560043237E+03  0.00000000000E+00 0.  1.
         22   -1    0    0    0    0 -0.00000000000E+00 -0.00000000000E+00 -0.73157528139E+03  0.73157528139E+03  0.00000000000E+00 0. -1.
         24    2    1    2    0    0 -0.82378082758E+02 -0.10518778080E+02 -0.49340924324E+03  0.50575802886E+03  0.73767941691E+02 0.  0.
         25    2    1    2    0    0  0.16699255287E+03 -0.20790671488E+02 -0.17506671248E+03  0.27315918094E+03  0.12509524202E+03 0.  0.
        -24    2    1    2    0    0 -0.84614470115E+02  0.31309449568E+02  0.36250110671E+03  0.37825850396E+03  0.59435286400E+02 0.  0.
        -11    1    3    3    0    0 -0.30981605349E+02  0.14447309032E+02 -0.63941561566E+02  0.72505916337E+02  0.00000000000E+00 0.  1.
         12    1    3    3    0    0 -0.51396477408E+02 -0.24966087112E+02 -0.42946768168E+03  0.43325211252E+03  0.00000000000E+00 0. -1.
         11    1    5    5    0    0 -0.19935301076E+02 -0.10217382793E+02  0.32821368757E+02  0.39737304730E+02  0.00000000000E+00 0. -1.
        -12    1    5    5    0    0 -0.64679169038E+02  0.41526832361E+02  0.32967973795E+03  0.33852119923E+03  0.00000000000E+00 0.  1.
          5    1    4    4  501    0  0.13002919647E+03 -0.57361701918E+02 -0.16867288795E+03  0.22060365434E+03  0.41800000000E+01 0.  1.
         -5    1    4    4    0  501  0.36963356406E+02  0.36571030430E+02 -0.63938245307E+01  0.52555526594E+02  0.41800000000E+01 0.  1.
</event>
<event>
11    1  0.1003949E-008  0.2022934E+03  0.7561462E-02  0.1052914E+00
         22   -1    0    0    0    0  0.00000000000E+00  0.00000000000E+00  0.71372611878E+03  0.71372611878E+03  0.00000000000E+00 0. -1.
         22   -1    0    0    0    0 -0.00000000000E+00 -0.00000000000E+00 -0.37550416335E+03  0.37550416335E+03  0.00000000000E+00 0. -1.
        -24    2    1    2    0    0  0.15989312765E+02 -0.32915217877E+02 -0.26228182684E+03  0.27696922141E+03  0.81124122353E+02 0.  0.
         25    2    1    2    0    0 -0.16812263395E+03  0.67698617407E+02  0.38481578041E+02  0.22354932050E+03  0.12508055006E+03 0.  0.
         24    2    1    2    0    0  0.15213332119E+03 -0.34783399531E+02  0.56202220423E+03  0.58871174021E+03  0.79737837346E+02 0.  0.
        -13    1    5    5    0    0  0.42665422553E+02  0.41639903877E+01  0.62062199360E+02  0.75428069622E+02  0.00000000000E+00 0.  1.
         14    1    5    5    0    0  0.10946789864E+03 -0.38947389918E+02  0.49996000487E+03  0.51328367058E+03  0.00000000000E+00 0. -1.
         11    1    3    3    0    0  0.45646216382E+02 -0.36821216160E+02 -0.16031231556E+03  0.17070271688E+03  0.00000000000E+00 0. -1.
        -12    1    3    3    0    0 -0.29656903617E+02  0.39059982829E+01 -0.10196951128E+03  0.10626650453E+03  0.00000000000E+00 0.  1.
          5    1    4    4  501    0 -0.90547606000E+02  0.89313706047E+02  0.59114134286E+02  0.14031307962E+03  0.41800000000E+01 0.  1.
         -5    1    4    4    0  501 -0.77575027955E+02 -0.21615088640E+02 -0.20632556245E+02  0.83236240883E+02  0.41800000000E+01 0.  1.
</event>
<event>
11    1  0.1003949E-008  0.1391755E+03  0.7561462E-02  0.1108483E+00
         22   -1    0    0    0    0  0.00000000000E+00  0.00000000000E+00  0.23051612027E+04  0.23051612027E+04  0.00000000000E+00 0.  1.
         22   -1    0    0    0    0 -0.00000000000E+00 -0.00000000000E+00 -0.49535191552E+02  0.49535191552E+02  0.00000000000E+00 0.  1.
        -24    2    1    2    0    0  0.21274460435E+02  0.52575022914E+01  0.28984093535E+02  0.90492842277E+02  0.82877215374E+02 0.  0.
         25    2    1    2    0    0 -0.80338064254E+02  0.24907484797E+01  0.29912161707E+03  0.33403869707E+03  0.12509077084E+03 0.  0.
         24    2    1    2    0    0  0.59063603819E+02 -0.77482507711E+01  0.19275203005E+04  0.19301648549E+04  0.81567845385E+02 0.  0.
        -13    1    5    5    0    0  0.42709704411E+02  0.34250164102E+02  0.90813229542E+03  0.90978099484E+03  0.00000000000E+00 0.  1.
         14    1    5    5    0    0  0.16353899407E+02 -0.41998414873E+02  0.10193880051E+04  0.10203838601E+04  0.00000000000E+00 0. -1.
         13    1    3    3    0    0 -0.27260707547E+02  0.12782287004E+02 -0.53320973834E+01  0.30577185932E+02  0.00000000000E+00 0. -1.
        -14    1    3    3    0    0  0.48535167982E+02 -0.75247847122E+01  0.34316190918E+02  0.59915656345E+02  0.00000000000E+00 0.  1.
          5    1    4    4  501    0 -0.62822656788E+02  0.54854686318E+02  0.23457118516E+03  0.24899163866E+03  0.41800000000E+01 0. -1.
         -5    1    4    4    0  501 -0.17515407466E+02 -0.52363937838E+02  0.64550431908E+02  0.85047058409E+02  0.41800000000E+01 0. -1.
</event>
<event>
11    1  0.1003949E-008  0.1686600E+03  0.7561462E-02  0.1079204E+00
         22   -1    0    0    0    0  0.00000000000E+00  0.00000000000E+00  0.50580183137E+03  0.50580183137E+03  0.00000000000E+00 0.  1.
         22   -1    0    0    0    0 -0.00000000000E+00 -0.00000000000E+00 -0.14683492939E+03  0.14683492939E+03  0.00000000000E+00 0.  1.
         24    2    1    2    0    0  0.10307895605E+03 -0.26822419722E+01 -0.40339319166E+02  0.13681787111E+03  0.80370414840E+02 0.  0.
         25    2    1    2    0    0 -0.17614480335E+03 -0.54893021070E+01  0.26433618761E+03  0.34143669800E+03  0.12509306327E+03 0.  0.
        -24    2    1    2    0    0  0.73065847297E+02  0.81715440792E+01  0.13497003353E+03  0.17438219164E+03  0.82382319942E+02 0.  0.
        -11    1    3    3    0    0  0.74558774607E+02  0.27763538978E+02 -0.50038627243E+02  0.93987707621E+02  0.00000000000E+00 0.  1.
         12    1    3    3    0    0  0.28520181446E+02 -0.30445780950E+02  0.96993080774E+01  0.42830163490E+02  0.00000000000E+00 0. -1.
         13    1    5    5    0    0 -0.12337573698E+02  0.16211454214E+02  0.48388547098E+02  0.52502175791E+02  0.00000000000E+00 0. -1.
        -14    1    5    5    0    0  0.85403420995E+02 -0.80399101350E+01  0.86581486427E+02  0.12188001585E+03  0.00000000000E+00 0.  1.
          5    1    4    4  501    0 -0.13909649565E+03  0.30140802942E+02  0.25034082799E+03  0.28800053066E+03  0.41800000000E+01 0.  1.
         -5    1    4    4    0  501 -0.37048307701E+02 -0.35630105049E+02  0.13995359625E+02  0.53436167344E+02  0.41800000000E+01 0.  1.
</event>
<event>
11    1  0.1003949E-008  0.1312733E+03  0.7561462E-02  0.1117714E+00
         22   -1    0    0    0    0  0.00000000000E+00  0.00000000000E+00  0.77608128859E+03  0.77608128859E+03  0.00000000000E+00 0. -1.
         22   -1    0    0    0    0 -0.00000000000E+00 -0.00000000000E+00 -0.15722989987E+03  0.15722989987E+03  0.00000000000E+00 0.  1.
        -24    2    1    2    0    0  0.20100525234E+02 -0.35099149359E+02 -0.12369840653E+03  0.15339316588E+03  0.81192278939E+02 0.  0.
         25    2    1    2    0    0 -0.25587662203E+02  0.17808202647E+02  0.25602586836E+03  0.28665041112E+03  0.12508937758E+03 0.  0.
         24    2    1    2    0    0  0.54871369697E+01  0.17290946712E+02  0.48652392690E+03  0.49326761146E+03  0.79235847707E+02 0.  0.
        -13    1    5    5    0    0  0.37103046664E+02  0.14226198857E+02  0.14749877660E+03  0.15275768362E+03  0.00000000000E+00 0.  1.
         14    1    5    5    0    0 -0.31615909695E+02  0.30647478541E+01  0.33902515030E+03  0.34050992785E+03  0.00000000000E+00 0. -1.
         13    1    3    3    0    0 -0.29620089122E+02 -0.19558262371E+02 -0.70532432647E+02  0.78960112472E+02  0.00000000000E+00 0. -1.
        -14    1    3    3    0    0  0.49720614355E+02 -0.15540886988E+02 -0.53165973888E+02  0.74433053408E+02  0.00000000000E+00 0.  1.
          5    1    4    4  501    0  0.48473789726E+01 -0.41479354121E+02  0.18277531034E+03  0.18753218490E+03  0.41800000000E+01 0.  1.
         -5    1    4    4    0  501 -0.30435041176E+02  0.59287556768E+02  0.73250558017E+02  0.99118226219E+02  0.41800000000E+01 0.  1.
</event>
<event>
11    1  0.1003949E-008  0.1702641E+03  0.7561462E-02  0.1077802E+00
         22   -1    0    0    0    0  0.00000000000E+00  0.00000000000E+00  0.15512451703E+03  0.15512451703E+03  0.00000000000E+00 0.  1.
         22   -1    0    0    0    0 -0.00000000000E+00 -0.00000000000E+00 -0.13431089456E+04  0.13431089456E+04  0.00000000000E+00 0. -1.
        -24    2    1    2    0    0  0.46452455586E+02 -0.11615180549E+02 -0.11531679252E+04  0.11569608855E+04  0.80433101208E+02 0.  0.
         25    2    1    2    0    0 -0.14738147046E+03  0.40786398017E+01 -0.57007203361E+02  0.20158256941E+03  0.12509107849E+03 0.  0.
         24    2    1    2    0    0  0.10092901488E+03  0.75365407469E+01  0.22190699986E+02  0.13969000775E+03  0.93687809283E+02 0.  0.
        -11    1    5    5    0    0  0.94931558541E+02  0.18965091924E+02  0.50054433586E+02  0.10898220883E+03  0.00000000000E+00 0.  1.
         12    1    5    5    0    0  0.59974563340E+01 -0.11428551177E+02 -0.27863733600E+02  0.30707798922E+02  0.00000000000E+00 0. -1.
         11    1    3    3    0    0  0.17614323712E+02 -0.17153952194E+02 -0.10317312606E+04  0.10320241841E+04  0.00000000000E+00 0. -1.
        -12    1    3    3    0    0  0.28838131874E+02  0.55387716456E+01 -0.12143666459E+03  0.12493670136E+03  0.00000000000E+00 0.  1.
          5    1    4    4  501    0 -0.54723856692E+02  0.62684191633E+02 -0.18852182251E+02  0.85421809554E+02  0.41800000000E+01 0.  1.
         -5    1    4    4    0  501 -0.92657613770E+02 -0.58605551831E+02 -0.38155021110E+02  0.11616075986E+03  0.41800000000E+01 0.  1.
</event>
<event>
11    1  0.1003949E-008  0.1134507E+04  0.7561462E-02  0.8560648E-01
         22   -1    0    0    0    0  0.00000000000E+00  0.00000000000E+00  0.94440277613E+03  0.94440277613E+03  0.00000000000E+00 0.  1.
         22   -1    0    0    0    0 -0.00000000000E+00 -0.00000000000E+00 -0.18602930941E+04  0.18602930941E+04  0.00000000000E+00 0.  1.
        -24    2    1    2    0    0 -0.28361499564E+03 -0.10815396524E+04 -0.97879214954E+03  0.14881725574E+04  0.80361701375E+02 0.  0.
         25    2    1    2    0    0  0.21550146068E+03  0.11297049461E+04 -0.46636932996E+02  0.11577987199E+04  0.12509487393E+03 0.  0.
         24    2    1    2    0    0  0.68113534961E+02 -0.48165293677E+02  0.10953876460E+03  0.15872459289E+03  0.78964588764E+02 0.  0.
        -13    1    5    5    0    0  0.40353622956E+02 -0.51208117302E+02  0.11312628855E+03  0.13056892174E+03  0.00000000000E+00 0.  1.
         14    1    5    5    0    0  0.27759912006E+02  0.30428236250E+01 -0.35875239450E+01  0.28155671156E+02  0.00000000000E+00 0. -1.
         11    1    3    3    0    0 -0.12120727795E+03 -0.58474741149E+03 -0.55551089798E+03  0.81560596935E+03  0.00000000000E+00 0. -1.
        -12    1    3    3    0    0 -0.16240771770E+03 -0.49679224094E+03 -0.42328125156E+03  0.67256658804E+03  0.00000000000E+00 0.  1.
          5    1    4    4  501    0  0.17266357684E+03  0.69823616409E+03  0.17369419853E+02  0.71948983367E+03  0.41800000000E+01 0. -1.
         -5    1    4    4    0  501  0.42837883840E+02  0.43146878201E+03 -0.64006352849E+02  0.43830888623E+03  0.41800000000E+01 0. -1.
</event>
<event>
11    1  0.1003949E-008  0.1530138E+03  0.7561462E-02  0.1093838E+00
         22   -1    0    0    0    0  0.00000000000E+00  0.00000000000E+00  0.25894859017E+03  0.25894859017E+03  0.00000000000E+00 0.  1.
         22   -1    0    0    0    0 -0.00000000000E+00 -0.00000000000E+00 -0.21763310602E+04  0.21763310602E+04  0.00000000000E+00 0. -1.
        -24    2    1    2    0    0  0.22453463261E+01 -0.88110371900E+02 -0.20858285768E+04  0.20892404953E+04  0.80476804484E+02 0.  0.
         25    2    1    2    0    0  0.12915494139E+02  0.87886742750E+02 -0.55950972162E+01  0.15352278053E+03  0.12508816686E+03 0.  0.
         24    2    1    2    0    0 -0.15160840465E+02  0.22362914986E+00  0.17404120403E+03  0.19251637451E+03  0.80884563797E+02 0.  0.
        -13    1    5    5    0    0 -0.11480660956E+02 -0.19280505636E+02  0.17096469385E+03  0.17243105874E+03  0.00000000000E+00 0.  1.
         14    1    5    5    0    0 -0.36801795089E+01  0.19504134786E+02  0.30765101837E+01  0.20085315777E+02  0.00000000000E+00 0. -1.
         13    1    3    3    0    0  0.26041571678E+02 -0.39397943735E+02 -0.15404893599E+04  0.15412131032E+04  0.00000000000E+00 0. -1.
        -14    1    3    3    0    0 -0.23796225352E+02 -0.48712428166E+02 -0.54533921689E+03  0.54802739208E+03  0.00000000000E+00 0.  1.
          5    1    4    4  501    0  0.15110331779E+02  0.11996853217E+03 -0.39131824512E+01  0.12105187414E+03  0.41800000000E+01 0. -1.
         -5    1    4    4    0  501 -0.21948376405E+01 -0.32081789417E+02 -0.16819147651E+01  0.32470906389E+02  0.41800000000E+01 0. -1.
</event>
<event>
11    1  0.1003949E-008  0.1525341E+03  0.7561462E-02  0.1094317E+00
         22   -1    0    0    0    0  0.00000000000E+00  0.00000000000E+00  0.58885434918E+03  0.58885434918E+03  0.00000000000E+00 0.  1.
         22   -1    0    0    0    0 -0.00000000000E+00 -0.00000000000E+00 -0.60880852247E+03  0.60880852247E+03  0.00000000000E+00 0. -1.
        -24    2    1    2    0    0  0.48551259437E+02  0.19260026022E+02 -0.55015060874E+03  0.55841080044E+03  0.80179525806E+02 0.  0.
         25    2    1    2    0    0  0.48605388190E+01 -0.90397771425E+02  0.80893443120E+02  0.17431849491E+03  0.12509119318E+03 0.  0.
         24    2    1    2    0    0 -0.53411798256E+02  0.71137745402E+02  0.44930299233E+03  0.46493357631E+03  0.79853944456E+02 0.  0.
        -11    1    5    5    0    0 -0.46540816606E+02  0.76682479785E+02  0.25298163332E+03  0.26841377966E+03  0.00000000000E+00 0.  1.
         12    1    5    5    0    0 -0.68709816500E+01 -0.55447343826E+01  0.19632135901E+03  0.19651979664E+03  0.00000000000E+00 0. -1.
         11    1    3    3    0    0  0.48928363841E+02 -0.17234273820E+02 -0.42161320477E+03  0.42479253692E+03  0.00000000000E+00 0. -1.
        -12    1    3    3    0    0 -0.37710440348E+00  0.36494299842E+02 -0.12853740397E+03  0.13361826352E+03  0.00000000000E+00 0.  1.
          5    1    4    4  501    0 -0.25799858018E+01  0.21674152808E+02  0.54511118846E+02  0.58867305905E+02  0.41800000000E+01 0.  1.
         -5    1    4    4    0  501  0.74405246208E+01 -0.11207192423E+03  0.26382324273E+02  0.11545118900E+03  0.41800000000E+01 0.  1.
</event>
<event>
11    1  0.1003949E-008  0.1336631E+03  0.7561462E-02  0.1114848E+00
         22   -1    0    0    0    0  0.00000000000E+00  0.00000000000E+00  0.32046147487E+03  0.32046147487E+03  0.00000000000E+00 0. -1.
         22   -1    0    0    0    0 -0.00000000000E+00 -0.00000000000E+00 -0.12853069027E+04  0.12853069027E+04  0.00000000000E+00 0. -1.
         24    2    1    2    0    0  0.14419024276E+02 -0.16675990693E+02 -0.10135424535E+04  0.10169631314E+04  0.80372313349E+02 0.  0.
         25    2    1    2    0    0  0.31122019058E+02  0.29586883994E+02 -0.24665495818E+03  0.27987438525E+03  0.12508812635E+03 0.  0.
        -24    2    1    2    0    0 -0.45541043334E+02 -0.12910893301E+02  0.29535198379E+03  0.30893086092E+03  0.77232148144E+02 0.  0.
        -11    1    3    3    0    0 -0.19853046557E+02 -0.26920606862E+02 -0.21197286841E+03  0.21459580488E+03  0.00000000000E+00 0.  1.
         12    1    3    3    0    0  0.34272070833E+02  0.10244616169E+02 -0.80156958506E+03  0.80236732653E+03  0.00000000000E+00 0. -1.
         13    1    5    5    0    0  0.15449549280E+02 -0.17003901906E+02  0.14196898008E+03  0.14381589814E+03  0.00000000000E+00 0. -1.
        -14    1    5    5    0    0 -0.60990592614E+02  0.40930086053E+01  0.15338300371E+03  0.16511496278E+03  0.00000000000E+00 0.  1.
          5    1    4    4  501    0  0.43273169717E+02  0.12121460353E+02 -0.15523194554E+02  0.47727759088E+02  0.41800000000E+01 0. -1.
         -5    1    4    4    0  501 -0.12151150659E+02  0.17465423642E+02 -0.23113176362E+03  0.23214662617E+03  0.41800000000E+01 0. -1.
</event>
<event>
11    1  0.1003949E-008  0.1307907E+03  0.7561462E-02  0.1118301E+00
         22   -1    0    0    0    0  0.00000000000E+00  0.00000000000E+00  0.11835539355E+04  0.11835539355E+04  0.00000000000E+00 0. -1.
         22   -1    0    0    0    0 -0.00000000000E+00 -0.00000000000E+00 -0.34505382227E+03  0.34505382227E+03  0.00000000000E+00 0. -1.
        -24    2    1    2    0    0  0.17899051043E+02  0.17639899703E+02 -0.28216642085E+03  0.29444646261E+03  0.80307460415E+02 0.  0.
         25    2    1    2    0    0 -0.37575482975E+02 -0.49484317737E+02  0.33720389858E+02  0.14368430963E+03  0.12508997369E+03 0.  0.
         24    2    1    2    0    0  0.19676431933E+02  0.31844418034E+02  0.10869461442E+04  0.10904769855E+04  0.79290015579E+02 0.  0.
        -13    1    5    5    0    0  0.27619621671E+02  0.87178279543E+01  0.12869028113E+03  0.13190918271E+03  0.00000000000E+00 0.  1.
         14    1    5    5    0    0 -0.79431897388E+01  0.23126590080E+02  0.95825586306E+03  0.95856780278E+03  0.00000000000E+00 0. -1.
         11    1    3    3    0    0 -0.93958166391E+00  0.26250620922E+02 -0.26815692344E+03  0.26944037096E+03  0.00000000000E+00 0. -1.
        -12    1    3    3    0    0  0.18838632707E+02 -0.86107212185E+01 -0.14009497414E+02  0.25006091657E+02  0.00000000000E+00 0.  1.
          5    1    4    4  501    0 -0.15830520669E+01  0.87150596416E+01 -0.41072752145E+02  0.42224420507E+02  0.41800000000E+01 0. -1.
         -5    1    4    4    0  501 -0.35992430908E+02 -0.58199377379E+02  0.74793142003E+02  0.10145988912E+03  0.41800000000E+01 0. -1.
</event>
<event>
11    1  0.1003949E-008  0.1269142E+03  0.7561462E-02  0.1123120E+00
         22   -1    0    0    0    0  0.00000000000E+00  0.00000000000E+00  0.39029628053E+03  0.39029628053E+03  0.00000000000E+00 0. -1.
         22   -1    0    0    0    0 -0.00000000000E+00 -0.00000000000E+00 -0.27954800769E+03  0.27954800769E+03  0.00000000000E+00 0. -1.
        -24    2    1    2    0    0  0.13534410627E+02 -0.18165789940E+02 -0.23823605712E+03  0.25282179633E+03  0.81543029073E+02 0.  0.
         25    2    1    2    0    0 -0.61664326509E+01 -0.80049682446E+01  0.11967559233E+03  0.17341064766E+03  0.12508757297E+03 0.  0.
         24    2    1    2    0    0 -0.73679779766E+01  0.26170758185E+02  0.22930873763E+03  0.24361184423E+03  0.77621117042E+02 0.  0.
        -11    1    5    5    0    0  0.17566886789E+02  0.42564314178E+02  0.89464343473E+02  0.10061900966E+03  0.00000000000E+00 0.  1.
         12    1    5    5    0    0 -0.24934864765E+02 -0.16393555993E+02  0.13984439416E+03  0.14299283457E+03  0.00000000000E+00 0. -1.
         11    1    3    3    0    0 -0.10619894791E+02 -0.72740158181E+01 -0.22063927134E+03  0.22101443737E+03  0.00000000000E+00 0. -1.
        -12    1    3    3    0    0  0.24154305419E+02 -0.10891774122E+02 -0.17596785789E+02  0.31807358958E+02  0.00000000000E+00 0.  1.
          5    1    4    4  501    0  0.41295942691E+02  0.38490173605E+02  0.71699877906E+02  0.91352029198E+02  0.41800000000E+01 0. -1.
         -5    1    4    4    0  501 -0.47462375342E+02 -0.46495141849E+02  0.47975714423E+02  0.82058618457E+02  0.41800000000E+01 0. -1.
</event>
<event>
11    1  0.1003949E-008  0.1564662E+03  0.7561462E-02  0.1090449E+00
         22   -1    0    0    0    0  0.00000000000E+00  0.00000000000E+00  0.15426765799E+03  0.15426765799E+03  0.00000000000E+00 0.  1.
         22   -1    0    0    0    0 -0.00000000000E+00 -0.00000000000E+00 -0.12687707259E+04  0.12687707259E+04  0.00000000000E+00 0. -1.
         24    2    1    2    0    0 -0.88507587494E+02  0.31424022175E+02 -0.11164151668E+04  0.11232466526E+04  0.80493202977E+02 0.  0.
         25    2    1    2    0    0  0.28280902905E+02 -0.10973014081E+03 -0.22531924430E+02  0.17028751173E+03  0.12509850424E+03 0.  0.
        -24    2    1    2    0    0  0.60226684589E+02  0.78306118632E+02  0.24444023328E+02  0.12950421953E+03  0.80092014885E+02 0.  0.
        -11    1    3    3    0    0  0.65264278353E+00  0.34416033363E+02 -0.29521709756E+03  0.29721713273E+03  0.00000000000E+00 0.  1.
         12    1    3    3    0    0 -0.89160230278E+02 -0.29920111883E+01 -0.82119806927E+03  0.82602951991E+03  0.00000000000E+00 0. -1.
         13    1    5    5    0    0  0.62894907834E+02  0.16349716601E+02  0.90900991066E+01  0.65617928694E+02  0.00000000000E+00 0. -1.
        -14    1    5    5    0    0 -0.26682232448E+01  0.61956402032E+02  0.15353924222E+02  0.63886290838E+02  0.00000000000E+00 0.  1.
          5    1    4    4  501    0  0.73613452469E+01 -0.12468494868E+03  0.13635485615E+02  0.12571366154E+03  0.41800000000E+01 0. -1.
         -5    1    4    4    0  501  0.20919557658E+02  0.14954807871E+02 -0.36167410045E+02  0.44573850187E+02  0.41800000000E+01 0. -1.
</event>
<event>
11    1  0.1003949E-008  0.1638822E+03  0.7561462E-02  0.1083482E+00
         22   -1    0    0    0    0  0.00000000000E+00  0.00000000000E+00  0.69378727511E+03  0.69378727511E+03  0.00000000000E+00 0. -1.
         22   -1    0    0    0    0 -0.00000000000E+00 -0.00000000000E+00 -0.93947981640E+03  0.93947981640E+03  0.00000000000E+00 0. -1.
        -24    2    1    2    0    0  0.57232672930E+02  0.44676893395E+02 -0.89933381328E+03  0.90578255730E+03  0.79806827697E+02 0.  0.
         25    2    1    2    0    0 -0.53363819632E+02  0.73090302493E+02  0.19835007458E+03  0.25135716093E+03  0.12509108961E+03 0.  0.
         24    2    1    2    0    0 -0.38688532981E+01 -0.11776719589E+03  0.45529119740E+03  0.47612737329E+03  0.74317701191E+02 0.  0.
        -13    1    5    5    0    0 -0.15417114224E+02  0.14136521604E+01  0.24304620465E+02  0.28816668777E+02  0.00000000000E+00 0.  1.
         14    1    5    5    0    0  0.11548260926E+02 -0.11918084805E+03  0.43098657694E+03  0.44731070451E+03  0.00000000000E+00 0. -1.
         13    1    3    3    0    0  0.46874630310E+02  0.67700901993E+02 -0.65829331763E+03  0.66342349606E+03  0.00000000000E+00 0. -1.
        -14    1    3    3    0    0  0.10358042620E+02 -0.23024008598E+02 -0.24104049565E+03  0.24235906123E+03  0.00000000000E+00 0.  1.
          5    1    4    4  501    0  0.84562449606E+01  0.73942197823E+02  0.47795038617E+02  0.88548262627E+02  0.41800000000E+01 0. -1.
         -5    1    4    4    0  501 -0.61820064592E+02 -0.85189533034E+00  0.15055503596E+03  0.16280889830E+03  0.41800000000E+01 0. -1.
</event>
<event>
11    1  0.1003949E-008  0.2048758E+03  0.7561462E-02  0.1051128E+00
         22   -1    0    0    0    0  0.00000000000E+00  0.00000000000E+00  0.11190875439E+04  0.11190875439E+04  0.00000000000E+00 0. -1.
         22   -1    0    0    0    0 -0.00000000000E+00 -0.00000000000E+00 -0.12028699802E+03  0.12028699802E+03  0.00000000000E+00 0.  1.
         24    2    1    2    0    0 -0.79056583308E+02  0.12499133437E+03  0.24345694799E+02  0.17073033733E+03  0.81751808527E+02 0.  0.
         25    2    1    2    0    0  0.10811005157E+03 -0.18610726843E+03  0.31594781394E+03  0.40223679122E+03  0.12509083287E+03 0.  0.
        -24    2    1    2    0    0 -0.29053468258E+02  0.61115934062E+02  0.65850703719E+03  0.66640741341E+03  0.76733703208E+02 0.  0.
        -13    1    3    3    0    0 -0.76591402084E+02  0.96814138565E+02 -0.12724931238E+02  0.12410134638E+03  0.00000000000E+00 0.  1.
         14    1    3    3    0    0 -0.24651812245E+01  0.28177195806E+02  0.37070626036E+02  0.46628990946E+02  0.00000000000E+00 0. -1.
         13    1    5    5    0    0 -0.47435484779E+02  0.26598745206E+02  0.50799972002E+03  0.51090247015E+03  0.00000000000E+00 0. -1.
        -14    1    5    5    0    0  0.18382016522E+02  0.34517188856E+02  0.15050731717E+03  0.15550494326E+03  0.00000000000E+00 0.  1.
          5    1    4    4  501    0  0.11620601081E+03 -0.96119143979E+02  0.14721209619E+03  0.21078804628E+03  0.41800000000E+01 0. -1.
         -5    1    4    4    0  501 -0.80959592424E+01 -0.89988124453E+02  0.16873571774E+03  0.19144874495E+03  0.41800000000E+01 0. -1.
</event>
<event>
11    1  0.1003949E-008  0.1562528E+03  0.7561462E-02  0.1090656E+00
         22   -1    0    0    0    0  0.00000000000E+00  0.00000000000E+00  0.32085264567E+03  0.32085264567E+03  0.00000000000E+00 0.  1.
         22   -1    0    0    0    0 -0.00000000000E+00 -0.00000000000E+00 -0.32064183209E+03  0.32064183209E+03  0.00000000000E+00 0. -1.
         24    2    1    2    0    0  0.19262073028E+02  0.91940947812E+02 -0.16374941061E+03  0.20539641731E+03  0.80929929121E+02 0.  0.
         25    2    1    2    0    0 -0.81646131975E+02 -0.71359620814E+02 -0.69802393181E+02  0.17965247075E+03  0.12507737526E+03 0.  0.
        -24    2    1    2    0    0  0.62384058947E+02 -0.20581326997E+02  0.23376261738E+03  0.25644558970E+03  0.82486467760E+02 0.  0.
        -11    1    3    3    0    0  0.30912559846E+01  0.51704023886E+02 -0.20463461212E+02  0.55692146613E+02  0.00000000000E+00 0.  1.
         12    1    3    3    0    0  0.16170817043E+02  0.40236923926E+02 -0.14328594939E+03  0.14970427070E+03  0.00000000000E+00 0. -1.
         11    1    5    5    0    0  0.48262589721E+02 -0.49669670987E+02  0.12411772220E+03  0.14213220165E+03  0.00000000000E+00 0. -1.
        -12    1    5    5    0    0  0.14121469226E+02  0.29088343990E+02  0.10964489517E+03  0.11431338805E+03  0.00000000000E+00 0.  1.
          5    1    4    4  501    0  0.27531921429E+02 -0.21314741270E+02 -0.44820277763E+02  0.56909178449E+02  0.41800000000E+01 0. -1.
         -5    1    4    4    0  501 -0.10917805340E+03 -0.50044879545E+02 -0.24982115418E+02  0.12274329230E+03  0.41800000000E+01 0. -1.
</event>
<event>
11    1  0.1003949E-008  0.1436222E+03  0.7561462E-02  0.1103580E+00
         22   -1    0    0    0    0  0.00000000000E+00  0.00000000000E+00  0.15094662493E+04  0.15094662493E+04  0.00000000000E+00 0. -1.
         22   -1    0    0    0    0 -0.00000000000E+00 -0.00000000000E+00 -0.65078325645E+03  0.65078325645E+03  0.00000000000E+00 0. -1.
         24    2    1    2    0    0  0.10391154162E+02  0.72621204217E+02 -0.59490879084E+03  0.60498147957E+03  0.81879825458E+02 0.  0.
         25    2    1    2    0    0 -0.75741374950E+01 -0.23904773949E+02  0.33244160338E+02  0.13184038614E+03  0.12509159622E+03 0.  0.
        -24    2    1    2    0    0 -0.28170166675E+01 -0.48716430268E+02  0.14203476234E+04  0.14234276401E+04  0.79860184715E+02 0.  0.
        -13    1    3    3    0    0  0.16430739117E+02 -0.47280390077E+01 -0.28138998003E+02  0.32926080080E+02  0.00000000000E+00 0.  1.
         14    1    3    3    0    0 -0.60395849542E+01  0.77349243224E+02 -0.56676979283E+03  0.57205539949E+03  0.00000000000E+00 0. -1.
         13    1    5    5    0    0  0.12925497698E+02 -0.62562851207E+02  0.12723055102E+04  0.12739083524E+04  0.00000000000E+00 0. -1.
        -14    1    5    5    0    0 -0.15742514365E+02  0.13846420939E+02  0.14804211315E+03  0.14951928771E+03  0.00000000000E+00 0.  1.
          5    1    4    4  501    0  0.48761456098E+02 -0.45525579013E+02  0.21588712975E+02  0.70241034113E+02  0.41800000000E+01 0. -1.
         -5    1    4    4    0  501 -0.56335593593E+02  0.21620805064E+02  0.11655447363E+02  0.61599352029E+02  0.41800000000E+01 0. -1.
</event>
<event>
11    1  0.1003949E-008  0.2951062E+03  0.7561462E-02  0.1002284E+00
         22   -1    0    0    0    0  0.00000000000E+00  0.00000000000E+00  0.76384328285E+03  0.76384328285E+03  0.00000000000E+00 0. -1.
         22   -1    0    0    0    0 -0.00000000000E+00 -0.00000000000E+00 -0.20873398668E+03  0.20873398668E+03  0.00000000000E+00 0.  1.
         24    2    1    2    0    0 -0.23656193109E+03 -0.16107045308E+03 -0.39350278274E+01  0.29733902540E+03  0.80559130365E+02 0.  0.
         25    2    1    2    0    0  0.20760434111E+03  0.84439995517E+02  0.31924367978E+03  0.40962558282E+03  0.12508763219E+03 0.  0.
        -24    2    1    2    0    0  0.28957589987E+02  0.76630457567E+02  0.23980064422E+03  0.26561266132E+03  0.79592511213E+02 0.  0.
        -11    1    3    3    0    0 -0.12847552745E+03 -0.13350556407E+03 -0.10672003331E+02  0.18558983928E+03  0.00000000000E+00 0.  1.
         12    1    3    3    0    0 -0.10808640365E+03 -0.27564889015E+02  0.67369755035E+01  0.11174918612E+03  0.00000000000E+00 0. -1.
         13    1    5    5    0    0 -0.22725047137E+02  0.17758456124E+01  0.39070555508E+02  0.45233723070E+02  0.00000000000E+00 0. -1.
        -14    1    5    5    0    0  0.51682637124E+02  0.74854611954E+02  0.20073008871E+03  0.22037893825E+03  0.00000000000E+00 0.  1.
          5    1    4    4  501    0  0.39186725302E+01  0.48484368955E+02  0.47711580468E+02  0.68263880187E+02  0.41800000000E+01 0.  1.
         -5    1    4    4    0  501  0.20368566858E+03  0.35955626563E+02  0.27153209931E+03  0.34136170263E+03  0.41800000000E+01 0.  1.
</event>
<event>
11    1  0.1003949E-008  0.1772770E+03  0.7561462E-02  0.1071867E+00
         22   -1    0    0    0    0  0.00000000000E+00  0.00000000000E+00  0.11077683061E+03  0.11077683061E+03  0.00000000000E+00 0. -1.
         22   -1    0    0    0    0 -0.00000000000E+00 -0.00000000000E+00 -0.11248075356E+04  0.11248075356E+04  0.00000000000E+00 0. -1.
        -24    2    1    2    0    0 -0.88101634656E+02  0.72665182334E+02 -0.68090309937E+03  0.69426787620E+03  0.73052901668E+02 0.  0.
         25    2    1    2    0    0  0.18157648655E+03 -0.65266033420E+02 -0.35024874726E+03  0.41898666910E+03  0.12508384523E+03 0.  0.
         24    2    1    2    0    0 -0.93474851897E+02 -0.73991489142E+01  0.17121141659E+02  0.12232982088E+03  0.76675656134E+02 0.  0.
        -13    1    5    5    0    0 -0.22140613471E+02 -0.64154394248E+01 -0.29250898087E+02  0.37242175913E+02  0.00000000000E+00 0.  1.
         14    1    5    5    0    0 -0.71334238426E+02 -0.98370948941E+00  0.46372039746E+02  0.85087644969E+02  0.00000000000E+00 0. -1.
         13    1    3    3    0    0 -0.90703027675E+02  0.42234970180E+02 -0.42863230490E+03  0.44015506897E+03  0.00000000000E+00 0. -1.
        -14    1    3    3    0    0  0.26013930184E+01  0.30430212154E+02 -0.25227079446E+03  0.25411280723E+03  0.00000000000E+00 0.  1.
          5    1    4    4  501    0  0.62529175852E+02  0.35411681170E+02 -0.86063491094E+02  0.11219751287E+03  0.41800000000E+01 0.  1.
         -5    1    4    4    0  501  0.11904731070E+03 -0.10067771459E+03 -0.26418525617E+03  0.30678915622E+03  0.41800000000E+01 0.  1.
</event>
<event>
11    1  0.1003949E-008  0.5202923E+03  0.7561462E-02  0.9349287E-01
         22   -1    0    0    0    0  0.00000000000E+00  0.00000000000E+00  0.13243303558E+04  0.13243303558E+04  0.00000000000E+00 0. -1.
         22   -1    0    0    0    0 -0.00000000000E+00 -0.00000000000E+00 -0.47849241911E+03  0.47849241911E+03  0.00000000000E+00 0. -1.
        -24    2    1    2    0    0  0.37311363676E+03  0.35041290318E+03  0.27676815946E+01  0.51794611503E+03  0.79104547025E+02 0.  0.
         25    2    1    2    0    0 -0.26144131093E+03  0.17685168397E+03  0.81947069012E+02  0.34928100361E+03  0.12511522760E+03 0.  0.
         24    2    1    2    0    0 -0.11167232583E+03 -0.52726458715E+03  0.76112318611E+03  0.93559565630E+03  0.74512243493E+02 0.  0.
        -13    1    5    5    0    0 -0.91942697156E+01 -0.21621558197E+03  0.31469026194E+03  0.38192103038E+03  0.00000000000E+00 0.  1.
         14    1    5    5    0    0 -0.10247805612E+03 -0.31104900518E+03  0.44643292417E+03  0.55367462592E+03  0.00000000000E+00 0. -1.
         13    1    3    3    0    0  0.19920218079E+03  0.18786567657E+03 -0.37975995604E+02  0.27643660666E+03  0.00000000000E+00 0. -1.
        -14    1    3    3    0    0  0.17391145598E+03  0.16254722662E+03  0.40743677198E+02  0.24150950837E+03  0.00000000000E+00 0.  1.
          5    1    4    4  501    0 -0.20235010481E+03  0.17384839221E+03  0.10348920853E+03  0.28617532575E+03  0.41800000000E+01 0.  1.
         -5    1    4    4    0  501 -0.59091206124E+02  0.30032917605E+01 -0.21542139513E+02  0.63105677854E+02  0.41800000000E+01 0.  1.
</event>
<event>
11    1  0.1003949E-008  0.1732512E+03  0.7561462E-02  0.1075236E+00
         22   -1    0    0    0    0  0.00000000000E+00  0.00000000000E+00  0.25664623555E+03  0.25664623555E+03  0.00000000000E+00 0.  1.
         22   -1    0    0    0    0 -0.00000000000E+00 -0.00000000000E+00 -0.11561864549E+04  0.11561864549E+04  0.00000000000E+00 0.  1.
         24    2    1    2    0    0 -0.68001949816E+02  0.26741552103E+02 -0.97597287159E+03  0.98201717900E+03  0.80593535572E+02 0.  0.
         25    2    1    2    0    0 -0.41313880533E+02  0.44686051025E+02 -0.11851486245E+03  0.18274304933E+03  0.12508225124E+03 0.  0.
        -24    2    1    2    0    0  0.10931583035E+03 -0.71427603128E+02  0.19494751471E+03  0.24807246210E+03  0.80520554557E+02 0.  0.
        -13    1    3    3    0    0  0.47277144012E+01  0.11672400417E+01 -0.48531410256E+03  0.48533853327E+03  0.00000000000E+00 0.  1.
         14    1    3    3    0    0 -0.72729664217E+02  0.25574312061E+02 -0.49065876904E+03  0.49667864573E+03  0.00000000000E+00 0. -1.
         11    1    5    5    0    0  0.54463093398E+02 -0.63630756864E+02  0.62504502580E+02  0.10450796431E+03  0.00000000000E+00 0. -1.
        -12    1    5    5    0    0  0.54852736950E+02 -0.77968462640E+01  0.13244301213E+03  0.14356449779E+03  0.00000000000E+00 0.  1.
          5    1    4    4  501    0  0.20467721370E+02 -0.50404759905E+01  0.15822543735E+02  0.26686313093E+02  0.41800000000E+01 0.  1.
         -5    1    4    4    0  501 -0.61781601902E+02  0.49726527015E+02 -0.13433740619E+03  0.15605673623E+03  0.41800000000E+01 0.  1.
</event>
<event>
11    1  0.1003949E-008  0.1684044E+03  0.7561462E-02  0.1079429E+00
         22   -1    0    0    0    0  0.00000000000E+00  0.00000000000E+00  0.11208322664E+04  0.11208322664E+04  0.00000000000E+00 0.  1.
         22   -1    0    0    0    0 -0.00000000000E+00 -0.00000000000E+00 -0.16774001707E+03  0.16774001707E+03  0.00000000000E+00 0.  1.
         24    2    1    2    0    0 -0.95624961128E+02  0.40588273994E+02 -0.68509186203E+02  0.14868124514E+03  0.81369913884E+02 0.  0.
         25    2    1    2    0    0  0.11144345619E+03 -0.13204089435E+03  0.15186969449E+03  0.26184761398E+03  0.12508128212E+03 0.  0.
        -24    2    1    2    0    0 -0.15818495061E+02  0.91452620359E+02  0.86973174105E+03  0.87804342435E+03  0.76896990209E+02 0.  0.
        -13    1    3    3    0    0 -0.70151479889E+02  0.19773686115E+02 -0.84928284657E+02  0.11191533554E+03  0.00000000000E+00 0.  1.
         14    1    3    3    0    0 -0.25473481239E+02  0.20814587879E+02  0.16419098454E+02  0.36765909604E+02  0.00000000000E+00 0. -1.
         11    1    5    5    0    0  0.11928743021E+02  0.75459347244E+01  0.25066064228E+02  0.28767057840E+02  0.00000000000E+00 0. -1.
        -12    1    5    5    0    0 -0.27747238082E+02  0.83906685634E+02  0.84466567682E+03  0.84927636651E+03  0.00000000000E+00 0.  1.
          5    1    4    4  501    0  0.10465412370E+03 -0.32125568841E+02  0.10286264609E+03  0.15027552742E+03  0.41800000000E+01 0.  1.
         -5    1    4    4    0  501  0.67893324877E+01 -0.99915325512E+02  0.49007048401E+02  0.11157208657E+03  0.41800000000E+01 0.  1.
</event>
<event>
11    1  0.1003949E-008  0.3825880E+03  0.7561462E-02  0.9702577E-01
         22   -1    0    0    0    0  0.00000000000E+00  0.00000000000E+00  0.40993226711E+03  0.40993226711E+03  0.00000000000E+00 0.  1.
         22   -1    0    0    0    0 -0.00000000000E+00 -0.00000000000E+00 -0.53424454888E+03  0.53424454888E+03  0.00000000000E+00 0. -1.
        -24    2    1    2    0    0  0.99813511001E+02  0.20432110471E+02 -0.10849514754E+03  0.16940551380E+03  0.80912440003E+02 0.  0.
         25    2    1    2    0    0  0.23357194135E+03  0.19816934460E+03 -0.12462690688E+03  0.35356341053E+03  0.12509307904E+03 0.  0.
         24    2    1    2    0    0 -0.33338545235E+03 -0.21860145507E+03  0.10880977265E+03  0.42120789166E+03  0.81511136536E+02 0.  0.
        -11    1    5    5    0    0 -0.89858906298E+02 -0.39108049574E+02  0.59609405013E+02  0.11470546521E+03  0.00000000000E+00 0.  1.
         12    1    5    5    0    0 -0.24352654605E+03 -0.17949340550E+03  0.49200367639E+02  0.30650242646E+03  0.00000000000E+00 0. -1.
         13    1    3    3    0    0  0.14850971212E+02  0.38808668360E+02 -0.48066996790E+02  0.63538179595E+02  0.00000000000E+00 0. -1.
        -14    1    3    3    0    0  0.84962539789E+02 -0.18376557889E+02 -0.60428150753E+02  0.10586733420E+03  0.00000000000E+00 0.  1.
          5    1    4    4  501    0  0.11629765627E+03  0.17247932084E+03 -0.10037173364E+03  0.23101129472E+03  0.41800000000E+01 0. -1.
         -5    1    4    4    0  501  0.11727428508E+03  0.25690023753E+02 -0.24255173237E+02  0.12255211581E+03  0.41800000000E+01 0. -1.
</event>
<event>
11    1  0.1003949E-008  0.1931386E+03  0.7561462E-02  0.1059485E+00
         22   -1    0    0    0    0  0.00000000000E+00  0.00000000000E+00  0.77374929713E+03  0.77374929713E+03  0.00000000000E+00 0.  1.
         22   -1    0    0    0    0 -0.00000000000E+00 -0.00000000000E+00 -0.26772567458E+03  0.26772567458E+03  0.00000000000E+00 0.  1.
         24    2    1    2    0    0  0.14082123313E+03  0.37543227057E+02 -0.17713584418E+03  0.24541039414E+03  0.87229815206E+02 0.  0.
         25    2    1    2    0    0 -0.17099288975E+03  0.44795998539E+02  0.18628205622E+03  0.28564531109E+03  0.12508792687E+03 0.  0.
        -24    2    1    2    0    0  0.30171656619E+02 -0.82339225596E+02  0.49687741051E+03  0.51041926648E+03  0.77140064717E+02 0.  0.
        -11    1    3    3    0    0  0.15206495441E+03  0.41936446509E+02 -0.16583201243E+03  0.22887261141E+03  0.00000000000E+00 0.  1.
         12    1    3    3    0    0 -0.11243721283E+02 -0.43932194518E+01 -0.11303831747E+02  0.16537782730E+02  0.00000000000E+00 0. -1.
         13    1    5    5    0    0 -0.25936712801E+02 -0.26877569122E+02  0.18358172975E+03  0.18734291631E+03  0.00000000000E+00 0. -1.
        -14    1    5    5    0    0  0.56108369420E+02 -0.55461656474E+02  0.31329568076E+03  0.32307635017E+03  0.00000000000E+00 0.  1.
          5    1    4    4  501    0 -0.14058110838E+03  0.44090713310E+02  0.65980049656E+02  0.16148646503E+03  0.41800000000E+01 0.  1.
         -5    1    4    4    0  501 -0.30411781366E+02  0.70528522860E+00  0.12030200656E+03  0.12415884606E+03  0.41800000000E+01 0.  1.
</event>
<event>
11    1  0.1003949E-008  0.1511955E+03  0.7561462E-02  0.1095663E+00
         22   -1    0    0    0    0  0.00000000000E+00  0.00000000000E+00  0.75844461704E+03  0.75844461704E+03  0.00000000000E+00 0. -1.
         22   -1    0    0    0    0 -0.00000000000E+00 -0.00000000000E+00 -0.14474271620E+03  0.14474271620E+03  0.00000000000E+00 0. -1.
         24    2    1    2    0    0  0.50028233633E+02 -0.68331144886E+02 -0.94459816120E+02  0.14895550474E+03  0.78058414086E+02 0.  0.
         25    2    1    2    0    0 -0.87127784660E+02  0.44097200987E+02  0.32793005226E+03  0.36431083727E+03  0.12509377674E+03 0.  0.
        -24    2    1    2    0    0  0.37099551028E+02  0.24233943898E+02  0.38023166470E+03  0.38992099124E+03  0.74152544447E+02 0.  0.
        -11    1    3    3    0    0  0.59584768316E+01 -0.16073416368E+02  0.13056005493E+02  0.21548026344E+02  0.00000000000E+00 0.  1.
         12    1    3    3    0    0  0.44069756801E+02 -0.52257728518E+02 -0.10751582161E+03  0.12740747840E+03  0.00000000000E+00 0. -1.
         13    1    5    5    0    0  0.13378194089E+02  0.36551560510E+02  0.85070098271E+02  0.93551666328E+02  0.00000000000E+00 0. -1.
        -14    1    5    5    0    0  0.23721356939E+02 -0.12317616612E+02  0.29516156643E+03  0.29636932491E+03  0.00000000000E+00 0.  1.
          5    1    4    4  501    0  0.19693558364E+02  0.33910861066E+02  0.16147989109E+03  0.16622578129E+03  0.41800000000E+01 0.  1.
         -5    1    4    4    0  501 -0.10682134302E+03  0.10186339921E+02  0.16645016117E+03  0.19808505597E+03  0.41800000000E+01 0.  1.
</event>
<event>
11    1  0.1003949E-008  0.1595245E+03  0.7561462E-02  0.1087525E+00
         22   -1    0    0    0    0  0.00000000000E+00  0.00000000000E+00  0.35035690828E+03  0.35035690828E+03  0.00000000000E+00 0. -1.
         22   -1    0    0    0    0 -0.00000000000E+00 -0.00000000000E+00 -0.62488782128E+03  0.62488782128E+03  0.00000000000E+00 0.  1.
         24    2    1    2    0    0 -0.31085527719E+02 -0.87941045194E+02 -0.48331521283E+03  0.49841525168E+03  0.78257464073E+02 0.  0.
         25    2    1    2    0    0  0.69509917418E+02  0.14703870508E+03 -0.43281950732E+02  0.20970385676E+03  0.12510144232E+03 0.  0.
        -24    2    1    2    0    0 -0.38424389700E+02 -0.59097659889E+02  0.25206625056E+03  0.26712562112E+03  0.53382915426E+02 0.  0.
        -13    1    3    3    0    0 -0.50875870610E+02 -0.62488903903E+02 -0.24456728179E+03  0.25750023814E+03  0.00000000000E+00 0.  1.
         14    1    3    3    0    0  0.19790342891E+02 -0.25452141291E+02 -0.23874793104E+03  0.24091501353E+03  0.00000000000E+00 0. -1.
         13    1    5    5    0    0  0.71495486047E+01 -0.21515478354E+01  0.78536668775E+02  0.78890769711E+02  0.00000000000E+00 0. -1.
        -14    1    5    5    0    0 -0.45573938304E+02 -0.56946112054E+02  0.17352958179E+03  0.18823485141E+03  0.00000000000E+00 0.  1.
          5    1    4    4  501    0 -0.34919910979E+02  0.25460298442E+02 -0.19606321848E+02  0.47639345461E+02  0.41800000000E+01 0. -1.
         -5    1    4    4    0  501  0.10442982840E+03  0.12157840664E+03 -0.23675628884E+02  0.16206451130E+03  0.41800000000E+01 0. -1.
</event>
<event>
11    1  0.1003949E-008  0.1324730E+03  0.7561462E-02  0.1116267E+00
         22   -1    0    0    0    0  0.00000000000E+00  0.00000000000E+00  0.84619560163E+03  0.84619560163E+03  0.00000000000E+00 0.  1.
         22   -1    0    0    0    0 -0.00000000000E+00 -0.00000000000E+00 -0.10578873026E+03  0.10578873026E+03  0.00000000000E+00 0. -1.
        -24    2    1    2    0    0  0.43401096383E+02 -0.16218445743E+02 -0.55573052511E+02  0.10922562542E+03  0.81824079176E+02 0.  0.
         25    2    1    2    0    0 -0.58605533671E+01  0.40195229575E+02  0.19519324588E+03  0.23537915005E+03  0.12511170400E+03 0.  0.
         24    2    1    2    0    0 -0.37540543016E+02 -0.23976783832E+02  0.60078667801E+03  0.60737955642E+03  0.77337665776E+02 0.  0.
        -13    1    5    5    0    0 -0.17820675879E+02 -0.45632600395E+02  0.50082734442E+03  0.50321758676E+03  0.00000000000E+00 0.  1.
         14    1    5    5    0    0 -0.19719867137E+02  0.21655816563E+02  0.99959333587E+02  0.10416196965E+03  0.00000000000E+00 0. -1.
         13    1    3    3    0    0  0.33904989244E+02  0.61232415539E+01 -0.72065048607E+02  0.79877491281E+02  0.00000000000E+00 0. -1.
        -14    1    3    3    0    0  0.94961071392E+01 -0.22341687297E+02  0.16491996096E+02  0.29348134136E+02  0.00000000000E+00 0.  1.
          5    1    4    4  501    0  0.55961419289E+02 -0.21235498894E+00  0.67237049491E+02  0.87578643331E+02  0.41800000000E+01 0.  1.
         -5    1    4    4    0  501 -0.61821972656E+02  0.40407584564E+02  0.12795619639E+03  0.14780050672E+03  0.41800000000E+01 0.  1.
</event>
<event>
11    1  0.1003949E-008  0.1468816E+03  0.7561462E-02  0.1100108E+00
         22   -1    0    0    0    0  0.00000000000E+00  0.00000000000E+00  0.33027066949E+03  0.33027066949E+03  0.00000000000E+00 0. -1.
         22   -1    0    0    0    0 -0.00000000000E+00 -0.00000000000E+00 -0.60022609407E+03  0.60022609407E+03  0.00000000000E+00 0.  1.
        -24    2    1    2    0    0  0.18382463030E+02  0.32276971627E+02 -0.34527904251E+03  0.35819240251E+03  0.87775065775E+02 0.  0.
         25    2    1    2    0    0  0.55012600019E+02 -0.54249514933E+01 -0.21854091599E+03  0.25780597322E+03  0.12509185268E+03 0.  0.
         24    2    1    2    0    0 -0.73395063049E+02 -0.26852020133E+02  0.29386453392E+03  0.31449838784E+03  0.80280790905E+02 0.  0.
        -13    1    5    5    0    0 -0.66032502881E+02  0.15385427784E+02  0.20307390624E+03  0.21409347075E+03  0.00000000000E+00 0.  1.
         14    1    5    5    0    0 -0.73625601684E+01 -0.42237447917E+02  0.90790627684E+02  0.10040491708E+03  0.00000000000E+00 0. -1.
         13    1    3    3    0    0 -0.31037837536E+02  0.40081128755E+01 -0.64403801269E+02  0.71604901687E+02  0.00000000000E+00 0. -1.
        -14    1    3    3    0    0  0.49420300566E+02  0.28268858751E+02 -0.28087524124E+03  0.28658750082E+03  0.00000000000E+00 0.  1.
          5    1    4    4  501    0  0.88517150051E+02 -0.28950999979E+02 -0.17231115260E+03  0.19591337873E+03  0.41800000000E+01 0.  1.
         -5    1    4    4    0  501 -0.33504550032E+02  0.23526048486E+02 -0.46229763389E+02  0.61892594494E+02  0.41800000000E+01 0.  1.
</event>
<event>
11    1  0.1003949E-008  0.1443595E+03  0.7561462E-02  0.1102786E+00
         22   -1    0    0    0    0  0.00000000000E+00  0.00000000000E+00  0.11971655965E+04  0.11971655965E+04  0.00000000000E+00 0.  1.
         22   -1    0    0    0    0 -0.00000000000E+00 -0.00000000000E+00 -0.17181165692E+03  0.17181165692E+03  0.00000000000E+00 0. -1.
        -24    2    1    2    0    0 -0.66752215579E+02 -0.84136714632E+02 -0.63879952555E+02  0.14811660153E+03  0.79517509243E+02 0.  0.
         25    2    1    2    0    0  0.13962380736E+02  0.12489057828E+02  0.11727299613E+01  0.12649090592E+03  0.12509056457E+03 0.  0.
         24    2    1    2    0    0  0.52789834843E+02  0.71647656804E+02  0.10880611622E+04  0.10943697460E+04  0.76471529905E+02 0.  0.
        -11    1    5    5    0    0  0.60412324542E+02  0.29757983951E+02  0.83873250351E+03  0.84143175540E+03  0.00000000000E+00 0.  1.
         12    1    5    5    0    0 -0.76224896998E+01  0.41889672853E+02  0.24932865870E+03  0.25293799061E+03  0.00000000000E+00 0. -1.
         13    1    3    3    0    0 -0.35832696257E+02 -0.49158268515E+02 -0.78393610610E+02  0.99227393742E+02  0.00000000000E+00 0. -1.
        -14    1    3    3    0    0 -0.30919519322E+02 -0.34978446116E+02  0.14513658055E+02  0.48889207786E+02  0.00000000000E+00 0.  1.
          5    1    4    4  501    0  0.41729063735E+02 -0.40540606787E+02  0.22913679322E+02  0.62668689623E+02  0.41800000000E+01 0.  1.
         -5    1    4    4    0  501 -0.27766682999E+02  0.53029664615E+02 -0.21740949361E+02  0.63822216297E+02  0.41800000000E+01 0.  1.
</event>
<event>
11    1  0.1003949E-008  0.3419861E+03  0.7561462E-02  0.9838374E-01
         22   -1    0    0    0    0  0.00000000000E+00  0.00000000000E+00  0.16111014909E+04  0.16111014909E+04  0.00000000000E+00 0. -1.
         22   -1    0    0    0    0 -0.00000000000E+00 -0.00000000000E+00 -0.90016881589E+02  0.90016881589E+02  0.00000000000E+00 0. -1.
         24    2    1    2    0    0  0.30834431845E+03  0.75704675129E+02  0.61366685566E+03  0.69623157911E+03  0.85697056254E+02 0.  0.
         25    2    1    2    0    0 -0.31799318406E+03 -0.39096478071E+02  0.71322416068E+03  0.79182318962E+03  0.12508821100E+03 0.  0.
        -24    2    1    2    0    0  0.96488656074E+01 -0.36608197058E+02  0.19419359295E+03  0.21306360375E+03  0.79067610312E+02 0.  0.
        -11    1    3    3    0    0  0.69668775659E+01 -0.12060742104E+02  0.39175973301E+02  0.41578308855E+02  0.00000000000E+00 0.  1.
         12    1    3    3    0    0  0.30137744088E+03  0.87765417233E+02  0.57449088236E+03  0.65465327025E+03  0.00000000000E+00 0. -1.
         13    1    5    5    0    0 -0.32979514585E+02 -0.29606408022E+02  0.92208562325E+02  0.10230643550E+03  0.00000000000E+00 0. -1.
        -14    1    5    5    0    0  0.42628380192E+02 -0.70017890365E+01  0.10198503062E+03  0.11075716825E+03  0.00000000000E+00 0.  1.
          5    1    4    4  501    0 -0.13713408988E+03  0.18098729960E+02  0.18845673691E+03  0.23380918870E+03  0.41800000000E+01 0.  1.
         -5    1    4    4    0  501 -0.18085909418E+03 -0.57195208030E+02  0.52476742377E+03  0.55801400092E+03  0.41800000000E+01 0.  1.
</event>
<event>
11    1  0.1003949E-008  0.2414256E+03  0.7561462E-02  0.1028569E+00
         22   -1    0    0    0    0  0.00000000000E+00  0.00000000000E+00  0.13882950490E+03  0.13882950490E+03  0.00000000000E+00 0.  1.
         22   -1    0    0    0    0 -0.00000000000E+00 -0.00000000000E+00 -0.18324251556E+04  0.18324251556E+04  0.00000000000E+00 0.  1.
         24    2    1    2    0    0 -0.17993052433E+03 -0.13461534347E+03 -0.15523527670E+04  0.15709252230E+04  0.86664057433E+02 0.  0.
         25    2    1    2    0    0  0.13389380014E+03  0.33175160530E+02 -0.17808232131E+03  0.25766206277E+03  0.12509310307E+03 0.  0.
        -24    2    1    2    0    0  0.46036724189E+02  0.10144018294E+03  0.36839437620E+02  0.14266737470E+03  0.81162460223E+02 0.  0.
        -11    1    3    3    0    0 -0.17038122347E+03 -0.90106440288E+02 -0.11547136543E+04  0.11706889233E+04  0.00000000000E+00 0.  1.
         12    1    3    3    0    0 -0.95493008637E+01 -0.44508903183E+02 -0.39763911270E+03  0.40023629965E+03  0.00000000000E+00 0. -1.
         11    1    5    5    0    0  0.43405741819E+02  0.12975110650E+02  0.29058070072E+02  0.53821773991E+02  0.00000000000E+00 0. -1.
        -12    1    5    5    0    0  0.26309823697E+01  0.88465072292E+02  0.77813675472E+01  0.88845600705E+02  0.00000000000E+00 0.  1.
          5    1    4    4  501    0 -0.21684186046E+02  0.18210750668E+02 -0.39176894464E+02  0.48519447897E+02  0.41800000000E+01 0. -1.
         -5    1    4    4    0  501  0.15557798619E+03  0.14964409863E+02 -0.13890542685E+03  0.20914261488E+03  0.41800000000E+01 0. -1.
</event>
<event>
11    1  0.1003949E-008  0.2086124E+03  0.7561462E-02  0.1048595E+00
         22   -1    0    0    0    0  0.00000000000E+00  0.00000000000E+00  0.64928433285E+02  0.64928433285E+02  0.00000000000E+00 0.  1.
         22   -1    0    0    0    0 -0.00000000000E+00 -0.00000000000E+00 -0.90062550318E+03  0.90062550318E+03  0.00000000000E+00 0. -1.
        -24    2    1    2    0    0 -0.14416799780E+03 -0.98136012373E+02 -0.32474351673E+03  0.37695006817E+03  0.78853748903E+02 0.  0.
         25    2    1    2    0    0  0.14351942806E+03  0.72487531681E+02 -0.40910205903E+03  0.45701672182E+03  0.12509005094E+03 0.  0.
         24    2    1    2    0    0  0.64856974254E+00  0.25648480691E+02 -0.10185149413E+03  0.13158714647E+03  0.79266544365E+02 0.  0.
        -11    1    5    5    0    0 -0.82166356610E+01 -0.80897216117E+01  0.94744393334E+01  0.14923863375E+02  0.00000000000E+00 0.  1.
         12    1    5    5    0    0  0.88652054036E+01  0.33738202303E+02 -0.11132593346E+03  0.11666328310E+03  0.00000000000E+00 0. -1.
         11    1    3    3    0    0 -0.81621923999E+02 -0.23350834523E+02 -0.20920631643E+03  0.22577573559E+03  0.00000000000E+00 0. -1.
        -12    1    3    3    0    0 -0.62546073806E+02 -0.74785177850E+02 -0.11553720031E+03  0.15117433257E+03  0.00000000000E+00 0.  1.
          5    1    4    4  501    0 -0.21370053719E+02  0.22608028130E+02 -0.61730798505E+02  0.69252913411E+02  0.41800000000E+01 0. -1.
         -5    1    4    4    0  501  0.16488948178E+03  0.49879503551E+02 -0.34737126052E+03  0.38776380841E+03  0.41800000000E+01 0. -1.
</event>
<event>
11    1  0.1003949E-008  0.1890523E+03  0.7561462E-02  0.1062547E+00
         22   -1    0    0    0    0  0.00000000000E+00  0.00000000000E+00  0.66481560112E+03  0.66481560112E+03  0.00000000000E+00 0.  1.
         22   -1    0    0    0    0 -0.00000000000E+00 -0.00000000000E+00 -0.17394191907E+04  0.17394191907E+04  0.00000000000E+00 0.  1.
        -24    2    1    2    0    0 -0.41256311414E+02  0.25502255191E+02 -0.15248454878E+04  0.15278451641E+04  0.82490214378E+02 0.  0.
         25    2    1    2    0    0  0.12470247939E+03  0.88807516057E+02 -0.15405165231E+03  0.25064140219E+03  0.12510682490E+03 0.  0.
         24    2    1    2    0    0 -0.83446167981E+02 -0.11430977125E+03  0.60429355059E+03  0.62574822549E+03  0.79750609251E+02 0.  0.
        -11    1    5    5    0    0 -0.99316616284E+02 -0.10199950831E+03  0.53015754556E+03  0.54893962608E+03  0.00000000000E+00 0.  1.
         12    1    5    5    0    0  0.15870448303E+02 -0.12310262937E+02  0.74136005024E+02  0.76808599413E+02  0.00000000000E+00 0. -1.
         11    1    3    3    0    0 -0.36664969504E+02  0.39075374965E+02 -0.49356134118E+03  0.49646148131E+03  0.00000000000E+00 0. -1.
        -12    1    3    3    0    0 -0.45913419097E+01 -0.13573119774E+02 -0.10312841466E+04  0.10313836828E+04  0.00000000000E+00 0.  1.
          5    1    4    4  501    0  0.46139525375E+02 -0.25340217833E+02 -0.16441721177E+02  0.55306283883E+02  0.41800000000E+01 0. -1.
         -5    1    4    4    0  501  0.78562954020E+02  0.11414773389E+03 -0.13760993113E+03  0.19533511830E+03  0.41800000000E+01 0. -1.
</event>
<event>
11    1  0.1003949E-008  0.1904844E+03  0.7561462E-02  0.1061464E+00
         22   -1    0    0    0    0  0.00000000000E+00  0.00000000000E+00  0.94886087897E+03  0.94886087897E+03  0.00000000000E+00 0. -1.
         22   -1    0    0    0    0 -0.00000000000E+00 -0.00000000000E+00 -0.21446368851E+03  0.21446368851E+03  0.00000000000E+00 0. -1.
        -24    2    1    2    0    0  0.24590715868E+02 -0.15085247733E+03 -0.12926709020E+03  0.21561878576E+03  0.80126817871E+02 0.  0.
         25    2    1    2    0    0 -0.24722207842E+02  0.10414569739E+03  0.13407102081E+03  0.21231923844E+03  0.12508759550E+03 0.  0.
         24    2    1    2    0    0  0.13149197373E+00  0.46706779940E+02  0.72959325986E+03  0.73538654327E+03  0.79407194987E+02 0.  0.
        -11    1    5    5    0    0  0.71478101797E+01  0.21660595993E+02  0.46448954622E+02  0.51747251082E+02  0.00000000000E+00 0.  1.
         12    1    5    5    0    0 -0.70163182059E+01  0.25046183948E+02  0.68314430523E+03  0.68363929219E+03  0.00000000000E+00 0. -1.
         11    1    3    3    0    0 -0.17671469911E+02 -0.54014462046E+02 -0.82242674302E+02  0.99968497214E+02  0.00000000000E+00 0. -1.
        -12    1    3    3    0    0  0.42262185779E+02 -0.96838015285E+02 -0.47024415894E+02  0.11565028855E+03  0.00000000000E+00 0.  1.
          5    1    4    4  501    0 -0.72523072071E+02  0.87768306951E+02  0.92340162816E+02  0.14665282049E+03  0.41800000000E+01 0.  1.
         -5    1    4    4    0  501  0.47800864229E+02  0.16377390440E+02  0.41730857993E+02  0.65666417959E+02  0.41800000000E+01 0.  1.
</event>
<event>
11    1  0.1003949E-008  0.1322098E+03  0.7561462E-02  0.1116583E+00
         22   -1    0    0    0    0  0.00000000000E+00  0.00000000000E+00  0.49008303394E+03  0.49008303394E+03  0.00000000000E+00 0.  1.
         22   -1    0    0    0    0 -0.00000000000E+00 -0.00000000000E+00 -0.26313613040E+03  0.26313613040E+03  0.00000000000E+00 0. -1.
         24    2    1    2    0    0 -0.31348961788E+02 -0.15500752366E+02 -0.20456500098E+03  0.22204201101E+03  0.78947984752E+02 0.  0.
         25    2    1    2    0    0  0.32299216482E+02  0.56376776410E+02  0.67570342404E+02  0.15631692034E+03  0.12509055962E+03 0.  0.
        -24    2    1    2    0    0 -0.95025469331E+00 -0.40876024045E+02  0.36394156211E+03  0.37486023299E+03  0.79968627102E+02 0.  0.
        -11    1    3    3    0    0 -0.10827914185E+02 -0.14585852303E+02 -0.18172308209E+01  0.18256317834E+02  0.00000000000E+00 0.  1.
         12    1    3    3    0    0 -0.20521047603E+02 -0.91490006237E+00 -0.20274777016E+03  0.20378569317E+03  0.00000000000E+00 0. -1.
         13    1    5    5    0    0  0.25733915257E+01 -0.12879600589E+02  0.38808250808E+01  0.13695519654E+02  0.00000000000E+00 0. -1.
        -14    1    5    5    0    0 -0.35236462190E+01 -0.27996423455E+02  0.36006073703E+03  0.36116471334E+03  0.00000000000E+00 0.  1.
          5    1    4    4  501    0  0.10330527739E+02  0.93971777877E+02  0.59652121038E+02  0.11186269613E+03  0.41800000000E+01 0. -1.
         -5    1    4    4    0  501  0.21968688743E+02 -0.37595001467E+02  0.79182213661E+01  0.44454224208E+02  0.41800000000E+01 0. -1.
</event>
<event>
11    1  0.1003949E-008  0.1474031E+03  0.7561462E-02  0.1099562E+00
         22   -1    0    0    0    0  0.00000000000E+00  0.00000000000E+00  0.63142339652E+02  0.63142339652E+02  0.00000000000E+00 0.  1.
         22   -1    0    0    0    0 -0.00000000000E+00 -0.00000000000E+00 -0.14848447512E+04  0.14848447512E+04  0.00000000000E+00 0.  1.
         24    2    1    2    0    0 -0.15113910311E+02 -0.10656354739E+02 -0.10907459054E+04  0.10938762141E+04  0.80601200203E+02 0.  0.
         25    2    1    2    0    0 -0.57091722809E+02 -0.26401629355E+02 -0.30908318887E+03  0.33931803899E+03  0.12509117914E+03 0.  0.
        -24    2    1    2    0    0  0.72205633120E+02  0.37057984094E+02 -0.21873317231E+02  0.11479283770E+03  0.78179319140E+02 0.  0.
        -13    1    3    3    0    0  0.27621039136E+02 -0.24900855638E+02 -0.55122754752E+03  0.55248057301E+03  0.00000000000E+00 0.  1.
         14    1    3    3    0    0 -0.42734949447E+02  0.14244500899E+02 -0.53951835791E+03  0.54139564113E+03  0.00000000000E+00 0. -1.
         11    1    5    5    0    0  0.19293869109E+02 -0.13060169424E+02 -0.33689730626E+02  0.40961193345E+02  0.00000000000E+00 0. -1.
        -12    1    5    5    0    0  0.52911764010E+02  0.50118153517E+02  0.11816413395E+02  0.73831644355E+02  0.00000000000E+00 0.  1.
          5    1    4    4  501    0 -0.67409720227E+02  0.25584974483E+02 -0.98583078844E+02  0.12220784400E+03  0.41800000000E+01 0.  1.
         -5    1    4    4    0  501  0.10317997419E+02 -0.51986603838E+02 -0.21050011002E+03  0.21711019499E+03  0.41800000000E+01 0.  1.
</event>
<event>
11    1  0.1003949E-008  0.2530393E+03  0.7561462E-02  0.1022292E+00
         22   -1    0    0    0    0  0.00000000000E+00  0.00000000000E+00  0.41265905059E+03  0.41265905059E+03  0.00000000000E+00 0.  1.
         22   -1    0    0    0    0 -0.00000000000E+00 -0.00000000000E+00 -0.89654698636E+03  0.89654698636E+03  0.00000000000E+00 0. -1.
         24    2    1    2    0    0 -0.10927303798E+03 -0.20199674409E+03 -0.53174957756E+03  0.58485805386E+03  0.80981778690E+02 0.  0.
         25    2    1    2    0    0  0.65789857450E+02  0.19510931139E+03 -0.28811433235E+03  0.37557471927E+03  0.12510216830E+03 0.  0.
        -24    2    1    2    0    0  0.43483180535E+02  0.68874327008E+01  0.33597597414E+03  0.34877326382E+03  0.82611806881E+02 0.  0.
        -11    1    3    3    0    0 -0.26722893407E+02 -0.15657786701E+02 -0.13864602991E+03  0.14206336940E+03  0.00000000000E+00 0.  1.
         12    1    3    3    0    0 -0.82550144578E+02 -0.18633895739E+03 -0.39310354765E+03  0.44279468446E+03  0.00000000000E+00 0. -1.
         11    1    5    5    0    0 -0.12850905474E+02 -0.99759000774E+01  0.13974589901E+02  0.21446526916E+02  0.00000000000E+00 0. -1.
        -12    1    5    5    0    0  0.56334086009E+02  0.16863332778E+02  0.32200138424E+03  0.32732673691E+03  0.00000000000E+00 0.  1.
          5    1    4    4  501    0  0.54069629789E+02  0.14704568492E+02 -0.41917817200E+02  0.70102246746E+02  0.41800000000E+01 0.  1.
         -5    1    4    4    0  501  0.11720227661E+02  0.18040474290E+03 -0.24619651515E+03  0.30547247252E+03  0.41800000000E+01 0.  1.
</event>
<event>
11    1  0.1003949E-008  0.8012977E+03  0.7561462E-02  0.8895044E-01
         22   -1    0    0    0    0  0.00000000000E+00  0.00000000000E+00  0.31221078691E+04  0.31221078691E+04  0.00000000000E+00 0.  1.
         22   -1    0    0    0    0 -0.00000000000E+00 -0.00000000000E+00 -0.13264977997E+04  0.13264977997E+04  0.00000000000E+00 0. -1.
         24    2    1    2    0    0 -0.13103445702E+03 -0.77590161651E+03 -0.10944074377E+04  0.13502782689E+04  0.79563912361E+02 0.  0.
         25    2    1    2    0    0  0.20752021325E+03  0.87027163631E+03  0.27552407311E+04  0.28995583462E+04  0.12509898761E+03 0.  0.
        -24    2    1    2    0    0 -0.76485756226E+02 -0.94370019797E+02  0.13477677604E+03  0.19876905379E+03  0.81170104366E+02 0.  0.
        -13    1    3    3    0    0 -0.10482678127E+01 -0.47954906406E+02 -0.10155279671E+03  0.11231091858E+03  0.00000000000E+00 0.  1.
         14    1    3    3    0    0 -0.12998618921E+03 -0.72794671011E+03 -0.99285464103E+03  0.12379673503E+04  0.00000000000E+00 0. -1.
         13    1    5    5    0    0 -0.38072079038E+02  0.55692466903E+01  0.28247695842E+02  0.47732923976E+02  0.00000000000E+00 0. -1.
        -14    1    5    5    0    0 -0.38413677188E+02 -0.99939266488E+02  0.10652908020E+03  0.15103612981E+03  0.00000000000E+00 0.  1.
          5    1    4    4  501    0  0.24510532219E+01  0.23425634948E+03  0.66299347343E+03  0.70317840065E+03  0.41800000000E+01 0.  1.
         -5    1    4    4    0  501  0.20506916002E+03  0.63601528683E+03  0.20922472577E+04  0.21963799455E+04  0.41800000000E+01 0.  1.
</event>
<event>
11    1  0.1003949E-008  0.1369840E+03  0.7561462E-02  0.1110974E+00
         22   -1    0    0    0    0  0.00000000000E+00  0.00000000000E+00  0.44078637567E+03  0.44078637567E+03  0.00000000000E+00 0.  1.
         22   -1    0    0    0    0 -0.00000000000E+00 -0.00000000000E+00 -0.12829959503E+04  0.12829959503E+04  0.00000000000E+00 0.  1.
         24    2    1    2    0    0 -0.51775019471E+02  0.21304576179E+02 -0.12194665628E+04  0.12234807534E+04  0.81681812298E+02 0.  0.
         25    2    1    2    0    0  0.43525854028E+02 -0.24562773958E+02  0.23323142360E+02  0.13670896905E+03  0.12509014116E+03 0.  0.
        -24    2    1    2    0    0  0.82491654437E+01  0.32581977791E+01  0.35393384586E+03  0.36359260351E+03  0.82775295180E+02 0.  0.
        -13    1    3    3    0    0 -0.48541985248E+02 -0.14765687111E+01 -0.11319080643E+04  0.11329494122E+04  0.00000000000E+00 0.  1.
         14    1    3    3    0    0 -0.32330342233E+01  0.22781144890E+02 -0.87558498501E+02  0.90531341161E+02  0.00000000000E+00 0. -1.
         11    1    5    5    0    0 -0.87813057651E+01  0.40924449318E+02  0.17141893679E+03  0.17645501913E+03  0.00000000000E+00 0. -1.
        -12    1    5    5    0    0  0.17030471209E+02 -0.37666251539E+02  0.18251490907E+03  0.18713758438E+03  0.00000000000E+00 0.  1.
          5    1    4    4  501    0  0.66849899999E+01 -0.16343742380E+02 -0.50515770696E+02  0.53676088673E+02  0.41800000000E+01 0.  1.
         -5    1    4    4    0  501  0.36840864028E+02 -0.82190315780E+01  0.73838913055E+02  0.83032880376E+02  0.41800000000E+01 0.  1.
</event>
<event>
11    1  0.1003949E-008  0.1820282E+03  0.7561462E-02  0.1068014E+00
         22   -1    0    0    0    0  0.00000000000E+00  0.00000000000E+00  0.25203879080E+04  0.25203879080E+04  0.00000000000E+00 0. -1.
         22   -1    0    0    0    0 -0.00000000000E+00 -0.00000000000E+00 -0.14030277992E+03  0.14030277992E+03  0.00000000000E+00 0. -1.
         24    2    1    2    0    0 -0.23822503610E+02 -0.12971708994E+03 -0.84955744918E+02  0.17683687217E+03  0.81607387326E+02 0.  0.
         25    2    1    2    0    0  0.55020136260E+01  0.14199816200E+03  0.11007706109E+04  0.11169320095E+04  0.12508967079E+03 0.  0.
        -24    2    1    2    0    0  0.18320489984E+02 -0.12281072066E+02  0.13642702621E+04  0.13669218063E+04  0.82191309903E+02 0.  0.
        -11    1    3    3    0    0 -0.24405473776E+02 -0.27338565548E+02  0.91553256085E+01  0.37773592674E+02  0.00000000000E+00 0.  1.
         12    1    3    3    0    0  0.58297016538E+00 -0.10237852439E+03 -0.94111070527E+02  0.13906327950E+03  0.00000000000E+00 0. -1.
         13    1    5    5    0    0 -0.23037777385E+02 -0.68532589526E+01  0.99710994502E+03  0.99739959335E+03  0.00000000000E+00 0. -1.
        -14    1    5    5    0    0  0.41358267369E+02 -0.54278131132E+01  0.36716031708E+03  0.36952221296E+03  0.00000000000E+00 0.  1.
          5    1    4    4  501    0 -0.54340405339E+01 -0.98206625502E+01  0.38302366244E+03  0.38321087223E+03  0.41800000000E+01 0.  1.
         -5    1    4    4    0  501  0.10936054160E+02  0.15181882455E+03  0.71774694850E+03  0.73372113726E+03  0.41800000000E+01 0.  1.
</event>
<event>
11    1  0.1003949E-008  0.1285379E+03  0.7561462E-02  0.1121079E+00
         22   -1    0    0    0    0  0.00000000000E+00  0.00000000000E+00  0.35019519398E+03  0.35019519398E+03  0.00000000000E+00 0.  1.
         22   -1    0    0    0    0 -0.00000000000E+00 -0.00000000000E+00 -0.61925702460E+03  0.61925702460E+03  0.00000000000E+00 0.  1.
        -24    2    1    2    0    0  0.11695612139E+02 -0.28791167101E+02 -0.54206924541E+03  0.54891226803E+03  0.80621910950E+02 0.  0.
         25    2    1    2    0    0 -0.20413176658E+01  0.40357054020E+01 -0.94386432569E+01  0.12552108002E+03  0.12508397038E+03 0.  0.
         24    2    1    2    0    0 -0.96542944729E+01  0.24755461699E+02  0.28244605805E+03  0.29501887054E+03  0.80958754820E+02 0.  0.
        -11    1    5    5    0    0 -0.28796751539E+02  0.10547341499E+02  0.26147841569E+03  0.26327069944E+03  0.00000000000E+00 0.  1.
         12    1    5    5    0    0  0.19142457066E+02  0.14208120201E+02  0.20967642361E+02  0.31748171103E+02  0.00000000000E+00 0. -1.
         13    1    3    3    0    0 -0.70501871205E-01  0.25228789408E+02 -0.89809821831E+02  0.93286123742E+02  0.00000000000E+00 0. -1.
        -14    1    3    3    0    0  0.11766114010E+02 -0.54019956510E+02 -0.45225942358E+03  0.45562614429E+03  0.00000000000E+00 0.  1.
          5    1    4    4  501    0 -0.21878553125E+01  0.64191215222E+02 -0.10476483980E+02  0.65211409578E+02  0.41800000000E+01 0.  1.
         -5    1    4    4    0  501  0.14653764670E+00 -0.60155509820E+02  0.10378407228E+01  0.60309670438E+02  0.41800000000E+01 0.  1.
</event>
<event>
11    1  0.1003949E-008  0.9126279E+03  0.7561462E-02  0.8766868E-01
         22   -1    0    0    0    0  0.00000000000E+00  0.00000000000E+00  0.69927252226E+03  0.69927252226E+03  0.00000000000E+00 0.  1.
         22   -1    0    0    0    0 -0.00000000000E+00 -0.00000000000E+00 -0.29777006931E+03  0.29777006931E+03  0.00000000000E+00 0.  1.
        -24    2    1    2    0    0  0.79122147736E+02 -0.25265893399E+03  0.23093914383E+03  0.36113453998E+03  0.83596750093E+02 0.  0.
         25    2    1    2    0    0 -0.18539371284E+03  0.32563604424E+03 -0.16627406738E+02  0.39538551830E+03  0.12507427937E+03 0.  0.
         24    2    1    2    0    0  0.10627156510E+03 -0.72977110253E+02  0.18719071586E+03  0.24052253330E+03  0.78685581600E+02 0.  0.
        -13    1    5    5    0    0  0.14978052006E+02  0.17081494565E+02  0.30959791186E+02  0.38400887604E+02  0.00000000000E+00 0.  1.
         14    1    5    5    0    0  0.91293513094E+02 -0.90058604818E+02  0.15623092467E+03  0.20212164570E+03  0.00000000000E+00 0. -1.
         11    1    3    3    0    0 -0.13359904778E+02 -0.92926531982E+01  0.69560445879E+01  0.17698220686E+02  0.00000000000E+00 0. -1.
        -12    1    3    3    0    0  0.92482052515E+02 -0.24336628079E+03  0.22398309924E+03  0.34343631929E+03  0.00000000000E+00 0.  1.
          5    1    4    4  501    0 -0.33787874748E+02  0.14609118790E+03  0.36598622647E+02  0.15440591712E+03  0.41800000000E+01 0.  1.
         -5    1    4    4    0  501 -0.15160583809E+03  0.17954485633E+03 -0.53226029385E+02  0.24097960118E+03  0.41800000000E+01 0.  1.
</event>
<event>
11    1  0.1003949E-008  0.1802254E+03  0.7561462E-02  0.1069461E+00
         22   -1    0    0    0    0  0.00000000000E+00  0.00000000000E+00  0.43685526506E+03  0.43685526506E+03  0.00000000000E+00 0. -1.
         22   -1    0    0    0    0 -0.00000000000E+00 -0.00000000000E+00 -0.10457644137E+04  0.10457644137E+04  0.00000000000E+00 0.  1.
         24    2    1    2    0    0  0.38764506207E+02  0.54645087436E+02 -0.97604212706E+03  0.98164158462E+03  0.80456164083E+02 0.  0.
         25    2    1    2    0    0 -0.26189538478E+02  0.97643162219E+02  0.12546636268E+03  0.20398342210E+03  0.12508936515E+03 0.  0.
        -24    2    1    2    0    0 -0.12574967730E+02 -0.15228824965E+03  0.24166661571E+03  0.29699467206E+03  0.80332068841E+02 0.  0.
        -13    1    3    3    0    0  0.31837742206E+02  0.20101347415E+01 -0.68856336703E+03  0.68930196060E+03  0.00000000000E+00 0.  1.
         14    1    3    3    0    0  0.69267640015E+01  0.52634952694E+02 -0.28747876002E+03  0.29233962402E+03  0.00000000000E+00 0. -1.
         13    1    5    5    0    0  0.73836819303E+01 -0.10062950242E+03  0.21053301793E+03  0.23346298883E+03  0.00000000000E+00 0. -1.
        -14    1    5    5    0    0 -0.19958649660E+02 -0.51658747238E+02  0.31133597779E+02  0.63531683223E+02  0.00000000000E+00 0.  1.
          5    1    4    4  501    0 -0.59009695426E+02  0.46763541143E+02  0.12170885731E+03  0.14317643410E+03  0.41800000000E+01 0. -1.
         -5    1    4    4    0  501  0.32820156948E+02  0.50879621076E+02  0.37575053710E+01  0.60806987999E+02  0.41800000000E+01 0. -1.
</event>
<event>
11    1  0.1003949E-008  0.1506298E+03  0.7561462E-02  0.1096237E+00
         22   -1    0    0    0    0  0.00000000000E+00  0.00000000000E+00  0.25121608183E+03  0.25121608183E+03  0.00000000000E+00 0.  1.
         22   -1    0    0    0    0 -0.00000000000E+00 -0.00000000000E+00 -0.68435248101E+03  0.68435248101E+03  0.00000000000E+00 0.  1.
        -24    2    1    2    0    0 -0.15002325029E+02 -0.81841525033E+02 -0.61233017169E+03  0.62305145939E+03  0.79509602602E+02 0.  0.
         25    2    1    2    0    0  0.51109851808E+02  0.95775421386E+02  0.10403269258E+03  0.19559183119E+03  0.12509282556E+03 0.  0.
         24    2    1    2    0    0 -0.36107526779E+02 -0.13933896353E+02  0.75161079930E+02  0.11692527226E+03  0.80773909154E+02 0.  0.
        -11    1    5    5    0    0  0.17823066383E+02 -0.19410376316E+02  0.51352712231E+02  0.57719368132E+02  0.00000000000E+00 0.  1.
         12    1    5    5    0    0 -0.53930593162E+02  0.54764799632E+01  0.23808367699E+02  0.59205904132E+02  0.00000000000E+00 0. -1.
         11    1    3    3    0    0  0.17968531569E+02 -0.65895633833E+02 -0.25995741159E+03  0.26878050250E+03  0.00000000000E+00 0. -1.
        -12    1    3    3    0    0 -0.32970856598E+02 -0.15945891200E+02 -0.35237276011E+03  0.35427095689E+03  0.00000000000E+00 0.  1.
          5    1    4    4  501    0 -0.23820051860E+02  0.10314865165E+02  0.73161540601E+02  0.77742361278E+02  0.41800000000E+01 0.  1.
         -5    1    4    4    0  501  0.74929903668E+02  0.85460556221E+02  0.30871151983E+02  0.11784946991E+03  0.41800000000E+01 0.  1.
</event>
<event>
11    1  0.1003949E-008  0.1371654E+03  0.7561462E-02  0.1110766E+00
         22   -1    0    0    0    0  0.00000000000E+00  0.00000000000E+00  0.16684767645E+03  0.16684767645E+03  0.00000000000E+00 0.  1.
         22   -1    0    0    0    0 -0.00000000000E+00 -0.00000000000E+00 -0.16624928550E+04  0.16624928550E+04  0.00000000000E+00 0.  1.
        -24    2    1    2    0    0 -0.42167512430E+02 -0.37104569793E+02 -0.15817823533E+04  0.15848057730E+04  0.80119141419E+02 0.  0.
         25    2    1    2    0    0  0.65377375976E+02  0.24135073864E+02  0.69307385893E+02  0.15908047872E+03  0.12508549832E+03 0.  0.
         24    2    1    2    0    0 -0.23209863546E+02  0.12969495929E+02  0.16829788887E+02  0.85454279671E+02  0.79449899495E+02 0.  0.
        -11    1    5    5    0    0 -0.52792980328E+02  0.46918349112E+01  0.12212103366E+02  0.54389774364E+02  0.00000000000E+00 0.  1.
         12    1    5    5    0    0  0.29583116782E+02  0.82776610178E+01  0.46176855213E+01  0.31064505308E+02  0.00000000000E+00 0. -1.
         11    1    3    3    0    0  0.21634952536E+02 -0.74360015631E+01 -0.21506176401E+03  0.21627512023E+03  0.00000000000E+00 0. -1.
        -12    1    3    3    0    0 -0.63802464966E+02 -0.29668568230E+02 -0.13667205893E+04  0.13685306528E+04  0.00000000000E+00 0.  1.
          5    1    4    4  501    0  0.27348162599E+02  0.68893228330E+02  0.89810503381E+01  0.74781886660E+02  0.41800000000E+01 0.  1.
         -5    1    4    4    0  501  0.38029213377E+02 -0.44758154466E+02  0.60326335555E+02  0.84298592056E+02  0.41800000000E+01 0.  1.
</event>
<event>
11    1  0.1003949E-008  0.1445567E+03  0.7561462E-02  0.1102574E+00
         22   -1    0    0    0    0  0.00000000000E+00  0.00000000000E+00  0.36548404821E+03  0.36548404821E+03  0.00000000000E+00 0. -1.
         22   -1    0    0    0    0 -0.00000000000E+00 -0.00000000000E+00 -0.35613264447E+03  0.35613264447E+03  0.00000000000E+00 0.  1.
        -24    2    1    2    0    0 -0.53883726142E+02  0.50694312712E+02 -0.30903441496E+03  0.32777115481E+03  0.80363493043E+02 0.  0.
         25    2    1    2    0    0  0.39650886049E+02 -0.26574088049E+02  0.12929450618E+03  0.18611660444E+03  0.12507576184E+03 0.  0.
         24    2    1    2    0    0  0.14232840093E+02 -0.24120224663E+02  0.18909131251E+03  0.20772893342E+03  0.81310677880E+02 0.  0.
        -11    1    5    5    0    0  0.33447099753E+02 -0.38200962495E+02  0.71168435660E+02  0.87424071351E+02  0.00000000000E+00 0.  1.
         12    1    5    5    0    0 -0.19214259660E+02  0.14080737832E+02  0.11792287685E+03  0.12030486207E+03  0.00000000000E+00 0. -1.
         13    1    3    3    0    0 -0.15356523276E+02  0.53881565765E+02 -0.95140726015E+02  0.11041197255E+03  0.00000000000E+00 0. -1.
        -14    1    3    3    0    0 -0.38527202866E+02 -0.31872530530E+01 -0.21389368894E+03  0.21735918226E+03  0.00000000000E+00 0.  1.
          5    1    4    4  501    0 -0.66392225814E+01 -0.65013518986E+02  0.98799541511E+02  0.11853125634E+03  0.41800000000E+01 0. -1.
         -5    1    4    4    0  501  0.46290108630E+02  0.38439430937E+02  0.30494964671E+02  0.67585348101E+02  0.41800000000E+01 0. -1.
</event>
<event>
11    1  0.1003949E-008  0.3869893E+03  0.7561462E-02  0.9688946E-01
         22   -1    0    0    0    0  0.00000000000E+00  0.00000000000E+00  0.16250612775E+03  0.16250612775E+03  0.00000000000E+00 0. -1.
         22   -1    0    0    0    0 -0.00000000000E+00 -0.00000000000E+00 -0.11894086090E+04  0.11894086090E+04  0.00000000000E+00 0. -1.
        -24    2    1    2    0    0  0.29597491991E+03  0.19668885072E+03 -0.46286643021E+03  0.58874197184E+03  0.78000769052E+02 0.  0.
         25    2    1    2    0    0 -0.27088341663E+03 -0.27143856889E+03 -0.45389805328E+03  0.60723070098E+03  0.12509580074E+03 0.  0.
         24    2    1    2    0    0 -0.25091503278E+02  0.74749718168E+02 -0.11013799776E+03  0.15594206393E+03  0.77268653733E+02 0.  0.
        -11    1    5    5    0    0  0.19507860738E+02 -0.35946049996E+01 -0.14940827115E+02  0.24833568623E+02  0.00000000000E+00 0.  1.
         12    1    5    5    0    0 -0.44599364016E+02  0.78344323168E+02 -0.95197170644E+02  0.13110849531E+03  0.00000000000E+00 0. -1.
         13    1    3    3    0    0  0.29408180729E+03  0.20256471246E+03 -0.45862673604E+03  0.58125300440E+03  0.00000000000E+00 0. -1.
        -14    1    3    3    0    0  0.18931126139E+01 -0.58758617416E+01 -0.42396941766E+01  0.74889674379E+01  0.00000000000E+00 0.  1.
          5    1    4    4  501    0 -0.27807266865E+03 -0.27245247104E+03 -0.42159674293E+03  0.57386064865E+03  0.41800000000E+01 0. -1.
         -5    1    4    4    0  501  0.71892520197E+01  0.10139021510E+01 -0.32301310352E+02  0.33370052332E+02  0.41800000000E+01 0. -1.
</event>
<event>
11    1  0.1003949E-008  0.1384808E+03  0.7561462E-02  0.1109267E+00
         22   -1    0    0    0    0  0.00000000000E+00  0.00000000000E+00  0.22228074108E+03  0.22228074108E+03  0.00000000000E+00 0.  1.
         22   -1    0    0    0    0 -0.00000000000E+00 -0.00000000000E+00 -0.24135580059E+04  0.24135580059E+04  0.00000000000E+00 0.  1.
        -24    2    1    2    0    0 -0.10266184537E+02  0.55758933500E+02 -0.20437507410E+04  0.20461079894E+04  0.80164579042E+02 0.  0.
         25    2    1    2    0    0 -0.43707457379E+02 -0.79414132458E+02 -0.33933554943E+03  0.37284583149E+03  0.12509377556E+03 0.  0.
         24    2    1    2    0    0  0.53973641916E+02  0.23655198958E+02  0.19180902558E+03  0.21688492612E+03  0.82314314817E+02 0.  0.
        -13    1    5    5    0    0 -0.12732926773E+02 -0.15256664462E+02  0.69071019249E+02  0.71872796904E+02  0.00000000000E+00 0.  1.
         14    1    5    5    0    0  0.66706568689E+02  0.38911863419E+02  0.12273800633E+03  0.14501212922E+03  0.00000000000E+00 0. -1.
         11    1    3    3    0    0 -0.18126185588E+02 -0.72087767086E+01 -0.14609409487E+03  0.14739067006E+03  0.00000000000E+00 0. -1.
        -12    1    3    3    0    0  0.78600010516E+01  0.62967710208E+02 -0.18976566461E+04  0.18987173193E+04  0.00000000000E+00 0.  1.
          5    1    4    4  501    0  0.24026657473E+02  0.20607512936E+02 -0.95502669837E+02  0.10069847171E+03  0.41800000000E+01 0.  1.
         -5    1    4    4    0  501 -0.67734114852E+02 -0.10002164539E+03 -0.24383287960E+03  0.27214735978E+03  0.41800000000E+01 0.  1.
</event>
<event>
11    1  0.1003949E-008  0.1736267E+03  0.7561462E-02  0.1074918E+00
         22   -1    0    0    0    0  0.00000000000E+00  0.00000000000E+00  0.26387903652E+03  0.26387903652E+03  0.00000000000E+00 0. -1.
         22   -1    0    0    0    0 -0.00000000000E+00 -0.00000000000E+00 -0.21510864806E+04  0.21510864806E+04  0.00000000000E+00 0.  1.
         24    2    1    2    0    0 -0.78327349285E+02 -0.90941021361E+02 -0.19631150777E+04  0.19683789856E+04  0.79306868760E+02 0.  0.
         25    2    1    2    0    0  0.95647806052E+02  0.84162664704E+02 -0.13260718761E+03  0.22242817025E+03  0.12513100247E+03 0.  0.
        -24    2    1    2    0    0 -0.17320456767E+02  0.67783566568E+01  0.20851482125E+03  0.22415836132E+03  0.80141100100E+02 0.  0.
        -11    1    3    3    0    0 -0.42566125060E+02  0.28242048643E+01 -0.68777352545E+03  0.68909525716E+03  0.00000000000E+00 0.  1.
         12    1    3    3    0    0 -0.35761224225E+02 -0.93765226225E+02 -0.12753415523E+04  0.12792837284E+04  0.00000000000E+00 0. -1.
         11    1    5    5    0    0 -0.29855781214E+02 -0.26532601337E+01  0.20612171524E+03  0.20828962757E+03  0.00000000000E+00 0. -1.
        -12    1    5    5    0    0  0.12535324447E+02  0.94316167905E+01  0.23931060124E+01  0.15868733745E+02  0.00000000000E+00 0.  1.
          5    1    4    4  501    0 -0.25463937423E+02  0.43688530511E+02 -0.40570994443E+02  0.64965974151E+02  0.41800000000E+01 0. -1.
         -5    1    4    4    0  501  0.12111174348E+03  0.40474134193E+02 -0.92036193168E+02  0.15746219609E+03  0.41800000000E+01 0. -1.
</event>
<event>
11    1  0.1003949E-008  0.1649800E+03  0.7561462E-02  0.1082485E+00
         22   -1    0    0    0    0  0.00000000000E+00  0.00000000000E+00  0.13294928952E+04  0.13294928952E+04  0.00000000000E+00 0.  1.
         22   -1    0    0    0    0 -0.00000000000E+00 -0.00000000000E+00 -0.30284767795E+03  0.30284767795E+03  0.00000000000E+00 0. -1.
         24    2    1    2    0    0  0.87203815246E+02  0.11067962496E+02 -0.19611972576E+03  0.22921149146E+03  0.79674059763E+02 0.  0.
         25    2    1    2    0    0 -0.16848754957E+03 -0.76712820774E+02  0.57832734060E+02  0.23079195798E+03  0.12508953397E+03 0.  0.
        -24    2    1    2    0    0  0.81283734320E+02  0.65644858278E+02  0.11649322089E+04  0.11723371237E+04  0.79943650622E+02 0.  0.
        -13    1    3    3    0    0  0.24044103910E+02  0.30759043412E+02 -0.12976438150E+03  0.13551026673E+03  0.00000000000E+00 0.  1.
         14    1    3    3    0    0  0.63159711336E+02 -0.19691080916E+02 -0.66355344261E+02  0.93701224729E+02  0.00000000000E+00 0. -1.
         11    1    5    5    0    0 -0.13108728449E+02 -0.44989508806E+01  0.10968599277E+03  0.11055811291E+03  0.00000000000E+00 0. -1.
        -12    1    5    5    0    0  0.94392462769E+02  0.70143809158E+02  0.10552462162E+04  0.10617790108E+04  0.00000000000E+00 0.  1.
          5    1    4    4  501    0 -0.45875405486E+02 -0.76822539243E+02 -0.10786423927E+02  0.90222362557E+02  0.41800000000E+01 0. -1.
         -5    1    4    4    0  501 -0.12261214408E+03  0.10971846958E+00  0.68619157987E+02  0.14056959542E+03  0.41800000000E+01 0. -1.
</event>
<event>
11    1  0.1003949E-008  0.1456611E+03  0.7561462E-02  0.1101397E+00
         22   -1    0    0    0    0  0.00000000000E+00  0.00000000000E+00  0.82976745784E+02  0.82976745784E+02  0.00000000000E+00 0. -1.
         22   -1    0    0    0    0 -0.00000000000E+00 -0.00000000000E+00 -0.11471296044E+04  0.11471296044E+04  0.00000000000E+00 0. -1.
        -24    2    1    2    0    0 -0.93295687771E+02  0.10040967343E+03 -0.79167981908E+03  0.80786069228E+03  0.84236419203E+02 0.  0.
         25    2    1    2    0    0  0.42773090272E+02  0.56171994164E+01 -0.24292373063E+03  0.27662656122E+03  0.12509686362E+03 0.  0.
         24    2    1    2    0    0  0.50522597499E+02 -0.10602687285E+03 -0.29549308859E+02  0.14561909663E+03  0.80854987642E+02 0.  0.
        -13    1    5    5    0    0  0.30129030630E+02 -0.11576108749E+03 -0.28664118015E+02  0.12300414434E+03  0.00000000000E+00 0.  1.
         14    1    5    5    0    0  0.20393566869E+02  0.97342146426E+01 -0.88519084334E+00  0.22614952292E+02  0.00000000000E+00 0. -1.
         11    1    3    3    0    0 -0.93676377607E+02  0.42961697398E+02 -0.48149572299E+03  0.49240136314E+03  0.00000000000E+00 0. -1.
        -12    1    3    3    0    0  0.38068983592E+00  0.57447976034E+02 -0.31018409609E+03  0.31545932914E+03  0.00000000000E+00 0.  1.
          5    1    4    4  501    0 -0.41849146519E+02 -0.21473962610E+01 -0.11963704564E+03  0.12683239911E+03  0.41800000000E+01 0.  1.
         -5    1    4    4    0  501  0.84622236792E+02  0.77645956774E+01 -0.12328668498E+03  0.14979416210E+03  0.41800000000E+01 0.  1.
</event>
<event>
11    1  0.1003949E-008  0.1365631E+03  0.7561462E-02  0.1111458E+00
         22   -1    0    0    0    0  0.00000000000E+00  0.00000000000E+00  0.39266100643E+03  0.39266100643E+03  0.00000000000E+00 0. -1.
         22   -1    0    0    0    0 -0.00000000000E+00 -0.00000000000E+00 -0.75446700276E+03  0.75446700276E+03  0.00000000000E+00 0.  1.
         24    2    1    2    0    0 -0.30365911494E+02 -0.33765850876E+02 -0.39637676561E+03  0.40692382275E+03  0.80063949074E+02 0.  0.
         25    2    1    2    0    0  0.46141372672E+02  0.70978095877E+02 -0.33082435622E+03  0.36367406116E+03  0.12508857551E+03 0.  0.
        -24    2    1    2    0    0 -0.15775461178E+02 -0.37212245001E+02  0.36539512550E+03  0.37653012529E+03  0.81410817195E+02 0.  0.
        -11    1    3    3    0    0 -0.57146329053E+02 -0.25801951879E+02 -0.23909886398E+03  0.24718355609E+03  0.00000000000E+00 0.  1.
         12    1    3    3    0    0  0.26780417559E+02 -0.79638989971E+01 -0.15727790163E+03  0.15974026666E+03  0.00000000000E+00 0. -1.
         11    1    5    5    0    0 -0.28271912736E+02 -0.53831824686E+02  0.18043217547E+03  0.19040203871E+03  0.00000000000E+00 0. -1.
        -12    1    5    5    0    0  0.12496451558E+02  0.16619579685E+02  0.18496295003E+03  0.18612808658E+03  0.00000000000E+00 0.  1.
          5    1    4    4  501    0 -0.83571806934E+01  0.22071699474E+02 -0.26200236097E+03  0.26309639287E+03  0.41800000000E+01 0. -1.
         -5    1    4    4    0  501  0.54498553366E+02  0.48906396403E+02 -0.68821995252E+02  0.10057766829E+03  0.41800000000E+01 0. -1.
</event>
<event>
11    1  0.1003949E-008  0.1275552E+03  0.7561462E-02  0.1122310E+00
         22   -1    0    0    0    0  0.00000000000E+00  0.00000000000E+00  0.69812801653E+03  0.69812801653E+03  0.00000000000E+00 0.  1.
         22   -1    0    0    0    0 -0.00000000000E+00 -0.00000000000E+00 -0.32304586909E+03  0.32304586909E+03  0.00000000000E+00 0. -1.
         24    2    1    2    0    0  0.11708292726E+02 -0.31070331458E+02 -0.18144233504E+03  0.20150075722E+03  0.81109707182E+02 0.  0.
         25    2    1    2    0    0  0.14673788884E+02  0.39944982905E+01 -0.98188045507E+02  0.15974686559E+03  0.12508754011E+03 0.  0.
        -24    2    1    2    0    0 -0.26382081610E+02  0.27075833168E+02  0.65471252798E+03  0.65992626281E+03  0.73655027501E+02 0.  0.
        -11    1    3    3    0    0  0.13827957239E+01 -0.47664145443E+02 -0.51849817553E+02  0.70442788595E+02  0.00000000000E+00 0.  1.
         12    1    3    3    0    0  0.10325497002E+02  0.16593813984E+02 -0.12959251749E+03  0.13105796862E+03  0.00000000000E+00 0. -1.
         13    1    5    5    0    0 -0.31428609744E+02  0.12796859518E+02  0.11259910197E+03  0.11760133881E+03  0.00000000000E+00 0. -1.
        -14    1    5    5    0    0  0.50465281341E+01  0.14278973649E+02  0.54211342601E+03  0.54232492400E+03  0.00000000000E+00 0.  1.
          5    1    4    4  501    0 -0.45075141004E+01 -0.31784234345E+01 -0.12531274562E+03  0.12550369187E+03  0.41800000000E+01 0. -1.
         -5    1    4    4    0  501  0.19181302984E+02  0.71729217250E+01  0.27124700113E+02  0.34243173721E+02  0.41800000000E+01 0. -1.
</event>
<event>
11    1  0.1003949E-008  0.1373619E+03  0.7561462E-02  0.1110541E+00
         22   -1    0    0    0    0  0.00000000000E+00  0.00000000000E+00  0.98158631272E+03  0.98158631272E+03  0.00000000000E+00 0.  1.
         22   -1    0    0    0    0 -0.00000000000E+00 -0.00000000000E+00 -0.60242807841E+03  0.60242807841E+03  0.00000000000E+00 0. -1.
        -24    2    1    2    0    0 -0.36804793990E+02 -0.26899745082E+02 -0.57385499046E+03  0.58131987163E+03  0.80901507603E+02 0.  0.
         25    2    1    2    0    0  0.73955856433E+02  0.61220405697E+02  0.26828034888E+03  0.31118941986E+03  0.12508837942E+03 0.  0.
         24    2    1    2    0    0 -0.37151062443E+02 -0.34320660615E+02  0.68473287589E+03  0.69150509964E+03  0.82231881404E+02 0.  0.
        -13    1    5    5    0    0 -0.18862605220E+02 -0.36719655067E+02  0.65640239439E+03  0.65769919744E+03  0.00000000000E+00 0.  1.
         14    1    5    5    0    0 -0.18288457223E+02  0.23989944519E+01  0.28330481496E+02  0.33805902204E+02  0.00000000000E+00 0. -1.
         11    1    3    3    0    0 -0.39102142191E+02 -0.48102148114E+02 -0.51505053354E+03  0.51876762261E+03  0.00000000000E+00 0. -1.
        -12    1    3    3    0    0  0.22973482005E+01  0.21202403032E+02 -0.58804456921E+02  0.62552249015E+02  0.00000000000E+00 0.  1.
          5    1    4    4  501    0 -0.51749490507E+01  0.54951046426E+02  0.19629410268E+03  0.20394912294E+03  0.41800000000E+01 0.  1.
         -5    1    4    4    0  501  0.79130805484E+02  0.62693592709E+01  0.71986246197E+02  0.10724029692E+03  0.41800000000E+01 0.  1.
</event>
<event>
11    1  0.1003949E-008  0.1465385E+03  0.7561462E-02  0.1100469E+00
         22   -1    0    0    0    0  0.00000000000E+00  0.00000000000E+00  0.16843578353E+04  0.16843578353E+04  0.00000000000E+00 0. -1.
         22   -1    0    0    0    0 -0.00000000000E+00 -0.00000000000E+00 -0.56474817497E+02  0.56474817497E+02  0.00000000000E+00 0. -1.
        -24    2    1    2    0    0 -0.58573512651E+02  0.59660533213E+02  0.55698541964E+02  0.12866390954E+03  0.80385561096E+02 0.  0.
         25    2    1    2    0    0  0.67838679231E+02 -0.49097786015E+01  0.26030893965E+03  0.29670563383E+03  0.12508915523E+03 0.  0.
         24    2    1    2    0    0 -0.92651665799E+01 -0.54750754611E+02  0.13118755362E+04  0.13154631095E+04  0.79638441662E+02 0.  0.
        -11    1    5    5    0    0  0.13932939335E+02 -0.14658158303E+02  0.73782450561E+02  0.76503845748E+02  0.00000000000E+00 0.  1.
         12    1    5    5    0    0 -0.23198105915E+02 -0.40092596308E+02  0.12380930857E+04  0.12389592637E+04  0.00000000000E+00 0. -1.
         13    1    3    3    0    0 -0.78190658949E+02  0.48183442623E+02  0.52276194048E+02  0.10567981716E+03  0.00000000000E+00 0. -1.
        -14    1    3    3    0    0  0.19617146298E+02  0.11477090590E+02  0.34223479160E+01  0.22984092381E+02  0.00000000000E+00 0.  1.
          5    1    4    4  501    0  0.51367547395E+02 -0.10998162153E+02  0.27076462526E+03  0.27584513624E+03  0.41800000000E+01 0.  1.
         -5    1    4    4    0  501  0.16471131836E+02  0.60883835511E+01 -0.10455685605E+02  0.20860497590E+02  0.41800000000E+01 0.  1.
</event>
<event>
11    1  0.1003949E-008  0.1574370E+03  0.7561462E-02  0.1089513E+00
         22   -1    0    0    0    0  0.00000000000E+00  0.00000000000E+00  0.10269463360E+04  0.10269463360E+04  0.00000000000E+00 0.  1.
         22   -1    0    0    0    0 -0.00000000000E+00 -0.00000000000E+00 -0.70308048477E+03  0.70308048477E+03  0.00000000000E+00 0. -1.
        -24    2    1    2    0    0 -0.10283335962E+02  0.86801950256E+01 -0.38656254276E+03  0.39499011400E+03  0.80034354584E+02 0.  0.
         25    2    1    2    0    0  0.27122215742E+02  0.85501030381E+02 -0.28924837885E+03  0.32765725619E+03  0.12509441268E+03 0.  0.
         24    2    1    2    0    0 -0.16838879780E+02 -0.94181225407E+02  0.99967677284E+03  0.10073794506E+04  0.79410680559E+02 0.  0.
        -11    1    5    5    0    0 -0.10940098263E+02 -0.35271883833E+02  0.74487883596E+03  0.74579371934E+03  0.00000000000E+00 0.  1.
         12    1    5    5    0    0 -0.58987815171E+01 -0.58909341573E+02  0.25479793687E+03  0.26158573123E+03  0.00000000000E+00 0. -1.
         11    1    3    3    0    0 -0.27842522023E+02  0.12855132895E+02 -0.55282618385E+02  0.63218892507E+02  0.00000000000E+00 0. -1.
        -12    1    3    3    0    0  0.17559186061E+02 -0.41749378689E+01 -0.33127992437E+03  0.33177122150E+03  0.00000000000E+00 0.  1.
          5    1    4    4  501    0 -0.23988494240E+02 -0.22505885837E+02 -0.81048744143E+02  0.87569024663E+02  0.41800000000E+01 0. -1.
         -5    1    4    4    0  501  0.51110709981E+02  0.10800691622E+03 -0.20819963471E+03  0.24008823153E+03  0.41800000000E+01 0. -1.
</event>
<event>
11    1  0.1003949E-008  0.1271258E+03  0.7561462E-02  0.1122852E+00
         22   -1    0    0    0    0  0.00000000000E+00  0.00000000000E+00  0.43501663587E+04  0.43501663587E+04  0.00000000000E+00 0.  1.
         22   -1    0    0    0    0 -0.00000000000E+00 -0.00000000000E+00 -0.94173061691E+02  0.94173061691E+02  0.00000000000E+00 0. -1.
         24    2    1    2    0    0  0.13150497149E+01  0.33610448606E+02 -0.68371783940E+02  0.10959825551E+03  0.78776171270E+02 0.  0.
         25    2    1    2    0    0  0.15622313921E+02 -0.45283795624E+02  0.96244526396E+03  0.97172126475E+03  0.12508657570E+03 0.  0.
        -24    2    1    2    0    0 -0.16937363636E+02  0.11673347018E+02  0.33619198170E+04  0.33630199001E+04  0.83515576174E+02 0.  0.
        -13    1    3    3    0    0 -0.19704046051E+02  0.97619350376E+01  0.10641987415E+02  0.24429422887E+02  0.00000000000E+00 0.  1.
         14    1    3    3    0    0  0.21019095766E+02  0.23848513568E+02 -0.79013771356E+02  0.85168832621E+02  0.00000000000E+00 0. -1.
         11    1    5    5    0    0 -0.41897833084E+02 -0.34341817100E+01  0.95673307155E+03  0.95765619730E+03  0.00000000000E+00 0. -1.
        -12    1    5    5    0    0  0.24960469448E+02  0.15107528728E+02  0.24051867454E+04  0.24053637028E+04  0.00000000000E+00 0.  1.
          5    1    4    4  501    0  0.47778579115E+02 -0.75039752089E+02  0.58971596286E+03  0.59640267125E+03  0.41800000000E+01 0.  1.
         -5    1    4    4    0  501 -0.32156265194E+02  0.29755956465E+02  0.37272930109E+03  0.37531859350E+03  0.41800000000E+01 0.  1.
</event>
<event>
11    1  0.1003949E-008  0.1556307E+03  0.7561462E-02  0.1091260E+00
         22   -1    0    0    0    0  0.00000000000E+00  0.00000000000E+00  0.17653444371E+03  0.17653444371E+03  0.00000000000E+00 0.  1.
         22   -1    0    0    0    0 -0.00000000000E+00 -0.00000000000E+00 -0.68930005763E+03  0.68930005763E+03  0.00000000000E+00 0. -1.
        -24    2    1    2    0    0 -0.22686570573E+02 -0.24591194994E+02 -0.50771288903E+03  0.51498597113E+03  0.79490662465E+02 0.  0.
         25    2    1    2    0    0  0.11061348904E+03  0.34177745232E+02 -0.10047149742E+03  0.19785055135E+03  0.12508739604E+03 0.  0.
         24    2    1    2    0    0 -0.87926918464E+02 -0.95865502382E+01  0.95418772532E+02  0.15299797887E+03  0.80502139410E+02 0.  0.
        -13    1    5    5    0    0 -0.54275219038E+02  0.34218351567E+02  0.55647657417E+02  0.84931482747E+02  0.00000000000E+00 0.  1.
         14    1    5    5    0    0 -0.33651699426E+02 -0.43804901805E+02  0.39771115115E+02  0.68066496119E+02  0.00000000000E+00 0. -1.
         13    1    3    3    0    0 -0.46746251576E+02 -0.86777682358E+01 -0.41928362918E+03  0.42197070680E+03  0.00000000000E+00 0. -1.
        -14    1    3    3    0    0  0.24059681004E+02 -0.15913426758E+02 -0.88429259849E+02  0.93015264332E+02  0.00000000000E+00 0.  1.
          5    1    4    4  501    0  0.93274727556E+01  0.63865368746E+02 -0.34375475064E+02  0.73245701300E+02  0.41800000000E+01 0.  1.
         -5    1    4    4    0  501  0.10128601628E+03 -0.29687623515E+02 -0.66096022355E+02  0.12460485005E+03  0.41800000000E+01 0.  1.
</event>
<event>
11    1  0.1003949E-008  0.1730710E+03  0.7561462E-02  0.1075390E+00
         22   -1    0    0    0    0  0.00000000000E+00  0.00000000000E+00  0.21226951600E+04  0.21226951600E+04  0.00000000000E+00 0.  1.
         22   -1    0    0    0    0 -0.00000000000E+00 -0.00000000000E+00 -0.80397043798E+02  0.80397043798E+02  0.00000000000E+00 0.  1.
        -24    2    1    2    0    0  0.11190243882E+03  0.39462843939E+02  0.10254040626E+02  0.14578990885E+03  0.84083769591E+02 0.  0.
         25    2    1    2    0    0 -0.99119249504E+02 -0.10802330089E+03  0.91621702828E+03  0.93626593788E+03  0.12508638762E+03 0.  0.
         24    2    1    2    0    0 -0.12783189316E+02  0.68560456954E+02  0.11158270473E+04  0.11210363570E+04  0.82392767842E+02 0.  0.
        -11    1    5    5    0    0 -0.24902973727E+02  0.73631530143E+02  0.59648381995E+03  0.60152698010E+03  0.00000000000E+00 0.  1.
         12    1    5    5    0    0  0.12119784411E+02 -0.50710731894E+01  0.51934322733E+03  0.51950937694E+03  0.00000000000E+00 0. -1.
         13    1    3    3    0    0  0.67926372585E+02 -0.13910522505E+02  0.27376936412E+02  0.74545230405E+02  0.00000000000E+00 0. -1.
        -14    1    3    3    0    0  0.43976066236E+02  0.53373366444E+02 -0.17122895786E+02  0.71244678448E+02  0.00000000000E+00 0.  1.
          5    1    4    4  501    0 -0.61322730349E+02 -0.61396519833E+02  0.20686970053E+03  0.22437146722E+03  0.41800000000E+01 0.  1.
         -5    1    4    4    0  501 -0.37796519155E+02 -0.46626781060E+02  0.70934732775E+03  0.71189447066E+03  0.41800000000E+01 0.  1.
</event>
<event>
11    1  0.1003949E-008  0.1498651E+03  0.7561462E-02  0.1097017E+00
         22   -1    0    0    0    0  0.00000000000E+00  0.00000000000E+00  0.61934735132E+03  0.61934735132E+03  0.00000000000E+00 0. -1.
         22   -1    0    0    0    0 -0.00000000000E+00 -0.00000000000E+00 -0.13764436575E+03  0.13764436575E+03  0.00000000000E+00 0. -1.
        -24    2    1    2    0    0 -0.13798497784E+02 -0.61331612992E+01 -0.62338742948E+02  0.10264216241E+03  0.80132892262E+02 0.  0.
         25    2    1    2    0    0 -0.70310402454E+02  0.37587798384E+00  0.58396133932E+02  0.15492307003E+03  0.12508938881E+03 0.  0.
         24    2    1    2    0    0  0.84108900239E+02  0.57572833153E+01  0.48564559458E+03  0.49942648463E+03  0.80422115147E+02 0.  0.
        -11    1    5    5    0    0  0.86150719579E+01  0.29310638775E+02  0.22450113249E+03  0.22657027938E+03  0.00000000000E+00 0.  1.
         12    1    5    5    0    0  0.75493828281E+02 -0.23553355460E+02  0.26114446209E+03  0.27285620525E+03  0.00000000000E+00 0. -1.
         11    1    3    3    0    0  0.31995846920E+01 -0.39234522753E+02 -0.49575669280E+02  0.63303492024E+02  0.00000000000E+00 0. -1.
        -12    1    3    3    0    0 -0.16998082476E+02  0.33101361453E+02 -0.12763073668E+02  0.39338670382E+02  0.00000000000E+00 0.  1.
          5    1    4    4  501    0 -0.82438509961E+02 -0.16874471694E+02  0.85695791286E+02  0.12017527518E+03  0.41800000000E+01 0. -1.
         -5    1    4    4    0  501  0.12128107507E+02  0.17250349678E+02 -0.27299657354E+02  0.34747794856E+02  0.41800000000E+01 0. -1.
</event>
<event>
11    1  0.1003949E-008  0.2387948E+03  0.7561462E-02  0.1030044E+00
         22   -1    0    0    0    0  0.00000000000E+00  0.00000000000E+00  0.25078661385E+04  0.25078661385E+04  0.00000000000E+00 0.  1.
         22   -1    0    0    0    0 -0.00000000000E+00 -0.00000000000E+00 -0.15913913266E+04  0.15913913266E+04  0.00000000000E+00 0. -1.
        -24    2    1    2    0    0 -0.28465142130E+02 -0.86642339056E+02 -0.12445089514E+04  0.12505010499E+04  0.81444376532E+02 0.  0.
         25    2    1    2    0    0  0.21451883271E+03  0.16672657101E+03 -0.27308309004E+03  0.40501624138E+03  0.12509077764E+03 0.  0.
         24    2    1    2    0    0 -0.18605369058E+03 -0.80084231954E+02  0.24340668534E+04  0.24437401739E+04  0.78454641605E+02 0.  0.
        -11    1    5    5    0    0 -0.99887143074E+02 -0.67520960235E+02  0.10419142155E+04  0.10488668905E+04  0.00000000000E+00 0.  1.
         12    1    5    5    0    0 -0.86166547505E+02 -0.12563271718E+02  0.13921526378E+04  0.13948732834E+04  0.00000000000E+00 0. -1.
         11    1    3    3    0    0 -0.43101449749E+02 -0.73668231389E+02 -0.11802333714E+04  0.11833154922E+04  0.00000000000E+00 0. -1.
        -12    1    3    3    0    0  0.14636307619E+02 -0.12974107667E+02 -0.64275580049E+02  0.67185557683E+02  0.00000000000E+00 0.  1.
          5    1    4    4  501    0  0.83910727218E+02  0.21445201696E+02 -0.27056192625E+02  0.90831804878E+02  0.41800000000E+01 0. -1.
         -5    1    4    4    0  501  0.13060810549E+03  0.14528136931E+03 -0.24602689741E+03  0.31418443650E+03  0.41800000000E+01 0. -1.
</event>
<event>
11    1  0.1003949E-008  0.1292246E+03  0.7561462E-02  0.1120225E+00
         22   -1    0    0    0    0  0.00000000000E+00  0.00000000000E+00  0.11546508905E+04  0.11546508905E+04  0.00000000000E+00 0.  1.
         22   -1    0    0    0    0 -0.00000000000E+00 -0.00000000000E+00 -0.11744611832E+04  0.11744611832E+04  0.00000000000E+00 0. -1.
         24    2    1    2    0    0 -0.22172330193E+02 -0.12507902902E+02 -0.11266439921E+04  0.11298123793E+04  0.80630437807E+02 0.  0.
         25    2    1    2    0    0  0.98840479722E+00  0.37243010541E+02  0.51305154864E+02  0.14024946917E+03  0.12509866470E+03 0.  0.
        -24    2    1    2    0    0  0.21183925396E+02 -0.24735107639E+02  0.10555285445E+04  0.10590502253E+04  0.79914248363E+02 0.  0.
        -11    1    3    3    0    0 -0.28775748274E+02  0.13528505209E+02 -0.17997006452E+03  0.18275745748E+03  0.00000000000E+00 0.  1.
         12    1    3    3    0    0  0.66034180802E+01 -0.26036408111E+02 -0.94667392761E+03  0.94705492179E+03  0.00000000000E+00 0. -1.
         11    1    5    5    0    0  0.31200461268E+02 -0.46476899935E+02  0.52371136112E+03  0.52669456118E+03  0.00000000000E+00 0. -1.
        -12    1    5    5    0    0 -0.10016535871E+02  0.21741792295E+02  0.53181718339E+03  0.53235566408E+03  0.00000000000E+00 0.  1.
          5    1    4    4  501    0  0.42507007884E+02  0.17960946509E+02 -0.23879099795E+02  0.52126050356E+02  0.41800000000E+01 0.  1.
         -5    1    4    4    0  501 -0.41518603087E+02  0.19282064032E+02  0.75184254659E+02  0.88123418818E+02  0.41800000000E+01 0.  1.
</event>
<event>
11    1  0.1003949E-008  0.1306871E+03  0.7561462E-02  0.1118428E+00
         22   -1    0    0    0    0  0.00000000000E+00  0.00000000000E+00  0.34383318811E+03  0.34383318811E+03  0.00000000000E+00 0. -1.
         22   -1    0    0    0    0 -0.00000000000E+00 -0.00000000000E+00 -0.45113388360E+03  0.45113388360E+03  0.00000000000E+00 0.  1.
         24    2    1    2    0    0  0.97708860905E+01 -0.39362966565E+02 -0.31784461243E+03  0.33061138050E+03  0.81447982865E+02 0.  0.
         25    2    1    2    0    0 -0.28916085608E+02  0.15303841578E+02 -0.86255829885E+02  0.15542999161E+03  0.12509223208E+03 0.  0.
        -24    2    1    2    0    0  0.19145199517E+02  0.24059124987E+02  0.29679974683E+03  0.30892569960E+03  0.79997612443E+02 0.  0.
        -13    1    3    3    0    0 -0.39944565984E+01  0.41162218301E+01 -0.24230010004E+03  0.24236797942E+03  0.00000000000E+00 0.  1.
         14    1    3    3    0    0  0.13765342689E+02 -0.43479188395E+02 -0.75544512392E+02  0.88243401087E+02  0.00000000000E+00 0. -1.
         13    1    5    5    0    0 -0.15729970791E+01  0.13601120935E+02  0.27985576034E+03  0.28019049128E+03  0.00000000000E+00 0. -1.
        -14    1    5    5    0    0  0.20718196596E+02  0.10458004052E+02  0.16943986491E+02  0.28735208320E+02  0.00000000000E+00 0.  1.
          5    1    4    4  501    0 -0.32642277340E+02 -0.44630618205E+02 -0.69783935551E+01  0.55889003640E+02  0.41800000000E+01 0. -1.
         -5    1    4    4    0  501  0.37261917325E+01  0.59934459783E+02 -0.79277436330E+02  0.99540987967E+02  0.41800000000E+01 0. -1.
</event>
<event>
11    1  0.1003949E-008  0.1401435E+03  0.7561462E-02  0.1107398E+00
         22   -1    0    0    0    0  0.00000000000E+00  0.00000000000E+00  0.17135248012E+04  0.17135248012E+04  0.00000000000E+00 0.  1.
         22   -1    0    0    0    0 -0.00000000000E+00 -0.00000000000E+00 -0.52917743254E+03  0.52917743254E+03  0.00000000000E+00 0.  1.
         24    2    1    2    0    0  0.54333399799E+02 -0.30813116654E+02 -0.48530989999E+03  0.49599850248E+03  0.81161868794E+02 0.  0.
         25    2    1    2    0    0 -0.61926877730E+02  0.63754033566E+02  0.12044215224E+03  0.19506329250E+03  0.12507542150E+03 0.  0.
        -24    2    1    2    0    0  0.75934779308E+01 -0.32940916912E+02  0.15492151164E+04  0.15516404387E+04  0.79861188065E+02 0.  0.
        -11    1    3    3    0    0  0.22037690927E+02  0.19366411783E+02 -0.29733608790E+03  0.29877996401E+03  0.00000000000E+00 0.  1.
         12    1    3    3    0    0  0.32295708872E+02 -0.50179528437E+02 -0.18797381209E+03  0.19721853848E+03  0.00000000000E+00 0. -1.
         13    1    5    5    0    0 -0.24017808619E+02 -0.97736889265E+00  0.16980245220E+03  0.17149543187E+03  0.00000000000E+00 0. -1.
        -14    1    5    5    0    0  0.31611286550E+02 -0.31963548020E+02  0.13794126642E+04  0.13801450069E+04  0.00000000000E+00 0.  1.
          5    1    4    4  501    0 -0.21127650921E+02 -0.35155648525E+02  0.57841281804E+02  0.71030863274E+02  0.41800000000E+01 0. -1.
         -5    1    4    4    0  501 -0.40799226808E+02  0.98909682091E+02  0.62600870435E+02  0.12403242922E+03  0.41800000000E+01 0. -1.
</event>
<event>
11    1  0.1003949E-008  0.1599011E+03  0.7561462E-02  0.1087170E+00
         22   -1    0    0    0    0  0.00000000000E+00  0.00000000000E+00  0.18179072007E+03  0.18179072007E+03  0.00000000000E+00 0.  1.
         22   -1    0    0    0    0 -0.00000000000E+00 -0.00000000000E+00 -0.10785502031E+04  0.10785502031E+04  0.00000000000E+00 0. -1.
        -24    2    1    2    0    0 -0.30190497640E+01 -0.45184947217E+02 -0.81496668909E+03  0.82088252260E+03  0.87330507062E+02 0.  0.
         25    2    1    2    0    0 -0.64912690254E+02  0.11301634261E+03 -0.19423611502E+03  0.26525471663E+03  0.12508415274E+03 0.  0.
         24    2    1    2    0    0  0.67931740018E+02 -0.67831395393E+02  0.11244332107E+03  0.17420368395E+03  0.92128190845E+02 0.  0.
        -11    1    5    5    0    0  0.77561903097E+02 -0.83348945555E+02  0.10350540118E+03  0.15387093166E+03  0.00000000000E+00 0.  1.
         12    1    5    5    0    0 -0.96301630786E+01  0.15517550162E+02  0.89379198890E+01  0.20332752295E+02  0.00000000000E+00 0. -1.
         13    1    3    3    0    0 -0.16705377884E+02  0.13689408170E+02 -0.48135954052E+03  0.48184383030E+03  0.00000000000E+00 0. -1.
        -14    1    3    3    0    0  0.13686328120E+02 -0.58874355387E+02 -0.33360714857E+03  0.33903869230E+03  0.00000000000E+00 0.  1.
          5    1    4    4  501    0 -0.41909659920E+02  0.37656705947E+02 -0.97316668528E+00  0.56505455939E+02  0.41800000000E+01 0.  1.
         -5    1    4    4    0  501 -0.23003030334E+02  0.75359636663E+02 -0.19326294833E+03  0.20874926070E+03  0.41800000000E+01 0.  1.
</event>
<event>
11    1  0.1003949E-008  0.1560722E+03  0.7561462E-02  0.1090831E+00
         22   -1    0    0    0    0  0.00000000000E+00  0.00000000000E+00  0.33959567257E+04  0.33959567257E+04  0.00000000000E+00 0.  1.
         22   -1    0    0    0    0 -0.00000000000E+00 -0.00000000000E+00 -0.78003800826E+03  0.78003800826E+03  0.00000000000E+00 0. -1.
        -24    2    1    2    0    0  0.87168995935E+02  0.26826066760E+02 -0.76222836113E+03  0.77147166914E+03  0.76540120584E+02 0.  0.
         25    2    1    2    0    0 -0.13410494847E+03  0.50531085438E+02  0.75567388114E+03  0.77924971416E+03  0.12509825971E+03 0.  0.
         24    2    1    2    0    0  0.46935952534E+02 -0.77357152199E+02  0.26224731974E+04  0.26252733507E+04  0.80668344614E+02 0.  0.
        -11    1    5    5    0    0  0.59914426881E+02 -0.83316217521E+02  0.19950293573E+04  0.19976670060E+04  0.00000000000E+00 0.  1.
         12    1    5    5    0    0 -0.12978474347E+02  0.59590653223E+01  0.62744384017E+03  0.62760634463E+03  0.00000000000E+00 0. -1.
         11    1    3    3    0    0  0.87512616359E+02  0.14072684855E+02 -0.74377257117E+03  0.74903547053E+03  0.00000000000E+00 0. -1.
        -12    1    3    3    0    0 -0.34362042406E+00  0.12753381906E+02 -0.18455789959E+02  0.22436198609E+02  0.00000000000E+00 0.  1.
          5    1    4    4  501    0 -0.36222991453E+02  0.72978824900E+02  0.22966607831E+03  0.24372524268E+03  0.41800000000E+01 0.  1.
         -5    1    4    4    0  501 -0.97881957016E+02 -0.22447739461E+02  0.52600780282E+03  0.53552447147E+03  0.41800000000E+01 0.  1.
</event>
<event>
11    1  0.1003949E-008  0.1426017E+03  0.7561462E-02  0.1104687E+00
         22   -1    0    0    0    0  0.00000000000E+00  0.00000000000E+00  0.10810941705E+03  0.10810941705E+03  0.00000000000E+00 0.  1.
         22   -1    0    0    0    0 -0.00000000000E+00 -0.00000000000E+00 -0.72462026010E+03  0.72462026010E+03  0.00000000000E+00 0. -1.
        -24    2    1    2    0    0 -0.39437560328E+02 -0.80364810698E+01 -0.56809765490E+03  0.57494312905E+03  0.78770235163E+02 0.  0.
         25    2    1    2    0    0  0.66579544795E+02  0.59441658652E+02 -0.35930762477E+02  0.15781332751E+03  0.12509148683E+03 0.  0.
         24    2    1    2    0    0 -0.27141984468E+02 -0.51405177582E+02 -0.12482425682E+02  0.99973220591E+02  0.80371974477E+02 0.  0.
        -11    1    5    5    0    0 -0.11894748041E+02 -0.63641852802E+02 -0.32110975081E+02  0.72269531475E+02  0.00000000000E+00 0.  1.
         12    1    5    5    0    0 -0.15247236427E+02  0.12236675220E+02  0.19628549399E+02  0.27703689115E+02  0.00000000000E+00 0. -1.
         11    1    3    3    0    0 -0.34813879480E+02  0.76733911878E+01 -0.54735724510E+03  0.54851694678E+03  0.00000000000E+00 0. -1.
        -12    1    3    3    0    0 -0.46236808472E+01 -0.15709872258E+02 -0.20740409796E+02  0.26426182271E+02  0.00000000000E+00 0.  1.
          5    1    4    4  501    0 -0.23830246620E+02  0.34313966100E+02 -0.47244335762E+02  0.63204656356E+02  0.41800000000E+01 0.  1.
         -5    1    4    4    0  501  0.90409791415E+02  0.25127692552E+02  0.11313573286E+02  0.94608671152E+02  0.41800000000E+01 0.  1.
</event>
<event>
11    1  0.1003949E-008  0.1383503E+03  0.7561462E-02  0.1109415E+00
         22   -1    0    0    0    0  0.00000000000E+00  0.00000000000E+00  0.13027186868E+04  0.13027186868E+04  0.00000000000E+00 0. -1.
         22   -1    0    0    0    0 -0.00000000000E+00 -0.00000000000E+00 -0.52129466477E+03  0.52129466477E+03  0.00000000000E+00 0.  1.
         24    2    1    2    0    0 -0.40652786899E+02 -0.41014965058E+02 -0.47552813175E+03  0.48665807714E+03  0.85873182784E+02 0.  0.
         25    2    1    2    0    0  0.52193521468E+02  0.91047276054E+02  0.13675373750E+03  0.21298652133E+03  0.12509158000E+03 0.  0.
        -24    2    1    2    0    0 -0.11540734569E+02 -0.50032310996E+02  0.11201984163E+04  0.11243687531E+04  0.82001100179E+02 0.  0.
        -13    1    3    3    0    0 -0.29916649035E+02 -0.90491651808E+01 -0.42353955397E+03  0.42469123732E+03  0.00000000000E+00 0.  1.
         14    1    3    3    0    0 -0.10736137864E+02 -0.31965799877E+02 -0.51988577784E+02  0.61966839826E+02  0.00000000000E+00 0. -1.
         11    1    5    5    0    0  0.23937851150E+02 -0.41954490180E+02  0.89023287528E+03  0.89154235580E+03  0.00000000000E+00 0. -1.
        -12    1    5    5    0    0 -0.35478585719E+02 -0.80778208161E+01  0.22996554099E+03  0.23282639729E+03  0.00000000000E+00 0.  1.
          5    1    4    4  501    0  0.42657747201E+02  0.12098356198E+03  0.91044547816E+02  0.15736355281E+03  0.41800000000E+01 0.  1.
         -5    1    4    4    0  501  0.95357742664E+01 -0.29936285921E+02  0.45709189681E+02  0.55622968520E+02  0.41800000000E+01 0.  1.
</event>
<event>
11    1  0.1003949E-008  0.1287010E+03  0.7561462E-02  0.1120875E+00
         22   -1    0    0    0    0  0.00000000000E+00  0.00000000000E+00  0.87705711011E+02  0.87705711011E+02  0.00000000000E+00 0. -1.
         22   -1    0    0    0    0 -0.00000000000E+00 -0.00000000000E+00 -0.54705666789E+03  0.54705666789E+03  0.00000000000E+00 0. -1.
        -24    2    1    2    0    0 -0.37211894939E+02 -0.49153547752E+01 -0.27275736491E+03  0.28684467505E+03  0.80463666658E+02 0.  0.
         25    2    1    2    0    0  0.12185073644E+02 -0.26043927917E+02 -0.21904895041E+03  0.25388351711E+03  0.12509050877E+03 0.  0.
         24    2    1    2    0    0  0.25026821295E+02  0.30959282692E+02  0.32455358445E+02  0.94034186741E+02  0.78767118871E+02 0.  0.
        -11    1    5    5    0    0  0.95913653884E+01 -0.21340145636E+02 -0.94800959796E+01  0.25244174092E+02  0.00000000000E+00 0.  1.
         12    1    5    5    0    0  0.15435455907E+02  0.52299428328E+02  0.41935454425E+02  0.68790012650E+02  0.00000000000E+00 0. -1.
         11    1    3    3    0    0 -0.14482350379E+02  0.16707667916E+02 -0.24166857176E+03  0.24267794135E+03  0.00000000000E+00 0. -1.
        -12    1    3    3    0    0 -0.22729544560E+02 -0.21623022691E+02 -0.31088793154E+02  0.44166733703E+02  0.00000000000E+00 0.  1.
          5    1    4    4  501    0  0.38844936925E+02 -0.32407693082E+02 -0.22035594398E+03  0.22612696023E+03  0.41800000000E+01 0. -1.
         -5    1    4    4    0  501 -0.26659863281E+02  0.63637651649E+01  0.13069935773E+01  0.27756556873E+02  0.41800000000E+01 0. -1.
</event>
<event>
11    1  0.1003949E-008  0.2553189E+03  0.7561462E-02  0.1021103E+00
         22   -1    0    0    0    0  0.00000000000E+00  0.00000000000E+00  0.24418522792E+03  0.24418522792E+03  0.00000000000E+00 0.  1.
         22   -1    0    0    0    0 -0.00000000000E+00 -0.00000000000E+00 -0.20346437892E+04  0.20346437892E+04  0.00000000000E+00 0.  1.
        -24    2    1    2    0    0  0.11060442088E+01  0.50701465040E+02 -0.16073582566E+04  0.16102411863E+04  0.81879491685E+02 0.  0.
         25    2    1    2    0    0  0.14803171655E+03 -0.20758985595E+03 -0.29756393498E+03  0.41133781304E+03  0.12509022198E+03 0.  0.
         24    2    1    2    0    0 -0.14913776076E+03  0.15688839091E+03  0.11446363034E+03  0.25725001774E+03  0.78864504539E+02 0.  0.
        -11    1    5    5    0    0 -0.69145649417E+02  0.12405532384E+03  0.86873529329E+02  0.16648679919E+03  0.00000000000E+00 0.  1.
         12    1    5    5    0    0 -0.79992111338E+02  0.32833067069E+02  0.27590101006E+02  0.90763218558E+02  0.00000000000E+00 0. -1.
         13    1    3    3    0    0 -0.31216053689E+01 -0.18673333295E+02 -0.14480838675E+03  0.14604077057E+03  0.00000000000E+00 0. -1.
        -14    1    3    3    0    0  0.42276495777E+01  0.69374798335E+02 -0.14625498699E+04  0.14642004158E+04  0.00000000000E+00 0.  1.
          5    1    4    4  501    0  0.15939382631E+03 -0.13876282177E+03 -0.19748176342E+03  0.28927155383E+03  0.41800000000E+01 0.  1.
         -5    1    4    4    0  501 -0.11362109765E+02 -0.68827034175E+02 -0.10008217156E+03  0.12206625920E+03  0.41800000000E+01 0.  1.
</event>
<event>
11    1  0.1003949E-008  0.1625848E+03  0.7561462E-02  0.1084671E+00
         22   -1    0    0    0    0  0.00000000000E+00  0.00000000000E+00  0.65143573721E+03  0.65143573721E+03  0.00000000000E+00 0. -1.
         22   -1    0    0    0    0 -0.00000000000E+00 -0.00000000000E+00 -0.60814416251E+03  0.60814416251E+03  0.00000000000E+00 0.  1.
         24    2    1    2    0    0 -0.10909625908E+03 -0.13630304297E+02 -0.47006005165E+03  0.48916674197E+03  0.78992849998E+02 0.  0.
         25    2    1    2    0    0  0.77622920302E+02 -0.37518040364E+02 -0.77404086864E+02  0.17050670911E+03  0.12509286183E+03 0.  0.
        -24    2    1    2    0    0  0.31473338777E+02  0.51148344661E+02  0.59075571321E+03  0.59990644864E+03  0.85373943363E+02 0.  0.
        -13    1    3    3    0    0 -0.36744352756E+02 -0.35365747813E+02 -0.28066136773E+03  0.28525722938E+03  0.00000000000E+00 0.  1.
         14    1    3    3    0    0 -0.72351906323E+02  0.21735443516E+02 -0.18939868393E+03  0.20390951259E+03  0.00000000000E+00 0. -1.
         11    1    5    5    0    0  0.25951589744E+02  0.98974702476E+01  0.49142287313E+03  0.49220715675E+03  0.00000000000E+00 0. -1.
        -12    1    5    5    0    0  0.55217490334E+01  0.41250874413E+02  0.99332840087E+02  0.10769929188E+03  0.00000000000E+00 0.  1.
          5    1    4    4  501    0  0.48888391874E+01  0.42789534816E+02 -0.26314617002E+02  0.50643622564E+02  0.41800000000E+01 0.  1.
         -5    1    4    4    0  501  0.72734081114E+02 -0.80307575180E+02 -0.51089469862E+02  0.11986308655E+03  0.41800000000E+01 0.  1.
</event>
<event>
11    1  0.1003949E-008  0.1412335E+03  0.7561462E-02  0.1106189E+00
         22   -1    0    0    0    0  0.00000000000E+00  0.00000000000E+00  0.67792324488E+03  0.67792324488E+03  0.00000000000E+00 0. -1.
         22   -1    0    0    0    0 -0.00000000000E+00 -0.00000000000E+00 -0.27760338948E+04  0.27760338948E+04  0.00000000000E+00 0. -1.
        -24    2    1    2    0    0 -0.33104134320E+02  0.36603548070E+02 -0.27318987414E+04  0.27335307319E+04  0.80522203006E+02 0.  0.
         25    2    1    2    0    0  0.79376828205E+02 -0.74564969151E+02  0.14140758100E+03  0.21796452293E+03  0.12510720928E+03 0.  0.
         24    2    1    2    0    0 -0.46272693885E+02  0.37961421082E+02  0.49238051051E+03  0.50246188488E+03  0.80294127631E+02 0.  0.
        -11    1    5    5    0    0 -0.42091842434E+01 -0.21763652714E+02  0.60209961408E+02  0.64160839023E+02  0.00000000000E+00 0.  1.
         12    1    5    5    0    0 -0.42063509641E+02  0.59725073796E+02  0.43217054910E+03  0.43830104585E+03  0.00000000000E+00 0. -1.
         13    1    3    3    0    0  0.29266532198E+01 -0.22995752322E+02 -0.92477555027E+03  0.92506604537E+03  0.00000000000E+00 0. -1.
        -14    1    3    3    0    0 -0.36030787540E+02  0.59599300392E+02 -0.18071231912E+04  0.18084646865E+04  0.00000000000E+00 0.  1.
          5    1    4    4  501    0  0.10318931004E+03 -0.59926618887E+02  0.14676324975E+03  0.18919872419E+03  0.41800000000E+01 0. -1.
         -5    1    4    4    0  501 -0.23812481836E+02 -0.14638350264E+02 -0.53556687508E+01  0.28765798744E+02  0.41800000000E+01 0. -1.
</event>
<event>
11    1  0.1003949E-008  0.1259213E+03  0.7561462E-02  0.1124384E+00
         22   -1    0    0    0    0  0.00000000000E+00  0.00000000000E+00  0.13677549386E+04  0.13677549386E+04  0.00000000000E+00 0. -1.
         22   -1    0    0    0    0 -0.00000000000E+00 -0.00000000000E+00 -0.22472175398E+03  0.22472175398E+03  0.00000000000E+00 0.  1.
         24    2    1    2    0    0 -0.12521337998E+02  0.10281023202E+02 -0.19551768644E+03  0.21269228453E+03  0.82148395284E+02 0.  0.
         25    2    1    2    0    0  0.24982967556E+02 -0.40242599933E+01  0.19519089511E+03  0.23320732938E+03  0.12508329069E+03 0.  0.
        -24    2    1    2    0    0 -0.12461629557E+02 -0.62567632087E+01  0.11433599760E+04  0.11465770787E+04  0.84690751725E+02 0.  0.
        -13    1    3    3    0    0  0.17391885135E+02 -0.29314621892E+01 -0.17078003781E+03  0.17168835853E+03  0.00000000000E+00 0.  1.
         14    1    3    3    0    0 -0.29913223134E+02  0.13212485391E+02 -0.24737648625E+02  0.41003926006E+02  0.00000000000E+00 0. -1.
         13    1    5    5    0    0 -0.27929142446E+02 -0.39911785799E+02  0.67364421723E+03  0.67540322700E+03  0.00000000000E+00 0. -1.
        -14    1    5    5    0    0  0.15467512889E+02  0.33655022590E+02  0.46971575876E+03  0.47117385171E+03  0.00000000000E+00 0.  1.
          5    1    4    4  501    0 -0.13950179202E+01  0.55657468819E+02  0.54293529672E+02  0.77877850989E+02  0.41800000000E+01 0. -1.
         -5    1    4    4    0  501  0.26377985476E+02 -0.59681728812E+02  0.14089736543E+03  0.15532947839E+03  0.41800000000E+01 0. -1.
</event>
<event>
11    1  0.1003949E-008  0.1563449E+03  0.7561462E-02  0.1090566E+00
         22   -1    0    0    0    0  0.00000000000E+00  0.00000000000E+00  0.25238809273E+03  0.25238809273E+03  0.00000000000E+00 0. -1.
         22   -1    0    0    0    0 -0.00000000000E+00 -0.00000000000E+00 -0.25756495822E+03  0.25756495822E+03  0.00000000000E+00 0.  1.
         24    2    1    2    0    0 -0.71781863529E+02  0.51189841221E+02 -0.13789250321E+03  0.18188359220E+03  0.79336390719E+02 0.  0.
         25    2    1    2    0    0  0.14104501848E+03 -0.19088327483E+02  0.73489109176E+02  0.20324036684E+03  0.12509171061E+03 0.  0.
        -24    2    1    2    0    0 -0.69263154948E+02 -0.32101513738E+02  0.59226528550E+02  0.12482909192E+03  0.79035616574E+02 0.  0.
        -11    1    3    3    0    0 -0.27506563460E+02  0.64111876044E+02 -0.10134868751E+03  0.12303861241E+03  0.00000000000E+00 0.  1.
         12    1    3    3    0    0 -0.44275300069E+02 -0.12922034823E+02 -0.36543815698E+02  0.58844979785E+02  0.00000000000E+00 0. -1.
         13    1    5    5    0    0 -0.36815741082E+02  0.33170825885E+01  0.66659765534E+02  0.76222871695E+02  0.00000000000E+00 0. -1.
        -14    1    5    5    0    0 -0.32447413866E+02 -0.35418596326E+02 -0.74332369841E+01  0.48606220223E+02  0.00000000000E+00 0.  1.
          5    1    4    4  501    0  0.14410125398E+03 -0.39174804034E+01  0.97707424932E+02  0.17419739188E+03  0.41800000000E+01 0. -1.
         -5    1    4    4    0  501 -0.30562354990E+01 -0.15170847080E+02 -0.24218315756E+02  0.29042974961E+02  0.41800000000E+01 0. -1.
</event>
<event>
11    1  0.1003949E-008  0.1922048E+03  0.7561462E-02  0.1060177E+00
         22   -1    0    0    0    0  0.00000000000E+00  0.00000000000E+00  0.59752006917E+03  0.59752006917E+03  0.00000000000E+00 0. -1.
         22   -1    0    0    0    0 -0.00000000000E+00 -0.00000000000E+00 -0.81713067509E+03  0.81713067509E+03  0.00000000000E+00 0.  1.
        -24    2    1    2    0    0 -0.33857640681E+02  0.62941800235E+02 -0.64692932262E+03  0.65599296452E+03  0.81860924670E+02 0.  0.
         25    2    1    2    0    0 -0.99976809409E+02 -0.12194075309E+03 -0.86084171279E+02  0.21891390349E+03  0.12509157811E+03 0.  0.
         24    2    1    2    0    0  0.13383445009E+03  0.58998952858E+02  0.51340288798E+03  0.53974387625E+03  0.79676785187E+02 0.  0.
        -13    1    5    5    0    0  0.24559491483E+01  0.32211243480E+02  0.10963978527E+03  0.11429994928E+03  0.00000000000E+00 0.  1.
         14    1    5    5    0    0  0.13137850094E+03  0.26787709378E+02  0.40376310271E+03  0.42544392697E+03  0.00000000000E+00 0. -1.
         11    1    3    3    0    0  0.11538307940E+02  0.22481968642E+02 -0.50479466575E+02  0.56451288823E+02  0.00000000000E+00 0. -1.
        -12    1    3    3    0    0 -0.45395948621E+02  0.40459831593E+02 -0.59644985604E+03  0.59954167570E+03  0.00000000000E+00 0.  1.
          5    1    4    4  501    0  0.10932859898E+02 -0.11872773429E+02 -0.57681423227E+02  0.60042561238E+02  0.41800000000E+01 0. -1.
         -5    1    4    4    0  501 -0.11090966931E+03 -0.11006797966E+03 -0.28402748052E+02  0.15887134226E+03  0.41800000000E+01 0. -1.
</event>
<event>
11    1  0.1003949E-008  0.1618036E+03  0.7561462E-02  0.1085393E+00
         22   -1    0    0    0    0  0.00000000000E+00  0.00000000000E+00  0.42506621103E+03  0.42506621103E+03  0.00000000000E+00 0. -1.
         22   -1    0    0    0    0 -0.00000000000E+00 -0.00000000000E+00 -0.71656385266E+03  0.71656385266E+03  0.00000000000E+00 0.  1.
         24    2    1    2    0    0  0.91596384364E+02  0.40940565565E+02 -0.63268921464E+03  0.64549223407E+03  0.79363432304E+02 0.  0.
         25    2    1    2    0    0 -0.16917212639E+03 -0.19181048968E+02  0.10053857126E+03  0.23397109797E+03  0.12508936560E+03 0.  0.
        -24    2    1    2    0    0  0.77575742022E+02 -0.21759516597E+02  0.24065300175E+03  0.26216673165E+03  0.65772757431E+02 0.  0.
        -13    1    3    3    0    0  0.82323383351E+02  0.60891415511E+02 -0.56822176565E+03  0.57737412384E+03  0.00000000000E+00 0.  1.
         14    1    3    3    0    0  0.92730010125E+01 -0.19950849945E+02 -0.64467448997E+02  0.68118110232E+02  0.00000000000E+00 0. -1.
         11    1    5    5    0    0  0.72382788658E+02 -0.26852898956E+02  0.24264009419E+03  0.25462631754E+03  0.00000000000E+00 0. -1.
        -12    1    5    5    0    0  0.51929533637E+01  0.50933823585E+01 -0.19870924444E+01  0.75404141047E+01  0.00000000000E+00 0.  1.
          5    1    4    4  501    0 -0.13300178743E+03 -0.68121465292E+02  0.80358661564E+02  0.16972034758E+03  0.41800000000E+01 0. -1.
         -5    1    4    4    0  501 -0.36170338952E+02  0.48940416324E+02  0.20179909696E+02  0.64250750386E+02  0.41800000000E+01 0. -1.
</event>
<event>
11    1  0.1003949E-008  0.2364380E+03  0.7561462E-02  0.1031383E+00
         22   -1    0    0    0    0  0.00000000000E+00  0.00000000000E+00  0.17396092669E+04  0.17396092669E+04  0.00000000000E+00 0.  1.
         22   -1    0    0    0    0 -0.00000000000E+00 -0.00000000000E+00 -0.13126978968E+03  0.13126978968E+03  0.00000000000E+00 0.  1.
         24    2    1    2    0    0 -0.29864567177E+02  0.20596055972E+03  0.16213066789E+02  0.22342708323E+03  0.79656471526E+02 0.  0.
         25    2    1    2    0    0  0.40893116504E+02 -0.16888735550E+03  0.41450029173E+03  0.46653322569E+03  0.12509025945E+03 0.  0.
        -24    2    1    2    0    0 -0.11028549327E+02 -0.37073204216E+02  0.11776261187E+04  0.11809187476E+04  0.79181826892E+02 0.  0.
        -11    1    3    3    0    0 -0.18437010404E+02  0.14444115176E+03  0.47900316541E+02  0.15328930165E+03  0.00000000000E+00 0.  1.
         12    1    3    3    0    0 -0.11427556773E+02  0.61519407954E+02 -0.31687249752E+02  0.70137781585E+02  0.00000000000E+00 0. -1.
         11    1    5    5    0    0 -0.93064345937E+01 -0.59849099609E+02  0.65521047998E+03  0.65800402546E+03  0.00000000000E+00 0. -1.
        -12    1    5    5    0    0 -0.17221147333E+01  0.22775895393E+02  0.52241563873E+03  0.52291472219E+03  0.00000000000E+00 0.  1.
          5    1    4    4  501    0  0.68547425228E+02 -0.16202272634E+03  0.29402315656E+03  0.34266193596E+03  0.41800000000E+01 0.  1.
         -5    1    4    4    0  501 -0.27654308724E+02 -0.68646291581E+01  0.12047713516E+03  0.12387128974E+03  0.41800000000E+01 0.  1.
</event>
<event>
11    1  0.1003949E-008  0.1500140E+03  0.7561462E-02  0.1096865E+00
         22   -1    0    0    0    0  0.00000000000E+00  0.00000000000E+00  0.68685306467E+02  0.68685306467E+02  0.00000000000E+00 0.  1.
         22   -1    0    0    0    0 -0.00000000000E+00 -0.00000000000E+00 -0.18237272623E+04  0.18237272623E+04  0.00000000000E+00 0. -1.
        -24    2    1    2    0    0 -0.89872824123E+01 -0.79824288096E+02 -0.14794066373E+04  0.14837220168E+04  0.79588544004E+02 0.  0.
         25    2    1    2    0    0 -0.29795994215E+02  0.11667376314E+03 -0.25637785720E+03  0.30963999572E+03  0.12508698177E+03 0.  0.
         24    2    1    2    0    0  0.38783276627E+02 -0.36849475041E+02 -0.19257461308E+02  0.99050556261E+02  0.81105712023E+02 0.  0.
        -11    1    5    5    0    0  0.46272072900E+02 -0.10438827930E+02  0.19724527060E+02  0.51372471488E+02  0.00000000000E+00 0.  1.
         12    1    5    5    0    0 -0.74887962732E+01 -0.26410647111E+02 -0.38981988368E+02  0.47678084773E+02  0.00000000000E+00 0. -1.
         13    1    3    3    0    0 -0.65446309166E+01 -0.69761796194E+02 -0.14603823188E+04  0.14620622619E+04  0.00000000000E+00 0. -1.
        -14    1    3    3    0    0 -0.24426514957E+01 -0.10062491902E+02 -0.19024318507E+02  0.21659754945E+02  0.00000000000E+00 0.  1.
          5    1    4    4  501    0  0.81319801387E+01  0.95096865656E+02 -0.70681328773E+02  0.11883966339E+03  0.41800000000E+01 0.  1.
         -5    1    4    4    0  501 -0.37927974353E+02  0.21576897482E+02 -0.18569652843E+03  0.19080033232E+03  0.41800000000E+01 0.  1.
</event>
<event>
11    1  0.1003949E-008  0.1308028E+03  0.7561462E-02  0.1118287E+00
         22   -1    0    0    0    0  0.00000000000E+00  0.00000000000E+00  0.42829922559E+03  0.42829922559E+03  0.00000000000E+00 0.  1.
         22   -1    0    0    0    0 -0.00000000000E+00 -0.00000000000E+00 -0.12457167589E+04  0.12457167589E+04  0.00000000000E+00 0.  1.
        -24    2    1    2    0    0 -0.16011778066E+02  0.35808018398E+02 -0.75422131646E+03  0.75956805928E+03  0.80964506193E+02 0.  0.
         25    2    1    2    0    0 -0.34601536975E+01 -0.38633047764E+02 -0.47602270231E+03  0.49371023303E+03  0.12509075120E+03 0.  0.
         24    2    1    2    0    0  0.19471931763E+02  0.28250293660E+01  0.41282648550E+03  0.42073769214E+03  0.78786810726E+02 0.  0.
        -13    1    5    5    0    0  0.50476625193E+01 -0.22205432821E+02  0.35837029057E+03  0.35909305939E+03  0.00000000000E+00 0.  1.
         14    1    5    5    0    0  0.14424269244E+02  0.25030462187E+02  0.54456194931E+02  0.61644632750E+02  0.00000000000E+00 0. -1.
         11    1    3    3    0    0 -0.23312471917E+02 -0.15658751865E+02 -0.12097895293E+03  0.12419571212E+03  0.00000000000E+00 0. -1.
        -12    1    3    3    0    0  0.73006938516E+01  0.51466770262E+02 -0.63324236352E+03  0.63537234716E+03  0.00000000000E+00 0.  1.
          5    1    4    4  501    0  0.12720818959E+02 -0.75311028635E+02 -0.40398844995E+03  0.41116628068E+03  0.41800000000E+01 0. -1.
         -5    1    4    4    0  501 -0.16180972656E+02  0.36677980871E+02 -0.72034252357E+02  0.82543952349E+02  0.41800000000E+01 0. -1.
</event>
<event>
11    1  0.1003949E-008  0.1428290E+03  0.7561462E-02  0.1104440E+00
         22   -1    0    0    0    0  0.00000000000E+00  0.00000000000E+00  0.25619485633E+03  0.25619485633E+03  0.00000000000E+00 0.  1.
         22   -1    0    0    0    0 -0.00000000000E+00 -0.00000000000E+00 -0.84745871396E+03  0.84745871396E+03  0.00000000000E+00 0. -1.
        -24    2    1    2    0    0  0.11840377342E+02  0.13791481772E+02 -0.73513956689E+03  0.74132742936E+03  0.93839092132E+02 0.  0.
         25    2    1    2    0    0 -0.65033757001E+02 -0.53974243029E+02 -0.35366378700E+02  0.15504825698E+03  0.12508626140E+03 0.  0.
         24    2    1    2    0    0  0.53193379658E+02  0.40182761258E+02  0.17924208796E+03  0.20727788394E+03  0.79951267239E+02 0.  0.
        -11    1    5    5    0    0  0.55902683352E+02  0.33524861883E+02  0.18619614942E+03  0.19727653796E+03  0.00000000000E+00 0.  1.
         12    1    5    5    0    0 -0.27093036936E+01  0.66578993750E+01 -0.69540614625E+01  0.10001345980E+02  0.00000000000E+00 0. -1.
         13    1    3    3    0    0  0.52684187118E+02  0.13030244359E+02 -0.38293858310E+03  0.38676526378E+03  0.00000000000E+00 0. -1.
        -14    1    3    3    0    0 -0.40843809776E+02  0.76123741332E+00 -0.35220098379E+03  0.35456216558E+03  0.00000000000E+00 0.  1.
          5    1    4    4  501    0 -0.52281256199E+02 -0.84734547382E+02  0.82736964577E+01  0.99995998534E+02  0.41800000000E+01 0.  1.
         -5    1    4    4    0  501 -0.12752500802E+02  0.30760304352E+02 -0.43640075158E+02  0.55052258449E+02  0.41800000000E+01 0.  1.
</event>
<event>
11    1  0.1003949E-008  0.1574883E+03  0.7561462E-02  0.1089464E+00
         22   -1    0    0    0    0  0.00000000000E+00  0.00000000000E+00  0.12802447912E+03  0.12802447912E+03  0.00000000000E+00 0. -1.
         22   -1    0    0    0    0 -0.00000000000E+00 -0.00000000000E+00 -0.14835458358E+04  0.14835458358E+04  0.00000000000E+00 0.  1.
         24    2    1    2    0    0  0.23348546930E+02 -0.57934517245E+01 -0.12001824980E+04  0.12031780118E+04  0.81366952282E+02 0.  0.
         25    2    1    2    0    0  0.65355579862E+02  0.48083185625E+02 -0.21953084078E+03  0.26537189640E+03  0.12508040929E+03 0.  0.
        -24    2    1    2    0    0 -0.88704126792E+02 -0.42289733901E+02  0.64191982032E+02  0.14302040676E+03  0.81715252487E+02 0.  0.
        -13    1    3    3    0    0 -0.14839222440E+02  0.12659684901E+02 -0.87790846204E+03  0.87812512654E+03  0.00000000000E+00 0.  1.
         14    1    3    3    0    0  0.38187769369E+02 -0.18453136625E+02 -0.32227403593E+03  0.32505288526E+03  0.00000000000E+00 0. -1.
         13    1    5    5    0    0 -0.31095236004E+02  0.29458740588E+00  0.64251373986E+02  0.71380946639E+02  0.00000000000E+00 0. -1.
        -14    1    5    5    0    0 -0.57608890787E+02 -0.42584321306E+02 -0.59391954383E-01  0.71639460120E+02  0.00000000000E+00 0.  1.
          5    1    4    4  501    0  0.40451767734E+02  0.38734933092E+02 -0.13729128668E+02  0.57816104404E+02  0.41800000000E+01 0.  1.
         -5    1    4    4    0  501  0.24903812128E+02  0.93482525332E+01 -0.20580171211E+03  0.20755579200E+03  0.41800000000E+01 0.  1.
</event>
<event>
11    1  0.1003949E-008  0.3150582E+03  0.7561462E-02  0.9940123E-01
         22   -1    0    0    0    0  0.00000000000E+00  0.00000000000E+00  0.13452036335E+04  0.13452036335E+04  0.00000000000E+00 0. -1.
         22   -1    0    0    0    0 -0.00000000000E+00 -0.00000000000E+00 -0.50938644522E+03  0.50938644522E+03  0.00000000000E+00 0.  1.
        -24    2    1    2    0    0 -0.26365620328E+03  0.11470822969E+03 -0.36706548208E+03  0.47304545627E+03  0.79764428647E+02 0.  0.
         25    2    1    2    0    0  0.25901543478E+03 -0.15201973545E+03  0.21556983365E+03  0.39027810302E+03  0.12509056359E+03 0.  0.
         24    2    1    2    0    0  0.46407685033E+01  0.37311505764E+02  0.98731283670E+03  0.99126651943E+03  0.80056166751E+02 0.  0.
        -13    1    5    5    0    0 -0.65201767522E+01  0.75325791723E+01  0.12729929104E+02  0.16164886293E+02  0.00000000000E+00 0.  1.
         14    1    5    5    0    0  0.11160945255E+02  0.29778926592E+02  0.97458290760E+03  0.97510163314E+03  0.00000000000E+00 0. -1.
         13    1    3    3    0    0 -0.11845459799E+03  0.21444251033E+02 -0.10777497349E+03  0.16157596541E+03  0.00000000000E+00 0. -1.
        -14    1    3    3    0    0 -0.14520160529E+03  0.93263978653E+02 -0.25929050858E+03  0.31146949086E+03  0.00000000000E+00 0.  1.
          5    1    4    4  501    0  0.19695467138E+03 -0.49146285451E+02  0.11370338405E+03  0.23270675086E+03  0.41800000000E+01 0. -1.
         -5    1    4    4    0  501  0.62060763404E+02 -0.10287345000E+03  0.10186644960E+03  0.15757135217E+03  0.41800000000E+01 0. -1.
</event>
<event>
11    1  0.1003949E-008  0.1499288E+03  0.7561462E-02  0.1096952E+00
         22   -1    0    0    0    0  0.00000000000E+00  0.00000000000E+00  0.44852719845E+03  0.44852719845E+03  0.00000000000E+00 0. -1.
         22   -1    0    0    0    0 -0.00000000000E+00 -0.00000000000E+00 -0.63698564944E+03  0.63698564944E+03  0.00000000000E+00 0.  1.
        -24    2    1    2    0    0 -0.12390450255E+02 -0.37970876164E+02 -0.55103243518E+03  0.55839766864E+03  0.81091929471E+02 0.  0.
         25    2    1    2    0    0 -0.67879745100E+02  0.58416522825E+02  0.81420945581E+01  0.15405427580E+03  0.12508507607E+03 0.  0.
         24    2    1    2    0    0  0.80270195355E+02 -0.20445646661E+02  0.35443188964E+03  0.37306090345E+03  0.81799416638E+02 0.  0.
        -11    1    5    5    0    0  0.68484212046E+01  0.24027226475E+02  0.40339948682E+02  0.47450183822E+02  0.00000000000E+00 0.  1.
         12    1    5    5    0    0  0.73421774150E+02 -0.44472873136E+02  0.31409194096E+03  0.32561071963E+03  0.00000000000E+00 0. -1.
         13    1    3    3    0    0 -0.13005493043E+02 -0.58896796865E+02 -0.27326064757E+03  0.27983809076E+03  0.00000000000E+00 0. -1.
        -14    1    3    3    0    0  0.61504278827E+00  0.20925920702E+02 -0.27777178761E+03  0.27855957788E+03  0.00000000000E+00 0.  1.
          5    1    4    4  501    0 -0.99058675750E+02  0.68747053348E+02  0.43569936616E+01  0.12072793537E+03  0.41800000000E+01 0.  1.
         -5    1    4    4    0  501  0.31178930651E+02 -0.10330530524E+02  0.37851008965E+01  0.33326340426E+02  0.41800000000E+01 0.  1.
</event>
<event>
11    1  0.1003949E-008  0.2075116E+03  0.7561462E-02  0.1049335E+00
         22   -1    0    0    0    0  0.00000000000E+00  0.00000000000E+00  0.10218745164E+04  0.10218745164E+04  0.00000000000E+00 0. -1.
         22   -1    0    0    0    0 -0.00000000000E+00 -0.00000000000E+00 -0.34512690747E+03  0.34512690747E+03  0.00000000000E+00 0.  1.
         24    2    1    2    0    0 -0.21002977168E+02  0.12702880530E+01 -0.20151426504E+03  0.21793764735E+03  0.80287486170E+02 0.  0.
         25    2    1    2    0    0 -0.14241231685E+03 -0.35414678107E+02 -0.52567528097E+02  0.19986774722E+03  0.12509318109E+03 0.  0.
        -24    2    1    2    0    0  0.16341529402E+03  0.34144390054E+02  0.93082940208E+03  0.94919602932E+03  0.81604709530E+02 0.  0.
        -11    1    3    3    0    0 -0.28013061117E+02 -0.20990310026E+02 -0.18744739147E+03  0.19068783201E+03  0.00000000000E+00 0.  1.
         12    1    3    3    0    0  0.70100839485E+01  0.22260598079E+02 -0.14066873567E+02  0.27249815334E+02  0.00000000000E+00 0. -1.
         13    1    5    5    0    0  0.10295905494E+03  0.58139189451E+02  0.52193591811E+03  0.53516150363E+03  0.00000000000E+00 0. -1.
        -14    1    5    5    0    0  0.60456239075E+02 -0.23994799397E+02  0.40889348396E+03  0.41403452570E+03  0.00000000000E+00 0.  1.
          5    1    4    4  501    0 -0.41096966585E+02  0.32207229940E+02 -0.57634811601E+02  0.77881385652E+02  0.41800000000E+01 0. -1.
         -5    1    4    4    0  501 -0.10131535027E+03 -0.67621908048E+02  0.50672835036E+01  0.12198636157E+03  0.41800000000E+01 0. -1.
</event>
<event>
11    1  0.1003949E-008  0.1549441E+03  0.7561462E-02  0.1091931E+00
         22   -1    0    0    0    0  0.00000000000E+00  0.00000000000E+00  0.30808433638E+03  0.30808433638E+03  0.00000000000E+00 0. -1.
         22   -1    0    0    0    0 -0.00000000000E+00 -0.00000000000E+00 -0.15730606949E+04  0.15730606949E+04  0.00000000000E+00 0.  1.
         24    2    1    2    0    0  0.93407226554E+02  0.47610950218E+01 -0.14194162756E+04  0.14249044362E+04  0.82840272731E+02 0.  0.
         25    2    1    2    0    0 -0.64997687758E+02  0.29448501864E+02 -0.10741849958E+03  0.17966244064E+03  0.12509174573E+03 0.  0.
        -24    2    1    2    0    0 -0.28409538796E+02 -0.34209596886E+02  0.26185841669E+03  0.27657815445E+03  0.77124877386E+02 0.  0.
        -11    1    3    3    0    0  0.91077470294E+02 -0.21918891726E+02 -0.91637158847E+03  0.92114734520E+03  0.00000000000E+00 0.  1.
         12    1    3    3    0    0  0.23297562595E+01  0.26679986748E+02 -0.50304468715E+03  0.50375709100E+03  0.00000000000E+00 0. -1.
         11    1    5    5    0    0 -0.30633135121E+01 -0.20952413765E+02  0.23907112569E+03  0.24000706379E+03  0.00000000000E+00 0. -1.
        -12    1    5    5    0    0 -0.25346225284E+02 -0.13257183122E+02  0.22787291002E+02  0.36571090654E+02  0.00000000000E+00 0.  1.
          5    1    4    4  501    0 -0.82820445938E+02  0.57635472019E+02 -0.10543070266E+03  0.14599376481E+03  0.41800000000E+01 0.  1.
         -5    1    4    4    0  501  0.17822758179E+02 -0.28186970155E+02 -0.19877969205E+01  0.33668675831E+02  0.41800000000E+01 0.  1.
</event>
<event>
11    1  0.1003949E-008  0.1880894E+03  0.7561462E-02  0.1063281E+00
         22   -1    0    0    0    0  0.00000000000E+00  0.00000000000E+00  0.21644239354E+04  0.21644239354E+04  0.00000000000E+00 0.  1.
         22   -1    0    0    0    0 -0.00000000000E+00 -0.00000000000E+00 -0.71329213890E+03  0.71329213890E+03  0.00000000000E+00 0.  1.
         24    2    1    2    0    0  0.81064375502E+02 -0.12478966187E+03 -0.62331394958E+03  0.64588991215E+03  0.80682130587E+02 0.  0.
         25    2    1    2    0    0 -0.36764474363E+02  0.77862706341E+02 -0.28385179907E+01  0.15188604889E+03  0.12508831700E+03 0.  0.
        -24    2    1    2    0    0 -0.44299901138E+02  0.46926955527E+02  0.20772842641E+04  0.20799401133E+04  0.82923703397E+02 0.  0.
        -11    1    3    3    0    0  0.47616418472E+02 -0.91229442887E+02 -0.26205221257E+03  0.28153418384E+03  0.00000000000E+00 0.  1.
         12    1    3    3    0    0  0.33447957030E+02 -0.33560218981E+02 -0.36126173701E+03  0.36435572831E+03  0.00000000000E+00 0. -1.
         13    1    5    5    0    0  0.10722959949E+02 -0.16891099146E+02  0.51006686718E+03  0.51045910717E+03  0.00000000000E+00 0. -1.
        -14    1    5    5    0    0 -0.55022861087E+02  0.63818054673E+02  0.15672173969E+04  0.15694810061E+04  0.00000000000E+00 0.  1.
          5    1    4    4  501    0 -0.13601643386E+02 -0.23733107953E+02 -0.33247287245E+02  0.43256440273E+02  0.41800000000E+01 0. -1.
         -5    1    4    4    0  501 -0.23162830977E+02  0.10159581429E+03  0.30408769255E+02  0.10862960862E+03  0.41800000000E+01 0. -1.
</event>
<event>
11    1  0.1003949E-008  0.1383928E+03  0.7561462E-02  0.1109367E+00
         22   -1    0    0    0    0  0.00000000000E+00  0.00000000000E+00  0.33305868974E+03  0.33305868974E+03  0.00000000000E+00 0. -1.
         22   -1    0    0    0    0 -0.00000000000E+00 -0.00000000000E+00 -0.87694462612E+03  0.87694462612E+03  0.00000000000E+00 0.  1.
        -24    2    1    2    0    0 -0.21942482448E+02  0.54914717895E+02 -0.80221500288E+03  0.80958840934E+03  0.91582656170E+02 0.  0.
         25    2    1    2    0    0 -0.16590001015E+01 -0.65771874957E+02  0.15088150676E+02  0.14213876469E+03  0.12508830609E+03 0.  0.
         24    2    1    2    0    0  0.23601482550E+02  0.10857157061E+02  0.24324091583E+03  0.25827614182E+03  0.82858400066E+02 0.  0.
        -11    1    5    5    0    0  0.25207540567E+02 -0.21416997100E+02  0.37460319418E+02  0.49973827121E+02  0.00000000000E+00 0.  1.
         12    1    5    5    0    0 -0.16060580173E+01  0.32274154162E+02  0.20578059641E+03  0.20830231470E+03  0.00000000000E+00 0. -1.
         13    1    3    3    0    0 -0.38730044993E+02 -0.47519806564E+01 -0.17392896598E+03  0.17825230128E+03  0.00000000000E+00 0. -1.
        -14    1    3    3    0    0  0.16787562545E+02  0.59666698552E+02 -0.62828603690E+03  0.63133610806E+03  0.00000000000E+00 0.  1.
          5    1    4    4  501    0  0.39825439990E+02 -0.49818823405E+02 -0.36748396176E+02  0.73728541674E+02  0.41800000000E+01 0.  1.
         -5    1    4    4    0  501 -0.41484440092E+02 -0.15953051552E+02  0.51836546852E+02  0.68410223016E+02  0.41800000000E+01 0.  1.
</event>
<event>
11    1  0.1003949E-008  0.1409943E+03  0.7561462E-02  0.1106453E+00
         22   -1    0    0    0    0  0.00000000000E+00  0.00000000000E+00  0.13840917849E+03  0.13840917849E+03  0.00000000000E+00 0. -1.
         22   -1    0    0    0    0 -0.00000000000E+00 -0.00000000000E+00 -0.16018621753E+04  0.16018621753E+04  0.00000000000E+00 0.  1.
        -24    2    1    2    0    0 -0.16907375282E+02  0.62252046584E+02 -0.14859813570E+04  0.14896442542E+04  0.82086747712E+02 0.  0.
         25    2    1    2    0    0  0.12009395714E+02 -0.83962853170E+02 -0.27050045120E+02  0.15353211655E+03  0.12508564895E+03 0.  0.
         24    2    1    2    0    0  0.48979795685E+01  0.21710806586E+02  0.49578405362E+02  0.97094982972E+02  0.80461594028E+02 0.  0.
        -11    1    5    5    0    0 -0.13170294972E+02 -0.57029262190E+01 -0.17368210160E+02  0.22530751458E+02  0.00000000000E+00 0.  1.
         12    1    5    5    0    0  0.18068274540E+02  0.27413732805E+02  0.66946615523E+02  0.74564231513E+02  0.00000000000E+00 0. -1.
         13    1    3    3    0    0 -0.39045547421E+02  0.12487742526E+02 -0.95436586020E+03  0.95524588123E+03  0.00000000000E+00 0. -1.
        -14    1    3    3    0    0  0.22138172139E+02  0.49764304058E+02 -0.53161549681E+03  0.53439837301E+03  0.00000000000E+00 0.  1.
          5    1    4    4  501    0  0.82320248002E+01 -0.10572163405E+03  0.13689878064E+02  0.10700334247E+03  0.41800000000E+01 0. -1.
         -5    1    4    4    0  501  0.37773709136E+01  0.21758780878E+02 -0.40739923184E+02  0.46528774080E+02  0.41800000000E+01 0. -1.
</event>
<event>
11    1  0.1003949E-008  0.1814372E+03  0.7561462E-02  0.1068486E+00
         22   -1    0    0    0    0  0.00000000000E+00  0.00000000000E+00  0.16302725913E+04  0.16302725913E+04  0.00000000000E+00 0.  1.
         22   -1    0    0    0    0 -0.00000000000E+00 -0.00000000000E+00 -0.46324200588E+03  0.46324200588E+03  0.00000000000E+00 0.  1.
        -24    2    1    2    0    0 -0.43042585292E+02 -0.78383562564E+02 -0.40520891636E+03  0.42280797739E+03  0.81090522377E+02 0.  0.
         25    2    1    2    0    0  0.11150080010E+03  0.18148520779E+03  0.29399217977E+03  0.38398838643E+03  0.12508545110E+03 0.  0.
         24    2    1    2    0    0 -0.68458214811E+02 -0.10310164522E+03  0.12782473220E+04  0.12867182334E+04  0.80069466167E+02 0.  0.
        -11    1    5    5    0    0 -0.72994224553E+02 -0.10958297912E+03  0.10348987153E+04  0.10432410733E+04  0.00000000000E+00 0.  1.
         12    1    5    5    0    0  0.45360097425E+01  0.64813338981E+01  0.24334860675E+03  0.24347716008E+03  0.00000000000E+00 0. -1.
         13    1    3    3    0    0  0.14696277162E+01 -0.28198310993E+02 -0.28304704565E+02  0.39980755984E+02  0.00000000000E+00 0. -1.
        -14    1    3    3    0    0 -0.44512213009E+02 -0.50185251571E+02 -0.37690421179E+03  0.38282722141E+03  0.00000000000E+00 0.  1.
          5    1    4    4  501    0  0.97916482378E+02  0.45096062080E+02  0.10550662223E+03  0.15089868147E+03  0.41800000000E+01 0. -1.
         -5    1    4    4    0  501  0.13584317726E+02  0.13638914571E+03  0.18848555754E+03  0.23308970495E+03  0.41800000000E+01 0. -1.
</event>
<event>
11    1  0.1003949E-008  0.1448138E+03  0.7561462E-02  0.1102299E+00
         22   -1    0    0    0    0  0.00000000000E+00  0.00000000000E+00  0.60442008353E+03  0.60442008353E+03  0.00000000000E+00 0. -1.
         22   -1    0    0    0    0 -0.00000000000E+00 -0.00000000000E+00 -0.11483234750E+04  0.11483234750E+04  0.00000000000E+00 0.  1.
        -24    2    1    2    0    0 -0.67810090351E+02 -0.25154987222E+02 -0.10652046628E+04  0.10708186309E+04  0.82222776216E+02 0.  0.
         25    2    1    2    0    0  0.78880917571E+02  0.48418114711E+02  0.19609130302E+01  0.15562045534E+03  0.12508943981E+03 0.  0.
         24    2    1    2    0    0 -0.11070827220E+02 -0.23263127489E+02  0.51934035834E+03  0.52630447222E+03  0.81352648158E+02 0.  0.
        -13    1    5    5    0    0 -0.83655928579E+01 -0.39710152496E+02  0.12116552630E+03  0.12778092236E+03  0.00000000000E+00 0.  1.
         14    1    5    5    0    0 -0.27052343619E+01  0.16447025008E+02  0.39817483204E+03  0.39852354987E+03  0.00000000000E+00 0. -1.
         11    1    3    3    0    0 -0.28005108289E+02  0.18154475079E+02 -0.14741254815E+03  0.15114341007E+03  0.00000000000E+00 0. -1.
        -12    1    3    3    0    0 -0.39804982062E+02 -0.43309462301E+02 -0.91779211466E+03  0.91967522085E+03  0.00000000000E+00 0.  1.
          5    1    4    4  501    0 -0.11786642154E+02 -0.27640861450E+02  0.19273360425E+02  0.35942690175E+02  0.41800000000E+01 0.  1.
         -5    1    4    4    0  501  0.90667559725E+02  0.76058976160E+02 -0.17312447395E+02  0.11967776517E+03  0.41800000000E+01 0.  1.
</event>
<event>
11    1  0.1003949E-008  0.1548900E+03  0.7561462E-02  0.1091984E+00
         22   -1    0    0    0    0  0.00000000000E+00  0.00000000000E+00  0.14763636346E+04  0.14763636346E+04  0.00000000000E+00 0.  1.
         22   -1    0    0    0    0 -0.00000000000E+00 -0.00000000000E+00 -0.22737886802E+04  0.22737886802E+04  0.00000000000E+00 0. -1.
         24    2    1    2    0    0  0.35270917073E+02  0.84245835974E+02 -0.22564072322E+04  0.22596620628E+04  0.79734821289E+02 0.  0.
         25    2    1    2    0    0 -0.21075340661E+02 -0.10854248254E+03  0.48925063496E+03  0.51694425691E+03  0.12505814823E+03 0.  0.
        -24    2    1    2    0    0 -0.14195576411E+02  0.24296646562E+02  0.96973155168E+03  0.97354599506E+03  0.81367565741E+02 0.  0.
        -13    1    3    3    0    0  0.51858770213E+02  0.53958856714E+02 -0.10067622375E+04  0.10095400403E+04  0.00000000000E+00 0.  1.
         14    1    3    3    0    0 -0.16587853140E+02  0.30286979260E+02 -0.12496449948E+04  0.12501220224E+04  0.00000000000E+00 0. -1.
         13    1    5    5    0    0  0.26066174525E+02  0.30913790118E+02  0.32173143933E+03  0.32426258947E+03  0.00000000000E+00 0. -1.
        -14    1    5    5    0    0 -0.40261750937E+02 -0.66171435557E+01  0.64800011235E+03  0.64928340559E+03  0.00000000000E+00 0.  1.
          5    1    4    4  501    0  0.63254845705E+01 -0.10116720290E+03  0.47345060541E+03  0.48419806160E+03  0.41800000000E+01 0.  1.
         -5    1    4    4    0  501 -0.27400825232E+02 -0.73752796406E+01  0.15800029555E+02  0.32746195307E+02  0.41800000000E+01 0.  1.
</event>
<event>
11    1  0.1003949E-008  0.1362838E+03  0.7561462E-02  0.1111781E+00
         22   -1    0    0    0    0  0.00000000000E+00  0.00000000000E+00  0.69252645492E+03  0.69252645492E+03  0.00000000000E+00 0.  1.
         22   -1    0    0    0    0 -0.00000000000E+00 -0.00000000000E+00 -0.96763152011E+03  0.96763152011E+03  0.00000000000E+00 0. -1.
         24    2    1    2    0    0 -0.10348837593E+01  0.20185163030E+02 -0.80391089181E+03  0.80820413572E+03  0.80701246833E+02 0.  0.
         25    2    1    2    0    0  0.51836584993E+02 -0.12275679244E+01 -0.12905644181E+03  0.18705973861E+03  0.12508893705E+03 0.  0.
        -24    2    1    2    0    0 -0.50801701234E+02 -0.18957595105E+02  0.65786226842E+03  0.66489410070E+03  0.79757116756E+02 0.  0.
        -13    1    3    3    0    0  0.38538653425E+02  0.32566896375E+01 -0.30556898397E+03  0.30800687947E+03  0.00000000000E+00 0.  1.
         14    1    3    3    0    0 -0.39573537185E+02  0.16928473392E+02 -0.49834190784E+03  0.50019725625E+03  0.00000000000E+00 0. -1.
         11    1    5    5    0    0 -0.27786858511E+02 -0.45973815168E+02  0.26238289485E+03  0.26782547432E+03  0.00000000000E+00 0. -1.
        -12    1    5    5    0    0 -0.23014842723E+02  0.27016220063E+02  0.39547937357E+03  0.39706862637E+03  0.00000000000E+00 0.  1.
          5    1    4    4  501    0  0.19200928280E+02 -0.26768725624E+02 -0.14008914430E+03  0.14397111192E+03  0.41800000000E+01 0.  1.
         -5    1    4    4    0  501  0.32635656713E+02  0.25541157699E+02  0.11032702491E+02  0.43088626689E+02  0.41800000000E+01 0.  1.
</event>
<event>
11    1  0.1003949E-008  0.1308872E+03  0.7561462E-02  0.1118184E+00
         22   -1    0    0    0    0  0.00000000000E+00  0.00000000000E+00  0.35677499846E+03  0.35677499846E+03  0.00000000000E+00 0.  1.
         22   -1    0    0    0    0 -0.00000000000E+00 -0.00000000000E+00 -0.45744536495E+03  0.45744536495E+03  0.00000000000E+00 0. -1.
        -24    2    1    2    0    0  0.43310768981E+02  0.97269623203E+01 -0.24797814868E+03  0.26444342333E+03  0.80415952474E+02 0.  0.
         25    2    1    2    0    0 -0.25877145908E+02  0.25200720334E+02 -0.17327549899E+03  0.21674102598E+03  0.12509025064E+03 0.  0.
         24    2    1    2    0    0 -0.17433623073E+02 -0.34927682654E+02  0.32058328119E+03  0.33303591410E+03  0.81335144146E+02 0.  0.
        -13    1    5    5    0    0 -0.34614165614E+02 -0.41176604261E+01  0.26445546567E+03  0.26674292664E+03  0.00000000000E+00 0.  1.
         14    1    5    5    0    0  0.17180542541E+02 -0.30810022228E+02  0.56127815520E+02  0.66292987463E+02  0.00000000000E+00 0. -1.
         13    1    3    3    0    0  0.45433168545E+02 -0.28409274382E+02 -0.14999874607E+03  0.15928240172E+03  0.00000000000E+00 0. -1.
        -14    1    3    3    0    0 -0.21223995632E+01  0.38136236702E+02 -0.97979402614E+02  0.10516102161E+03  0.00000000000E+00 0.  1.
          5    1    4    4  501    0  0.23401624089E+02  0.19642832045E+02  0.53624689092E+01  0.31300244944E+02  0.41800000000E+01 0.  1.
         -5    1    4    4    0  501 -0.49278769997E+02  0.55578882891E+01 -0.17863796790E+03  0.18544078103E+03  0.41800000000E+01 0.  1.
</event>
<event>
11    1  0.1003949E-008  0.1416516E+03  0.7561462E-02  0.1105728E+00
         22   -1    0    0    0    0  0.00000000000E+00  0.00000000000E+00  0.11299938103E+03  0.11299938103E+03  0.00000000000E+00 0. -1.
         22   -1    0    0    0    0 -0.00000000000E+00 -0.00000000000E+00 -0.17031080622E+04  0.17031080622E+04  0.00000000000E+00 0. -1.
         24    2    1    2    0    0  0.28286937232E+02 -0.58511208542E+02 -0.14360641027E+04  0.14398897750E+04  0.82333132269E+02 0.  0.
         25    2    1    2    0    0 -0.16849989411E+02  0.85828300323E+02 -0.22056381630E+03  0.26822752308E+03  0.12508871970E+03 0.  0.
        -24    2    1    2    0    0 -0.11436947821E+02 -0.27317091781E+02  0.66519237770E+02  0.10799014523E+03  0.79749828807E+02 0.  0.
        -13    1    3    3    0    0 -0.22344039348E+02  0.63396595040E+00 -0.17455438250E+03  0.17597980127E+03  0.00000000000E+00 0.  1.
         14    1    3    3    0    0  0.50630976579E+02 -0.59145174492E+02 -0.12615097202E+04  0.12639099737E+04  0.00000000000E+00 0. -1.
         13    1    5    5    0    0  0.59688720613E+01 -0.37648613163E+02 -0.35427847183E+00  0.38120480323E+02  0.00000000000E+00 0. -1.
        -14    1    5    5    0    0 -0.17405819882E+02  0.10331521383E+02  0.66873516242E+02  0.69869664909E+02  0.00000000000E+00 0.  1.
          5    1    4    4  501    0 -0.32390452349E+02  0.21838215268E+02 -0.13631783483E+01  0.39311317769E+02  0.41800000000E+01 0.  1.
         -5    1    4    4    0  501  0.15540462939E+02  0.63990085055E+02 -0.21920063795E+03  0.22891620531E+03  0.41800000000E+01 0.  1.
</event>
<event>
11    1  0.1003949E-008  0.1533248E+03  0.7561462E-02  0.1093529E+00
         22   -1    0    0    0    0  0.00000000000E+00  0.00000000000E+00  0.72086781228E+03  0.72086781228E+03  0.00000000000E+00 0. -1.
         22   -1    0    0    0    0 -0.00000000000E+00 -0.00000000000E+00 -0.31096088073E+03  0.31096088073E+03  0.00000000000E+00 0. -1.
         24    2    1    2    0    0 -0.86550622295E+02 -0.66876727140E+01 -0.25261054765E+03  0.27929793263E+03  0.81605828237E+02 0.  0.
         25    2    1    2    0    0  0.11044556446E+03  0.51954223594E+02  0.14725468408E+03  0.22853499318E+03  0.12508731778E+03 0.  0.
        -24    2    1    2    0    0 -0.23894942161E+02 -0.45266550880E+02  0.51526279512E+03  0.52399576719E+03  0.80347912870E+02 0.  0.
        -13    1    3    3    0    0 -0.82204005409E+01  0.26286837385E+02 -0.28591936065E+02  0.39699768422E+02  0.00000000000E+00 0.  1.
         14    1    3    3    0    0 -0.78330221754E+02 -0.32974510099E+02 -0.22401861159E+03  0.23959816421E+03  0.00000000000E+00 0. -1.
         13    1    5    5    0    0 -0.25113623847E+02  0.11423807232E+02  0.30420651647E+03  0.30545507385E+03  0.00000000000E+00 0. -1.
        -14    1    5    5    0    0  0.12186816857E+01 -0.56690358111E+02  0.21105627865E+03  0.21854069334E+03  0.00000000000E+00 0.  1.
          5    1    4    4  501    0  0.19415209749E+01  0.64990689679E+02  0.49105327309E+02  0.81586548026E+02  0.41800000000E+01 0. -1.
         -5    1    4    4    0  501  0.10850404348E+03 -0.13036466085E+02  0.98149356771E+02  0.14694844516E+03  0.41800000000E+01 0. -1.
</event>
<event>
11    1  0.1003949E-008  0.5721719E+03  0.7561462E-02  0.9245299E-01
         22   -1    0    0    0    0  0.00000000000E+00  0.00000000000E+00  0.29744428054E+03  0.29744428054E+03  0.00000000000E+00 0. -1.
         22   -1    0    0    0    0 -0.00000000000E+00 -0.00000000000E+00 -0.13954207858E+04  0.13954207858E+04  0.00000000000E+00 0.  1.
        -24    2    1    2    0    0 -0.33934381321E+03  0.43221092860E+03 -0.66157476903E+03  0.86368697357E+03  0.79457554313E+02 0.  0.
         25    2    1    2    0    0  0.39833211523E+03 -0.41202756484E+03 -0.42911782560E+03  0.72679255842E+03  0.12510046567E+03 0.  0.
         24    2    1    2    0    0 -0.58988302020E+02 -0.20183363757E+02 -0.72839106154E+01  0.10238553433E+03  0.80887294053E+02 0.  0.
        -13    1    5    5    0    0 -0.50173378070E+02 -0.50119985063E+02 -0.49040567680E+01  0.71087485132E+02  0.00000000000E+00 0.  1.
         14    1    5    5    0    0 -0.88149239503E+01  0.29936621306E+02 -0.23798538474E+01  0.31298049201E+02  0.00000000000E+00 0. -1.
         13    1    3    3    0    0 -0.96216047356E+02  0.11010126185E+03 -0.12553615611E+03  0.19271518394E+03  0.00000000000E+00 0. -1.
        -14    1    3    3    0    0 -0.24312776585E+03  0.32210966675E+03 -0.53603861292E+03  0.67097178963E+03  0.00000000000E+00 0.  1.
          5    1    4    4  501    0  0.28061306161E+03 -0.25902975144E+03 -0.21422035767E+03  0.43789032476E+03  0.41800000000E+01 0. -1.
         -5    1    4    4    0  501  0.11771905362E+03 -0.15299781341E+03 -0.21489746793E+03  0.28890223366E+03  0.41800000000E+01 0. -1.
</event>
<event>
11    1  0.1003949E-008  0.5353225E+03  0.7561462E-02  0.9317881E-01
         22   -1    0    0    0    0  0.00000000000E+00  0.00000000000E+00  0.75736847038E+03  0.75736847038E+03  0.00000000000E+00 0.  1.
         22   -1    0    0    0    0 -0.00000000000E+00 -0.00000000000E+00 -0.78684244258E+03  0.78684244258E+03  0.00000000000E+00 0.  1.
         24    2    1    2    0    0  0.23506654719E+03  0.14453680672E+03 -0.28288375491E+03  0.40340824919E+03  0.81042128660E+02 0.  0.
         25    2    1    2    0    0 -0.29157679791E+03 -0.58276552016E+03  0.15897316343E+03  0.68231355667E+03  0.12508653952E+03 0.  0.
        -24    2    1    2    0    0  0.56510250724E+02  0.43822871344E+03  0.94436619283E+02  0.45848910709E+03  0.77821414443E+02 0.  0.
        -11    1    3    3    0    0  0.15523498127E+03  0.13324182965E+03 -0.22535398886E+03  0.30436114218E+03  0.00000000000E+00 0.  1.
         12    1    3    3    0    0  0.79831565916E+02  0.11294977074E+02 -0.57529766051E+02  0.99047107002E+02  0.00000000000E+00 0. -1.
         11    1    5    5    0    0 -0.93091643808E+01  0.22393813507E+03  0.38091118041E+02  0.22734529279E+03  0.00000000000E+00 0. -1.
        -12    1    5    5    0    0  0.65819415104E+02  0.21429057837E+03  0.56345501242E+02  0.23114381431E+03  0.00000000000E+00 0.  1.
          5    1    4    4  501    0 -0.12904037258E+03 -0.37556413520E+03  0.12728725107E+03  0.41703639420E+03  0.41800000000E+01 0.  1.
         -5    1    4    4    0  501 -0.16253642533E+03 -0.20720138496E+03  0.31685912361E+02  0.26527716247E+03  0.41800000000E+01 0.  1.
</event>
<event>
11    1  0.1003949E-008  0.2124258E+03  0.7561462E-02  0.1046069E+00
         22   -1    0    0    0    0  0.00000000000E+00  0.00000000000E+00  0.13328024225E+04  0.13328024225E+04  0.00000000000E+00 0.  1.
         22   -1    0    0    0    0 -0.00000000000E+00 -0.00000000000E+00 -0.81408921099E+02  0.81408921099E+02  0.00000000000E+00 0. -1.
         24    2    1    2    0    0  0.26571629849E+02 -0.18826556792E+02  0.79723724170E+02  0.12324753335E+03  0.88167973369E+02 0.  0.
         25    2    1    2    0    0  0.39653899254E+02  0.17603678770E+03  0.18586017355E+03  0.28767121983E+03  0.12509733913E+03 0.  0.
        -24    2    1    2    0    0 -0.66225529103E+02 -0.15721023091E+03  0.98580960365E+03  0.10032925904E+04  0.75329740920E+02 0.  0.
        -13    1    3    3    0    0  0.43509155362E+02  0.20593615728E+02  0.26721597836E+02  0.55056220356E+02  0.00000000000E+00 0.  1.
         14    1    3    3    0    0 -0.16937525512E+02 -0.39420172520E+02  0.53002126334E+02  0.68191312995E+02  0.00000000000E+00 0. -1.
         11    1    5    5    0    0 -0.16850770975E+02  0.44034168078E+01  0.84019581487E+02  0.85805761084E+02  0.00000000000E+00 0. -1.
        -12    1    5    5    0    0 -0.49374758128E+02 -0.16161364772E+03  0.90179002216E+03  0.91748682930E+03  0.00000000000E+00 0.  1.
          5    1    4    4  501    0  0.13060376796E+02 -0.23748399174E+01  0.74178494201E+02  0.75472741494E+02  0.41800000000E+01 0. -1.
         -5    1    4    4    0  501  0.26593522458E+02  0.17841162762E+03  0.11168167935E+03  0.21219847834E+03  0.41800000000E+01 0. -1.
</event>
<event>
11    1  0.1003949E-008  0.2606509E+03  0.7561462E-02  0.1018373E+00
         22   -1    0    0    0    0  0.00000000000E+00  0.00000000000E+00  0.96336004000E+03  0.96336004000E+03  0.00000000000E+00 0.  1.
         22   -1    0    0    0    0 -0.00000000000E+00 -0.00000000000E+00 -0.37845620105E+03  0.37845620105E+03  0.00000000000E+00 0. -1.
         24    2    1    2    0    0  0.63216970430E+02  0.72242996129E+02 -0.23593642070E+03  0.26737583171E+03  0.81292096349E+02 0.  0.
         25    2    1    2    0    0  0.12257530608E+03  0.84492284227E+02 -0.19646929543E+02  0.19544188796E+03  0.12509147841E+03 0.  0.
        -24    2    1    2    0    0 -0.18579227651E+03 -0.15673528036E+03  0.84048718919E+03  0.87899852138E+03  0.84468735483E+02 0.  0.
        -11    1    3    3    0    0  0.12789385244E+02  0.57418519651E+02 -0.61125362638E+02  0.84833747598E+02  0.00000000000E+00 0.  1.
         12    1    3    3    0    0  0.50427585186E+02  0.14824476477E+02 -0.17481105806E+03  0.18254208411E+03  0.00000000000E+00 0. -1.
         11    1    5    5    0    0 -0.55003222620E+02 -0.71728209531E+02  0.44035785647E+03  0.44953902200E+03  0.00000000000E+00 0. -1.
        -12    1    5    5    0    0 -0.13078905389E+03 -0.85007070825E+02  0.40012933272E+03  0.42945949938E+03  0.00000000000E+00 0.  1.
          5    1    4    4  501    0  0.90881499695E+02  0.42836109895E+02 -0.70133279375E+02  0.12259905617E+03  0.41800000000E+01 0.  1.
         -5    1    4    4    0  501  0.31693806389E+02  0.41656174332E+02  0.50486349831E+02  0.72842831786E+02  0.41800000000E+01 0.  1.
</event>
<event>
11    1  0.1003949E-008  0.1581552E+03  0.7561462E-02  0.1088825E+00
         22   -1    0    0    0    0  0.00000000000E+00  0.00000000000E+00  0.32418517181E+03  0.32418517181E+03  0.00000000000E+00 0. -1.
         22   -1    0    0    0    0 -0.00000000000E+00 -0.00000000000E+00 -0.10744005669E+04  0.10744005669E+04  0.00000000000E+00 0. -1.
        -24    2    1    2    0    0  0.24908961160E+02  0.96116931104E+02 -0.94433129961E+03  0.95277316445E+03  0.78461319641E+02 0.  0.
         25    2    1    2    0    0 -0.38545167098E+01 -0.71865543015E+02 -0.75152550505E+02  0.16271376303E+03  0.12509336217E+03 0.  0.
         24    2    1    2    0    0 -0.21054444450E+02 -0.24251388089E+02  0.26926845500E+03  0.28309881125E+03  0.81289707950E+02 0.  0.
        -13    1    5    5    0    0 -0.10166198348E+02  0.78715317829E+01  0.12224685709E+01  0.12915379626E+02  0.00000000000E+00 0.  1.
         14    1    5    5    0    0 -0.10888246102E+02 -0.32122919872E+02  0.26804598643E+03  0.27018343163E+03  0.00000000000E+00 0. -1.
         11    1    3    3    0    0 -0.64759312855E+01  0.78557456757E+02 -0.80593801958E+03  0.80978349149E+03  0.00000000000E+00 0. -1.
        -12    1    3    3    0    0  0.31384892446E+02  0.17559474347E+02 -0.13839328003E+03  0.14298967295E+03  0.00000000000E+00 0.  1.
          5    1    4    4  501    0  0.23743221808E+02  0.18885069809E+02 -0.58901140577E+02  0.66386769802E+02  0.41800000000E+01 0.  1.
         -5    1    4    4    0  501 -0.27597738518E+02 -0.90750612823E+02 -0.16251409928E+02  0.96326993225E+02  0.41800000000E+01 0.  1.
</event>
<event>
11    1  0.1003949E-008  0.2436563E+03  0.7561462E-02  0.1027334E+00
         22   -1    0    0    0    0  0.00000000000E+00  0.00000000000E+00  0.74219785669E+03  0.74219785669E+03  0.00000000000E+00 0. -1.
         22   -1    0    0    0    0 -0.00000000000E+00 -0.00000000000E+00 -0.24344604180E+04  0.24344604180E+04  0.00000000000E+00 0. -1.
        -24    2    1    2    0    0 -0.10886979890E+03 -0.18061715980E+03 -0.23713656094E+04  0.23820950497E+04  0.80788493535E+02 0.  0.
         25    2    1    2    0    0  0.10526863184E+03  0.10881251189E+03  0.13121412831E+03  0.23619072003E+03  0.12508901296E+03 0.  0.
         24    2    1    2    0    0  0.36011670611E+01  0.71804647911E+02  0.54788891982E+03  0.55837250494E+03  0.80179236364E+02 0.  0.
        -11    1    5    5    0    0 -0.53775296012E+01 -0.15040983236E+02  0.40674081415E+02  0.43698168157E+02  0.00000000000E+00 0.  1.
         12    1    5    5    0    0  0.89786966623E+01  0.86845631147E+02  0.50721483841E+03  0.51467433678E+03  0.00000000000E+00 0. -1.
         13    1    3    3    0    0 -0.62371587029E+02 -0.38901540156E+02 -0.98176859546E+03  0.98451669347E+03  0.00000000000E+00 0. -1.
        -14    1    3    3    0    0 -0.46498211874E+02 -0.14171561965E+03 -0.13895970139E+04  0.13975783562E+04  0.00000000000E+00 0.  1.
          5    1    4    4  501    0  0.81030980179E+02  0.54621689549E+00  0.79916845003E+02  0.11388807057E+03  0.41800000000E+01 0.  1.
         -5    1    4    4    0  501  0.24237651663E+02  0.10826629500E+03  0.51297283307E+02  0.12230264946E+03  0.41800000000E+01 0.  1.
</event>
<event>
11    1  0.1003949E-008  0.1289023E+03  0.7561462E-02  0.1120625E+00
         22   -1    0    0    0    0  0.00000000000E+00  0.00000000000E+00  0.53652606966E+03  0.53652606966E+03  0.00000000000E+00 0.  1.
         22   -1    0    0    0    0 -0.00000000000E+00 -0.00000000000E+00 -0.49997852001E+03  0.49997852001E+03  0.00000000000E+00 0. -1.
        -24    2    1    2    0    0 -0.27068499708E+02  0.19171038046E+00 -0.39390092724E+03  0.39911871916E+03  0.58352986876E+02 0.  0.
         25    2    1    2    0    0  0.42444369483E+02  0.26297316846E+02 -0.54227812368E+02  0.14519163211E+03  0.12508749349E+03 0.  0.
         24    2    1    2    0    0 -0.15375869775E+02 -0.26489027227E+02  0.48467628926E+03  0.49219423840E+03  0.80037347570E+02 0.  0.
        -11    1    5    5    0    0 -0.58477898735E+00 -0.39633608862E+02  0.45375786415E+03  0.45548585510E+03  0.00000000000E+00 0.  1.
         12    1    5    5    0    0 -0.14791090788E+02  0.13144581635E+02  0.30918425110E+02  0.36708383298E+02  0.00000000000E+00 0. -1.
         13    1    3    3    0    0 -0.39801237051E+02 -0.16457140315E+02 -0.28231285388E+03  0.28557927692E+03  0.00000000000E+00 0. -1.
        -14    1    3    3    0    0  0.12732737343E+02  0.16648850696E+02 -0.11158807336E+03  0.11353944225E+03  0.00000000000E+00 0.  1.
          5    1    4    4  501    0  0.39893222903E+02  0.55715816427E+02 -0.80251812397E+02  0.10561035568E+03  0.41800000000E+01 0.  1.
         -5    1    4    4    0  501  0.25511465805E+01 -0.29418499580E+02  0.26024000029E+02  0.39581276432E+02  0.41800000000E+01 0.  1.
</event>
<event>
11    1  0.1003949E-008  0.1347175E+03  0.7561462E-02  0.1113605E+00
         22   -1    0    0    0    0  0.00000000000E+00  0.00000000000E+00  0.19218997346E+03  0.19218997346E+03  0.00000000000E+00 0.  1.
         22   -1    0    0    0    0 -0.00000000000E+00 -0.00000000000E+00 -0.85069122634E+03  0.85069122634E+03  0.00000000000E+00 0.  1.
        -24    2    1    2    0    0  0.35231904213E+02 -0.46731883584E+02 -0.53482541046E+03  0.54359210038E+03  0.77646609073E+02 0.  0.
         25    2    1    2    0    0 -0.26048795238E+01  0.26884294953E+02 -0.28633671298E+03  0.31363285008E+03  0.12508917114E+03 0.  0.
         24    2    1    2    0    0 -0.32627024689E+02  0.19847588630E+02  0.16266087056E+03  0.18565624934E+03  0.80939697264E+02 0.  0.
        -13    1    5    5    0    0 -0.46685455630E+02  0.28801720485E+02  0.15952908263E+03  0.16869676664E+03  0.00000000000E+00 0.  1.
         14    1    5    5    0    0  0.14058430941E+02 -0.89541318542E+01  0.31317879292E+01  0.16959482699E+02  0.00000000000E+00 0. -1.
         11    1    3    3    0    0  0.36723138016E+02  0.11874468899E+02 -0.20816906517E+03  0.21171667759E+03  0.00000000000E+00 0. -1.
        -12    1    3    3    0    0 -0.14912338028E+01 -0.58606352483E+02 -0.32665634530E+03  0.33187542279E+03  0.00000000000E+00 0.  1.
          5    1    4    4  501    0 -0.31597025769E+02  0.69157854226E+02 -0.15868926340E+03  0.17601402091E+03  0.41800000000E+01 0.  1.
         -5    1    4    4    0  501  0.28992146246E+02 -0.42273559272E+02 -0.12764744957E+03  0.13761882916E+03  0.41800000000E+01 0.  1.
</event>
<event>
11    1  0.1003949E-008  0.1257869E+03  0.7561462E-02  0.1124557E+00
         22   -1    0    0    0    0  0.00000000000E+00  0.00000000000E+00  0.77265435065E+03  0.77265435065E+03  0.00000000000E+00 0. -1.
         22   -1    0    0    0    0 -0.00000000000E+00 -0.00000000000E+00 -0.17464103209E+03  0.17464103209E+03  0.00000000000E+00 0.  1.
         24    2    1    2    0    0  0.77899692066E+01  0.16349294371E+01 -0.10430796481E+03  0.12833063165E+03  0.74331977525E+02 0.  0.
         25    2    1    2    0    0 -0.10877808826E+00 -0.12577862190E+02  0.14907539454E+02  0.12659977360E+03  0.12508818287E+03 0.  0.
        -24    2    1    2    0    0 -0.76811911183E+01  0.10942932753E+02  0.68741374391E+03  0.69236497748E+03  0.81565055321E+02 0.  0.
        -11    1    3    3    0    0 -0.25889907146E+02 -0.16309724625E+02 -0.22251443001E+02  0.37834126460E+02  0.00000000000E+00 0.  1.
         12    1    3    3    0    0  0.33679876353E+02  0.17944654062E+02 -0.82056521806E+02  0.90496505189E+02  0.00000000000E+00 0. -1.
         11    1    5    5    0    0  0.59507539096E+01 -0.12735375838E+02  0.61188319655E+03  0.61204464501E+03  0.00000000000E+00 0. -1.
        -12    1    5    5    0    0 -0.13631945028E+02  0.23678308591E+02  0.75530547367E+02  0.80320332473E+02  0.00000000000E+00 0.  1.
          5    1    4    4  501    0  0.62176359636E+02 -0.25749559420E+01  0.45528997120E+01  0.62535840855E+02  0.41800000000E+01 0.  1.
         -5    1    4    4    0  501 -0.62285137724E+02 -0.10002906248E+02  0.10354639742E+02  0.64063932746E+02  0.41800000000E+01 0.  1.
</event>
<event>
11    1  0.1003949E-008  0.1421892E+03  0.7561462E-02  0.1105138E+00
         22   -1    0    0    0    0  0.00000000000E+00  0.00000000000E+00  0.12717526695E+04  0.12717526695E+04  0.00000000000E+00 0.  1.
         22   -1    0    0    0    0 -0.00000000000E+00 -0.00000000000E+00 -0.27545846167E+03  0.27545846167E+03  0.00000000000E+00 0. -1.
         24    2    1    2    0    0 -0.51951776536E+02 -0.33160598793E+02 -0.19310056568E+03  0.21791841405E+03  0.80012463529E+02 0.  0.
         25    2    1    2    0    0  0.97602215124E+02  0.73593037116E+02  0.45105927236E+02  0.18062080102E+03  0.12508877480E+03 0.  0.
        -24    2    1    2    0    0 -0.45650438588E+02 -0.40432438323E+02  0.11442888463E+04  0.11486719161E+04  0.79570487751E+02 0.  0.
        -13    1    3    3    0    0 -0.35871763557E+02  0.58449914959E+01 -0.23809417788E+02  0.43449231543E+02  0.00000000000E+00 0.  1.
         14    1    3    3    0    0 -0.16080012980E+02 -0.39005590289E+02 -0.16929114789E+03  0.17446918251E+03  0.00000000000E+00 0. -1.
         11    1    5    5    0    0 -0.11232574164E+02 -0.48953715706E+02  0.34927344792E+03  0.35286623305E+03  0.00000000000E+00 0. -1.
        -12    1    5    5    0    0 -0.34417864424E+02  0.85212773823E+01  0.79501539834E+03  0.79580568304E+03  0.00000000000E+00 0.  1.
          5    1    4    4  501    0  0.12099038792E+03  0.80282646501E+02  0.22205209567E+02  0.14695074355E+03  0.41800000000E+01 0. -1.
         -5    1    4    4    0  501 -0.23388172796E+02 -0.66896093847E+01  0.22900717668E+02  0.33670057472E+02  0.41800000000E+01 0. -1.
</event>
<event>
11    1  0.1003949E-008  0.1864236E+03  0.7561462E-02  0.1064562E+00
         22   -1    0    0    0    0  0.00000000000E+00  0.00000000000E+00  0.10094355289E+04  0.10094355289E+04  0.00000000000E+00 0.  1.
         22   -1    0    0    0    0 -0.00000000000E+00 -0.00000000000E+00 -0.29121264247E+03  0.29121264247E+03  0.00000000000E+00 0.  1.
         24    2    1    2    0    0 -0.11219550672E+03  0.66042445324E+02 -0.14944355639E+03  0.21542709058E+03  0.84415747936E+02 0.  0.
         25    2    1    2    0    0  0.97944776163E+02 -0.15076194436E+03  0.97428981518E+01  0.21923582597E+03  0.12508828994E+03 0.  0.
        -24    2    1    2    0    0  0.14250730558E+02  0.84719499039E+02  0.85792354461E+03  0.86598525477E+03  0.80729029727E+02 0.  0.
        -11    1    3    3    0    0 -0.31665509876E+02  0.16549875116E+02 -0.10512342256E+03  0.11102944138E+03  0.00000000000E+00 0.  1.
         12    1    3    3    0    0 -0.80529996845E+02  0.49492570208E+02 -0.44320133828E+02  0.10439764921E+03  0.00000000000E+00 0. -1.
         13    1    5    5    0    0  0.74119994401E+01 -0.79856806584E+01  0.31302503328E+03  0.31321459144E+03  0.00000000000E+00 0. -1.
        -14    1    5    5    0    0  0.68387311175E+01  0.92705179697E+02  0.54489851133E+03  0.55277066333E+03  0.00000000000E+00 0.  1.
          5    1    4    4  501    0  0.36041318656E+02 -0.83803620044E+02 -0.55653740242E+02  0.10694313716E+03  0.41800000000E+01 0.  1.
         -5    1    4    4    0  501  0.61903457507E+02 -0.66958324320E+02  0.65396638394E+02  0.11229268881E+03  0.41800000000E+01 0.  1.
</event>
<event>
11    1  0.1003949E-008  0.1364115E+03  0.7561462E-02  0.1111633E+00
         22   -1    0    0    0    0  0.00000000000E+00  0.00000000000E+00  0.11522271076E+04  0.11522271076E+04  0.00000000000E+00 0. -1.
         22   -1    0    0    0    0 -0.00000000000E+00 -0.00000000000E+00 -0.35054861609E+03  0.35054861609E+03  0.00000000000E+00 0. -1.
         24    2    1    2    0    0 -0.12437947036E+02 -0.98019446725E+00 -0.22659432099E+03  0.24102728519E+03  0.81200385436E+02 0.  0.
         25    2    1    2    0    0  0.54763769538E+02  0.35039835695E+02 -0.71697962385E+02  0.15813447243E+03  0.12505619945E+03 0.  0.
        -24    2    1    2    0    0 -0.42325822503E+02 -0.34059641228E+02  0.10999707748E+04  0.11036139660E+04  0.71249884924E+02 0.  0.
        -13    1    3    3    0    0 -0.55239090178E+01  0.30345256916E+02 -0.34519196230E+02  0.46291717364E+02  0.00000000000E+00 0.  1.
         14    1    3    3    0    0 -0.69140380180E+01 -0.31325451383E+02 -0.19207512476E+03  0.19473556783E+03  0.00000000000E+00 0. -1.
         11    1    5    5    0    0 -0.49586546672E+02 -0.40814856490E+01  0.41878443491E+03  0.42172963740E+03  0.00000000000E+00 0. -1.
        -12    1    5    5    0    0  0.72607241689E+01 -0.29978155579E+02  0.68118633993E+03  0.68188432863E+03  0.00000000000E+00 0.  1.
          5    1    4    4  501    0 -0.21343810391E+02  0.46944813245E+02  0.15394617369E+01  0.51761144453E+02  0.41800000000E+01 0.  1.
         -5    1    4    4    0  501  0.76107579929E+02 -0.11904977550E+02 -0.73237424122E+02  0.10637332798E+03  0.41800000000E+01 0.  1.
</event>
<event>
11    1  0.1003949E-008  0.1297890E+03  0.7561462E-02  0.1119528E+00
         22   -1    0    0    0    0  0.00000000000E+00  0.00000000000E+00  0.89507591761E+03  0.89507591761E+03  0.00000000000E+00 0. -1.
         22   -1    0    0    0    0 -0.00000000000E+00 -0.00000000000E+00 -0.67955784740E+03  0.67955784740E+03  0.00000000000E+00 0.  1.
         24    2    1    2    0    0  0.26180751220E+02 -0.25389457140E+02 -0.58639443993E+03  0.59289976229E+03  0.79634368648E+02 0.  0.
         25    2    1    2    0    0  0.61712046457E+01  0.38371841292E+02 -0.38632995088E+02  0.13659631470E+03  0.12512219191E+03 0.  0.
        -24    2    1    2    0    0 -0.32351955866E+02 -0.12982384152E+02  0.84054550523E+03  0.84513768803E+03  0.80782263012E+02 0.  0.
        -11    1    3    3    0    0  0.35209765456E+02 -0.83078575961E+01 -0.55400784675E+03  0.55518775413E+03  0.00000000000E+00 0.  1.
         12    1    3    3    0    0 -0.90290142357E+01 -0.17081599544E+02 -0.32386593188E+02  0.37712008159E+02  0.00000000000E+00 0. -1.
         13    1    5    5    0    0 -0.59605243767E+02 -0.98436626810E+01  0.59939296256E+03  0.60242975221E+03  0.00000000000E+00 0. -1.
        -14    1    5    5    0    0  0.27253287901E+02 -0.31387214707E+01  0.24115254267E+03  0.24270793582E+03  0.00000000000E+00 0.  1.
          5    1    4    4  501    0  0.54489171161E+01 -0.33685442492E+02 -0.52830557582E+02  0.63031261673E+02  0.41800000000E+01 0.  1.
         -5    1    4    4    0  501  0.72228752966E+00  0.72057283784E+02  0.14197562494E+02  0.73565053024E+02  0.41800000000E+01 0.  1.
</event>
<event>
11    1  0.1003949E-008  0.2004824E+03  0.7561462E-02  0.1054183E+00
         22   -1    0    0    0    0  0.00000000000E+00  0.00000000000E+00  0.13001213849E+03  0.13001213849E+03  0.00000000000E+00 0.  1.
         22   -1    0    0    0    0 -0.00000000000E+00 -0.00000000000E+00 -0.36344847631E+04  0.36344847631E+04  0.00000000000E+00 0. -1.
        -24    2    1    2    0    0 -0.15171373676E+03  0.10674094799E+03 -0.34360908731E+04  0.34420525273E+04  0.81206062572E+02 0.  0.
         25    2    1    2    0    0  0.87894454880E+02  0.73610629396E+01 -0.69739668315E+02  0.16819776703E+03  0.12508895655E+03 0.  0.
         24    2    1    2    0    0  0.63819281875E+02 -0.11410201093E+03  0.13579168179E+01  0.15424660725E+03  0.81841323746E+02 0.  0.
        -11    1    5    5    0    0  0.61618781942E+02 -0.12122401681E+03 -0.14467764970E+02  0.13675325503E+03  0.00000000000E+00 0.  1.
         12    1    5    5    0    0  0.22004999325E+01  0.71220058787E+01  0.15825681788E+02  0.17493352215E+02  0.00000000000E+00 0. -1.
         13    1    3    3    0    0 -0.14288339766E+03  0.10469487563E+03 -0.34065513087E+04  0.34111535441E+04  0.00000000000E+00 0. -1.
        -14    1    3    3    0    0 -0.88303390946E+01  0.20460723621E+01 -0.29539564371E+02  0.30898983217E+02  0.00000000000E+00 0.  1.
          5    1    4    4  501    0  0.10132496138E+02  0.13604671455E+02  0.34062370403E+02  0.38281484308E+02  0.41800000000E+01 0. -1.
         -5    1    4    4    0  501  0.77761958742E+02 -0.62436085159E+01 -0.10380203872E+03  0.12991628272E+03  0.41800000000E+01 0. -1.
</event>
<event>
11    1  0.1003949E-008  0.1521086E+03  0.7561462E-02  0.1094743E+00
         22   -1    0    0    0    0  0.00000000000E+00  0.00000000000E+00  0.50798269575E+03  0.50798269575E+03  0.00000000000E+00 0.  1.
         22   -1    0    0    0    0 -0.00000000000E+00 -0.00000000000E+00 -0.13997342154E+03  0.13997342154E+03  0.00000000000E+00 0.  1.
         24    2    1    2    0    0  0.23548305528E+02 -0.21610502318E+02 -0.45563846604E+02  0.97710896273E+02  0.80310762849E+02 0.  0.
         25    2    1    2    0    0 -0.59079629831E+02 -0.58664419170E+02  0.35620093444E+02  0.15442959328E+03  0.12509113272E+03 0.  0.
        -24    2    1    2    0    0  0.35531324303E+02  0.80274921488E+02  0.37795302738E+03  0.39581562774E+03  0.78198351872E+02 0.  0.
        -13    1    3    3    0    0 -0.55029381523E+00 -0.47455633963E+02 -0.39733916374E+02  0.61896075227E+02  0.00000000000E+00 0.  1.
         14    1    3    3    0    0  0.24098599344E+02  0.25845131645E+02 -0.58299302304E+01  0.35814821046E+02  0.00000000000E+00 0. -1.
         13    1    5    5    0    0  0.26703712549E+02 -0.81550661020E+01  0.72261332956E+02  0.77468016676E+02  0.00000000000E+00 0. -1.
        -14    1    5    5    0    0  0.88276117532E+01  0.88429987590E+02  0.30569169442E+03  0.31834761107E+03  0.00000000000E+00 0.  1.
          5    1    4    4  501    0 -0.81482723316E+02 -0.19637941063E+01  0.44048755277E+02  0.92741877961E+02  0.41800000000E+01 0. -1.
         -5    1    4    4    0  501  0.22403093485E+02 -0.56700625064E+02 -0.84286618329E+01  0.61687715314E+02  0.41800000000E+01 0. -1.
</event>
<event>
11    1  0.1003949E-008  0.1357860E+03  0.7561462E-02  0.1112357E+00
         22   -1    0    0    0    0  0.00000000000E+00  0.00000000000E+00  0.11754626713E+04  0.11754626713E+04  0.00000000000E+00 0.  1.
         22   -1    0    0    0    0 -0.00000000000E+00 -0.00000000000E+00 -0.13048688860E+03  0.13048688860E+03  0.00000000000E+00 0.  1.
        -24    2    1    2    0    0 -0.37902160952E+02  0.37099385257E+02 -0.72176686553E+02  0.11939814115E+03  0.78952541679E+02 0.  0.
         25    2    1    2    0    0  0.54323719543E+01 -0.78078504607E+02  0.13566100654E+03  0.20045734464E+03  0.12511384727E+03 0.  0.
         24    2    1    2    0    0  0.32469788998E+02  0.40979119350E+02  0.98149146276E+03  0.98609407415E+03  0.79513874126E+02 0.  0.
        -13    1    5    5    0    0 -0.45179041319E+01 -0.37100005591E+01  0.61598639499E+03  0.61601413489E+03  0.00000000000E+00 0.  1.
         14    1    5    5    0    0  0.36987693129E+02  0.44689119909E+02  0.36550506777E+03  0.37007993926E+03  0.00000000000E+00 0. -1.
         11    1    3    3    0    0  0.10557591771E+02  0.22713234948E+01  0.12044741406E+02  0.16177065555E+02  0.00000000000E+00 0. -1.
        -12    1    3    3    0    0 -0.48459752722E+02  0.34828061762E+02 -0.84221427959E+02  0.10322107560E+03  0.00000000000E+00 0.  1.
          5    1    4    4  501    0  0.20194136911E+02 -0.10161586482E+03  0.60109538442E+02  0.11985080792E+03  0.41800000000E+01 0. -1.
         -5    1    4    4    0  501 -0.14761764957E+02  0.23537360208E+02  0.75551468098E+02  0.80606536720E+02  0.41800000000E+01 0. -1.
</event>
<event>
11    1  0.1003949E-008  0.1403781E+03  0.7561462E-02  0.1107137E+00
         22   -1    0    0    0    0  0.00000000000E+00  0.00000000000E+00  0.44062933536E+03  0.44062933536E+03  0.00000000000E+00 0.  1.
         22   -1    0    0    0    0 -0.00000000000E+00 -0.00000000000E+00 -0.74975912804E+03  0.74975912804E+03  0.00000000000E+00 0.  1.
         24    2    1    2    0    0 -0.15002436337E+01 -0.50175125426E+02 -0.53168897193E+03  0.53992307981E+03  0.79397577418E+02 0.  0.
         25    2    1    2    0    0  0.57841021285E+02  0.19020876216E+02 -0.18417164060E+03  0.23081317577E+03  0.12509257145E+03 0.  0.
        -24    2    1    2    0    0 -0.56340777651E+02  0.31154249210E+02  0.40673081985E+03  0.41965220782E+03  0.80827874159E+02 0.  0.
        -11    1    3    3    0    0  0.33620697579E+02 -0.46242823713E+02 -0.28119102589E+03  0.28694449480E+03  0.00000000000E+00 0.  1.
         12    1    3    3    0    0 -0.35120941213E+02 -0.39323017130E+01 -0.25049794604E+03  0.25297858502E+03  0.00000000000E+00 0. -1.
         13    1    5    5    0    0 -0.98491302726E+01  0.34302012898E+02  0.60055002334E+02  0.69858691380E+02  0.00000000000E+00 0. -1.
        -14    1    5    5    0    0 -0.46491647378E+02 -0.31477636883E+01  0.34667581751E+03  0.34979351644E+03  0.00000000000E+00 0.  1.
          5    1    4    4  501    0 -0.32593196899E+02 -0.18650525577E+02 -0.75600990971E+02  0.84517103738E+02  0.41800000000E+01 0.  1.
         -5    1    4    4    0  501  0.90434218184E+02  0.37671401793E+02 -0.10857064963E+03  0.14629607203E+03  0.41800000000E+01 0.  1.
</event>
<event>
11    1  0.1003949E-008  0.1489116E+03  0.7561462E-02  0.1097996E+00
         22   -1    0    0    0    0  0.00000000000E+00  0.00000000000E+00  0.56870700528E+03  0.56870700528E+03  0.00000000000E+00 0. -1.
         22   -1    0    0    0    0 -0.00000000000E+00 -0.00000000000E+00 -0.26132346364E+04  0.26132346364E+04  0.00000000000E+00 0. -1.
        -24    2    1    2    0    0  0.58225565148E+02  0.53010506546E+02 -0.21245953700E+04  0.21276945921E+04  0.83537182088E+02 0.  0.
         25    2    1    2    0    0 -0.11636883806E+03 -0.18721119391E+02 -0.46687242497E+03  0.49750359593E+03  0.12509108673E+03 0.  0.
         24    2    1    2    0    0  0.58143272908E+02 -0.34289387155E+02  0.54694016387E+03  0.55674345362E+03  0.79141190554E+02 0.  0.
        -13    1    5    5    0    0 -0.69516935533E+01  0.16086985655E+02  0.17112206538E+03  0.17201708755E+03  0.00000000000E+00 0.  1.
         14    1    5    5    0    0  0.65094966461E+02 -0.50376372810E+02  0.37581809850E+03  0.38472636607E+03  0.00000000000E+00 0. -1.
         13    1    3    3    0    0  0.36871961128E+01  0.47860102664E+02 -0.14791466486E+04  0.14799253335E+04  0.00000000000E+00 0. -1.
        -14    1    3    3    0    0  0.54538369035E+02  0.51504038813E+01 -0.64544872144E+03  0.64776925859E+03  0.00000000000E+00 0.  1.
          5    1    4    4  501    0 -0.13074402482E+03 -0.47685379207E+02 -0.38223049227E+03  0.40679911140E+03  0.41800000000E+01 0.  1.
         -5    1    4    4    0  501  0.14375186769E+02  0.28964259816E+02 -0.84641932703E+02  0.90704484526E+02  0.41800000000E+01 0.  1.
</event>
<event>
11    1  0.1003949E-008  0.1878511E+03  0.7561462E-02  0.1063463E+00
         22   -1    0    0    0    0  0.00000000000E+00  0.00000000000E+00  0.18421486054E+04  0.18421486054E+04  0.00000000000E+00 0. -1.
         22   -1    0    0    0    0 -0.00000000000E+00 -0.00000000000E+00 -0.14976855500E+04  0.14976855500E+04  0.00000000000E+00 0.  1.
        -24    2    1    2    0    0 -0.71044212816E+02 -0.18062129949E+02 -0.13776691988E+04  0.13819800309E+04  0.80764247282E+02 0.  0.
         25    2    1    2    0    0  0.14234115557E+03  0.13679400246E+03  0.54853671340E+01  0.23377622297E+03  0.12509048523E+03 0.  0.
         24    2    1    2    0    0 -0.71296942756E+02 -0.11873187251E+03  0.17166468871E+04  0.17240779016E+04  0.79922239380E+02 0.  0.
        -11    1    5    5    0    0 -0.30993056267E+02  0.27378623131E+01  0.40969260022E+03  0.41087235500E+03  0.00000000000E+00 0.  1.
         12    1    5    5    0    0 -0.40303886489E+02 -0.12146973483E+03  0.13069542869E+04  0.13132055466E+04  0.00000000000E+00 0. -1.
         13    1    3    3    0    0 -0.15105551413E+02  0.17387523455E+02 -0.10094356820E+03  0.10353795254E+03  0.00000000000E+00 0. -1.
        -14    1    3    3    0    0 -0.55938661403E+02 -0.35449653405E+02 -0.12767256306E+04  0.12784420783E+04  0.00000000000E+00 0.  1.
          5    1    4    4  501    0  0.10055993073E+03  0.13783421182E+03 -0.36345831411E+02  0.17449659446E+03  0.41800000000E+01 0.  1.
         -5    1    4    4    0  501  0.41781224841E+02 -0.10402093608E+01  0.41831198545E+02  0.59279628511E+02  0.41800000000E+01 0.  1.
</event>
<event>
11    1  0.1003949E-008  0.1809721E+03  0.7561462E-02  0.1068859E+00
         22   -1    0    0    0    0  0.00000000000E+00  0.00000000000E+00  0.36989646781E+04  0.36989646781E+04  0.00000000000E+00 0. -1.
         22   -1    0    0    0    0 -0.00000000000E+00 -0.00000000000E+00 -0.13545486864E+04  0.13545486864E+04  0.00000000000E+00 0.  1.
        -24    2    1    2    0    0 -0.11910813506E+03 -0.54312812637E+02 -0.13342895131E+04  0.13430135970E+04  0.78869432709E+02 0.  0.
         25    2    1    2    0    0  0.13013680816E+03 -0.86422867881E+01  0.52729359451E+03  0.55740149620E+03  0.12509042809E+03 0.  0.
         24    2    1    2    0    0 -0.11028673097E+02  0.62955099425E+02  0.31514119103E+04  0.31530982713E+04  0.80911705744E+02 0.  0.
        -11    1    5    5    0    0 -0.70863571105E+01  0.18649062265E+02  0.14594636061E+03  0.14730357822E+03  0.00000000000E+00 0.  1.
         12    1    5    5    0    0 -0.39423159861E+01  0.44306037160E+02  0.30054655497E+04  0.30057946931E+04  0.00000000000E+00 0. -1.
         13    1    3    3    0    0 -0.63535021349E+00  0.17498837703E+01  0.39988946725E+00  0.19041204503E+01  0.00000000000E+00 0. -1.
        -14    1    3    3    0    0 -0.11847278485E+03 -0.56062696407E+02 -0.13346894026E+04  0.13411094765E+04  0.00000000000E+00 0.  1.
          5    1    4    4  501    0  0.11010733251E+03 -0.58139025726E+02  0.40887084582E+03  0.42743024220E+03  0.41800000000E+01 0. -1.
         -5    1    4    4    0  501  0.20029475650E+02  0.49496738938E+02  0.11842274869E+03  0.12997125400E+03  0.41800000000E+01 0. -1.
</event>
<event>
11    1  0.1003949E-008  0.1429735E+03  0.7561462E-02  0.1104283E+00
         22   -1    0    0    0    0  0.00000000000E+00  0.00000000000E+00  0.95801761100E+03  0.95801761100E+03  0.00000000000E+00 0. -1.
         22   -1    0    0    0    0 -0.00000000000E+00 -0.00000000000E+00 -0.34113402826E+03  0.34113402826E+03  0.00000000000E+00 0.  1.
         24    2    1    2    0    0  0.34574710346E+02  0.37182401453E+02 -0.31091859551E+03  0.32487859090E+03  0.79358580017E+02 0.  0.
         25    2    1    2    0    0 -0.91443845805E+02 -0.24402728883E+01  0.30101147253E+03  0.33855880580E+03  0.12508487729E+03 0.  0.
        -24    2    1    2    0    0  0.56869135459E+02 -0.34742128565E+02  0.62679070571E+03  0.63571424255E+03  0.82612924804E+02 0.  0.
        -11    1    3    3    0    0  0.10822704009E+01  0.55688109443E+02 -0.17258741882E+03  0.18135256816E+03  0.00000000000E+00 0.  1.
         12    1    3    3    0    0  0.33492439945E+02 -0.18505707990E+02 -0.13833117669E+03  0.14352602275E+03  0.00000000000E+00 0. -1.
         13    1    5    5    0    0  0.27914533711E+02  0.19577813332E+02  0.37342610885E+03  0.37497942708E+03  0.00000000000E+00 0. -1.
        -14    1    5    5    0    0  0.28954601749E+02 -0.54319941897E+02  0.25336459687E+03  0.26073481546E+03  0.00000000000E+00 0.  1.
          5    1    4    4  501    0 -0.85545905631E+02 -0.49238037691E+02  0.14451992669E+03  0.17505989814E+03  0.41800000000E+01 0. -1.
         -5    1    4    4    0  501 -0.58979401737E+01  0.46797764803E+02  0.15649154584E+03  0.16349890766E+03  0.41800000000E+01 0. -1.
</event>
<event>
11    1  0.1003949E-008  0.1474861E+03  0.7561462E-02  0.1099475E+00
         22   -1    0    0    0    0  0.00000000000E+00  0.00000000000E+00  0.42432768208E+03  0.42432768208E+03  0.00000000000E+00 0.  1.
         22   -1    0    0    0    0 -0.00000000000E+00 -0.00000000000E+00 -0.72775098001E+03  0.72775098001E+03  0.00000000000E+00 0. -1.
        -24    2    1    2    0    0 -0.92262166944E+01  0.76184175880E+02 -0.64800613639E+03  0.65784854372E+03  0.83448199177E+02 0.  0.
         25    2    1    2    0    0  0.76825445847E+01 -0.10534559056E+03  0.27379214985E+02  0.16599252552E+03  0.12508869723E+03 0.  0.
         24    2    1    2    0    0  0.15436721097E+01  0.29161414678E+02  0.31720362348E+03  0.32823759285E+03  0.79177064732E+02 0.  0.
        -13    1    5    5    0    0  0.35752020308E+02  0.25969562473E+02  0.23540721497E+03  0.23951864644E+03  0.00000000000E+00 0.  1.
         14    1    5    5    0    0 -0.34208348198E+02  0.31918522053E+01  0.81796408509E+02  0.88718946408E+02  0.00000000000E+00 0. -1.
         13    1    3    3    0    0  0.16669127244E+02  0.84497054898E+02 -0.50047953034E+03  0.50783596995E+03  0.00000000000E+00 0. -1.
        -14    1    3    3    0    0 -0.25895343938E+02 -0.83128790179E+01 -0.14752660605E+03  0.15001257377E+03  0.00000000000E+00 0.  1.
          5    1    4    4  501    0 -0.56778336763E+02 -0.49089562003E+02 -0.26570083183E+01  0.75220321166E+02  0.41800000000E+01 0.  1.
         -5    1    4    4    0  501  0.64460881347E+02 -0.56256028556E+02  0.30036223303E+02  0.90772204354E+02  0.41800000000E+01 0.  1.
</event>
<event>
11    1  0.1003949E-008  0.1410663E+03  0.7561462E-02  0.1106373E+00
         22   -1    0    0    0    0  0.00000000000E+00  0.00000000000E+00  0.27751476989E+03  0.27751476989E+03  0.00000000000E+00 0. -1.
         22   -1    0    0    0    0 -0.00000000000E+00 -0.00000000000E+00 -0.71121201212E+03  0.71121201212E+03  0.00000000000E+00 0.  1.
         24    2    1    2    0    0 -0.39890151853E+02 -0.48267981573E+02 -0.50430335520E+03  0.51436992890E+03  0.79583462044E+02 0.  0.
         25    2    1    2    0    0  0.90729503726E+02  0.27276488000E+02 -0.16007848675E+03  0.22416148337E+03  0.12508956415E+03 0.  0.
        -24    2    1    2    0    0 -0.50839351873E+02  0.20991493573E+02  0.23068459972E+03  0.25019536974E+03  0.79731148168E+02 0.  0.
        -11    1    3    3    0    0  0.12288242947E+02 -0.43167872575E+02 -0.30507537774E+03  0.30835929083E+03  0.00000000000E+00 0.  1.
         12    1    3    3    0    0 -0.52178394800E+02 -0.51001089982E+01 -0.19922797746E+03  0.20601063807E+03  0.00000000000E+00 0. -1.
         11    1    5    5    0    0  0.10890765963E+02  0.38541203345E+01  0.13222024645E+03  0.13272398652E+03  0.00000000000E+00 0. -1.
        -12    1    5    5    0    0 -0.61730117836E+02  0.17137373239E+02  0.98464353272E+02  0.11747138322E+03  0.00000000000E+00 0.  1.
          5    1    4    4  501    0  0.89110059692E+01 -0.33055373519E+02 -0.43453627829E-02  0.34489653010E+02  0.41800000000E+01 0. -1.
         -5    1    4    4    0  501  0.81818497756E+02  0.60331861518E+02 -0.16007414139E+03  0.18967183036E+03  0.41800000000E+01 0. -1.
</event>
<event>
11    1  0.1003949E-008  0.2301357E+03  0.7561462E-02  0.1035048E+00
         22   -1    0    0    0    0  0.00000000000E+00  0.00000000000E+00  0.99567079892E+03  0.99567079892E+03  0.00000000000E+00 0. -1.
         22   -1    0    0    0    0 -0.00000000000E+00 -0.00000000000E+00 -0.11318214092E+04  0.11318214092E+04  0.00000000000E+00 0. -1.
        -24    2    1    2    0    0  0.81347198246E+02 -0.17141997815E+03 -0.81782812686E+03  0.84341498223E+03  0.80646212515E+02 0.  0.
         25    2    1    2    0    0 -0.32617323559E+01  0.22402239742E+03 -0.24166324153E+03  0.35248597289E+03  0.12509422581E+03 0.  0.
         24    2    1    2    0    0 -0.78085465891E+02 -0.52602419270E+02  0.92334075811E+03  0.93159125302E+03  0.80248069261E+02 0.  0.
        -13    1    5    5    0    0 -0.39935482098E+02 -0.10741042533E+02  0.13436172689E+03  0.14058195609E+03  0.00000000000E+00 0.  1.
         14    1    5    5    0    0 -0.38149983792E+02 -0.41861376736E+02  0.78897903122E+03  0.79100929693E+03  0.00000000000E+00 0. -1.
         13    1    3    3    0    0  0.56668746808E+02 -0.11395215677E+03 -0.68341463688E+03  0.69516329506E+03  0.00000000000E+00 0. -1.
        -14    1    3    3    0    0  0.24678451439E+02 -0.57467821384E+02 -0.13441348998E+03  0.14825168717E+03  0.00000000000E+00 0.  1.
          5    1    4    4  501    0 -0.29162355871E+02  0.96190650629E+02 -0.18423525586E+03  0.20991232973E+03  0.41800000000E+01 0.  1.
         -5    1    4    4    0  501  0.25900623515E+02  0.12783174679E+03 -0.57427985669E+02  0.14257364316E+03  0.41800000000E+01 0.  1.
</event>
<event>
11    1  0.1003949E-008  0.2057703E+03  0.7561462E-02  0.1050517E+00
         22   -1    0    0    0    0  0.00000000000E+00  0.00000000000E+00  0.13299671022E+04  0.13299671022E+04  0.00000000000E+00 0.  1.
         22   -1    0    0    0    0 -0.00000000000E+00 -0.00000000000E+00 -0.10815584944E+04  0.10815584944E+04  0.00000000000E+00 0.  1.
         24    2    1    2    0    0 -0.14591262146E+03  0.34252959694E+02 -0.73753456188E+03  0.75693173155E+03  0.80775354649E+02 0.  0.
         25    2    1    2    0    0  0.22660461855E+03 -0.10073019126E+03 -0.27260217694E+03  0.38917126917E+03  0.12508439270E+03 0.  0.
        -24    2    1    2    0    0 -0.80691997096E+02  0.66477231571E+02  0.12585453466E+04  0.12654225959E+04  0.80171914325E+02 0.  0.
        -13    1    3    3    0    0 -0.15252728753E+03  0.38873851912E+02 -0.72592237795E+03  0.74279138970E+03  0.00000000000E+00 0.  1.
         14    1    3    3    0    0  0.66146660723E+01 -0.46208922180E+01 -0.11612183927E+02  0.14140341852E+02  0.00000000000E+00 0. -1.
         11    1    5    5    0    0 -0.25127035204E+02 -0.11851385995E+02  0.13795273403E+03  0.14072235102E+03  0.00000000000E+00 0. -1.
        -12    1    5    5    0    0 -0.55564961891E+02  0.78328617566E+02  0.11205926126E+04  0.11247002448E+04  0.00000000000E+00 0.  1.
          5    1    4    4  501    0  0.23210836145E+03 -0.65183962566E+02 -0.24384095982E+03  0.34292729042E+03  0.41800000000E+01 0.  1.
         -5    1    4    4    0  501 -0.55037428957E+01 -0.35546228699E+02 -0.28761217115E+02  0.46243978748E+02  0.41800000000E+01 0.  1.
</event>
<event>
11    1  0.1003949E-008  0.1583015E+03  0.7561462E-02  0.1088686E+00
         22   -1    0    0    0    0  0.00000000000E+00  0.00000000000E+00  0.10703872899E+04  0.10703872899E+04  0.00000000000E+00 0.  1.
         22   -1    0    0    0    0 -0.00000000000E+00 -0.00000000000E+00 -0.14987174414E+03  0.14987174414E+03  0.00000000000E+00 0. -1.
        -24    2    1    2    0    0 -0.15760685815E+02  0.20540516723E+02 -0.92632630635E+02  0.12595298167E+03  0.81320583425E+02 0.  0.
         25    2    1    2    0    0 -0.73690334565E+02  0.23816736318E+02  0.11635032424E+03  0.18757253404E+03  0.12509418547E+03 0.  0.
         24    2    1    2    0    0  0.89451020380E+02 -0.44357253041E+02  0.89679785219E+03  0.90673351837E+03  0.89164088597E+02 0.  0.
        -13    1    5    5    0    0  0.99819930075E+02 -0.27685939328E+02  0.84524319423E+03  0.85156713598E+03  0.00000000000E+00 0.  1.
         14    1    5    5    0    0 -0.10368909695E+02 -0.16671313713E+02  0.51554657956E+02  0.55166382391E+02  0.00000000000E+00 0. -1.
         11    1    3    3    0    0  0.11504278045E+02 -0.49535349007E+01 -0.87362120906E+02  0.88255459268E+02  0.00000000000E+00 0. -1.
        -12    1    3    3    0    0 -0.27264963859E+02  0.25494051624E+02 -0.52705097292E+01  0.37697522402E+02  0.00000000000E+00 0.  1.
          5    1    4    4  501    0 -0.22575475806E+01  0.22880971828E+02  0.11357859839E+03  0.11595777596E+03  0.41800000000E+01 0. -1.
         -5    1    4    4    0  501 -0.71432786984E+02  0.93576449043E+00  0.27717258502E+01  0.71614758086E+02  0.41800000000E+01 0. -1.
</event>
<event>
11    1  0.1003949E-008  0.1888972E+03  0.7561462E-02  0.1062665E+00
         22   -1    0    0    0    0  0.00000000000E+00  0.00000000000E+00  0.55213196540E+03  0.55213196540E+03  0.00000000000E+00 0. -1.
         22   -1    0    0    0    0 -0.00000000000E+00 -0.00000000000E+00 -0.41104328052E+03  0.41104328052E+03  0.00000000000E+00 0. -1.
         24    2    1    2    0    0 -0.13430591021E+03 -0.40446087415E+02 -0.28877560569E+03  0.32996092759E+03  0.76216138641E+02 0.  0.
         25    2    1    2    0    0  0.10711321600E+03  0.14499031027E+03  0.44289428500E+02  0.22384110617E+03  0.12509139146E+03 0.  0.
        -24    2    1    2    0    0  0.27192694204E+02 -0.10454422285E+03  0.38557486207E+03  0.40937321216E+03  0.85144086248E+02 0.  0.
        -13    1    3    3    0    0 -0.15620197934E+02  0.19238637608E+02 -0.28687874155E+02  0.37909232174E+02  0.00000000000E+00 0.  1.
         14    1    3    3    0    0 -0.11868571227E+03 -0.59684725023E+02 -0.26008773154E+03  0.29205169542E+03  0.00000000000E+00 0. -1.
         13    1    5    5    0    0  0.47792125575E+02 -0.10114109189E+03  0.35606912866E+03  0.37322758757E+03  0.00000000000E+00 0. -1.
        -14    1    5    5    0    0 -0.20599431371E+02 -0.34031309617E+01  0.29505733412E+02  0.36145624594E+02  0.00000000000E+00 0.  1.
          5    1    4    4  501    0  0.11862881860E+03  0.75817197943E+02  0.57899157720E+02  0.15228535377E+03  0.41800000000E+01 0. -1.
         -5    1    4    4    0  501 -0.11515602598E+02  0.69173112327E+02 -0.13609729220E+02  0.71555752401E+02  0.41800000000E+01 0. -1.
</event>
<event>
11    1  0.1003949E-008  0.1361600E+03  0.7561462E-02  0.1111924E+00
         22   -1    0    0    0    0  0.00000000000E+00  0.00000000000E+00  0.53214076925E+03  0.53214076925E+03  0.00000000000E+00 0.  1.
         22   -1    0    0    0    0 -0.00000000000E+00 -0.00000000000E+00 -0.55311255191E+03  0.55311255191E+03  0.00000000000E+00 0.  1.
         24    2    1    2    0    0  0.36986637033E+02 -0.37847893115E+02 -0.34888327951E+03  0.36164905220E+03  0.79183457264E+02 0.  0.
         25    2    1    2    0    0 -0.47873766425E+02 -0.15488352403E+02 -0.16970154517E+03  0.21675009030E+03  0.12510076196E+03 0.  0.
        -24    2    1    2    0    0  0.10887129392E+02  0.53336245518E+02  0.49761304202E+03  0.50685417866E+03  0.79492981832E+02 0.  0.
        -11    1    3    3    0    0  0.56686318808E+02 -0.18026675159E+02 -0.29513690442E+03  0.30107157306E+03  0.00000000000E+00 0.  1.
         12    1    3    3    0    0 -0.19699681774E+02 -0.19821217956E+02 -0.53746375095E+02  0.60577479141E+02  0.00000000000E+00 0. -1.
         13    1    5    5    0    0 -0.74512072904E+01 -0.21265282753E+00  0.16025151083E+01  0.76245502151E+01  0.00000000000E+00 0. -1.
        -14    1    5    5    0    0  0.18338336682E+02  0.53548898345E+02  0.49601052691E+03  0.49922962844E+03  0.00000000000E+00 0.  1.
          5    1    4    4  501    0 -0.50663912230E+02 -0.63053135943E+02 -0.73758702113E+02  0.10954610213E+03  0.41800000000E+01 0. -1.
         -5    1    4    4    0  501  0.27901458045E+01  0.47564783540E+02 -0.95942843056E+02  0.10720398817E+03  0.41800000000E+01 0. -1.
</event>
<event>
11    1  0.1003949E-008  0.1336266E+03  0.7561462E-02  0.1114892E+00
         22   -1    0    0    0    0  0.00000000000E+00  0.00000000000E+00  0.16163327206E+04  0.16163327206E+04  0.00000000000E+00 0.  1.
         22   -1    0    0    0    0 -0.00000000000E+00 -0.00000000000E+00 -0.33457541719E+03  0.33457541719E+03  0.00000000000E+00 0. -1.
        -24    2    1    2    0    0 -0.43422413261E+02 -0.18249527928E+02 -0.31697248278E+03  0.33053027577E+03  0.80994796865E+02 0.  0.
         25    2    1    2    0    0  0.29908467346E+02  0.30155564783E+02  0.45794166422E+03  0.47661563632E+03  0.12509205589E+03 0.  0.
         24    2    1    2    0    0  0.13513945915E+02 -0.11906036854E+02  0.11407881219E+04  0.11437622257E+04  0.80436989377E+02 0.  0.
        -11    1    5    5    0    0 -0.14223790476E+02 -0.15356069008E+02  0.10003793605E+04  0.10005983160E+04  0.00000000000E+00 0.  1.
         12    1    5    5    0    0  0.27737736391E+02  0.34500321535E+01  0.14040876141E+03  0.14316390964E+03  0.00000000000E+00 0. -1.
         11    1    3    3    0    0 -0.39680342978E+02 -0.27212071225E+02 -0.31718697646E+03  0.32081553029E+03  0.00000000000E+00 0. -1.
        -12    1    3    3    0    0 -0.37420702829E+01  0.89625432961E+01  0.21449367539E+00  0.97147454868E+01  0.00000000000E+00 0.  1.
          5    1    4    4  501    0 -0.12910786376E+02 -0.44120137912E+02  0.15100740776E+03  0.15790498590E+03  0.41800000000E+01 0.  1.
         -5    1    4    4    0  501  0.42819253722E+02  0.74275702695E+02  0.30693425646E+03  0.31871065041E+03  0.41800000000E+01 0.  1.
</event>
<event>
11    1  0.1003949E-008  0.1671739E+03  0.7561462E-02  0.1080518E+00
         22   -1    0    0    0    0  0.00000000000E+00  0.00000000000E+00  0.25501849319E+03  0.25501849319E+03  0.00000000000E+00 0.  1.
         22   -1    0    0    0    0 -0.00000000000E+00 -0.00000000000E+00 -0.24614949868E+04  0.24614949868E+04  0.00000000000E+00 0.  1.
        -24    2    1    2    0    0 -0.10799565124E+03 -0.10303147004E+02 -0.21908314562E+04  0.21951561737E+04  0.84846578949E+02 0.  0.
         25    2    1    2    0    0  0.15197253541E+03  0.67037542517E+02 -0.21242233862E+03  0.29725623078E+03  0.12509329785E+03 0.  0.
         24    2    1    2    0    0 -0.43976884174E+02 -0.56734395513E+02  0.19677730117E+03  0.22410107554E+03  0.79669491207E+02 0.  0.
        -13    1    5    5    0    0 -0.45627573723E+02 -0.47130131363E+02  0.66324717557E+02  0.93285009113E+02  0.00000000000E+00 0.  1.
         14    1    5    5    0    0  0.16506895492E+01 -0.96042641507E+01  0.13045258361E+03  0.13081606643E+03  0.00000000000E+00 0. -1.
         13    1    3    3    0    0 -0.36353765593E+02  0.25440674702E+02 -0.38459772949E+03  0.38714885732E+03  0.00000000000E+00 0. -1.
        -14    1    3    3    0    0 -0.71641885647E+02 -0.35743821705E+02 -0.18062337267E+04  0.18080073164E+04  0.00000000000E+00 0.  1.
          5    1    4    4  501    0  0.82514456683E+02  0.77186685027E+02 -0.56902435555E+02  0.12657716808E+03  0.41800000000E+01 0. -1.
         -5    1    4    4    0  501  0.69458078731E+02 -0.10149142510E+02 -0.15551990307E+03  0.17067906270E+03  0.41800000000E+01 0. -1.
</event>
<event>
11    1  0.1003949E-008  0.2182804E+03  0.7561462E-02  0.1042300E+00
         22   -1    0    0    0    0  0.00000000000E+00  0.00000000000E+00  0.63826267588E+03  0.63826267588E+03  0.00000000000E+00 0.  1.
         22   -1    0    0    0    0 -0.00000000000E+00 -0.00000000000E+00 -0.10390830245E+04  0.10390830245E+04  0.00000000000E+00 0.  1.
         24    2    1    2    0    0 -0.92796859637E+02 -0.13667758767E+03 -0.63824021264E+03  0.66400756401E+03  0.79141998301E+02 0.  0.
         25    2    1    2    0    0  0.10189085161E+03  0.20247854980E+03 -0.33960669282E+03  0.42703511298E+03  0.12508786168E+03 0.  0.
        -24    2    1    2    0    0 -0.90939919755E+01 -0.65800962133E+02  0.57702655685E+03  0.58630302339E+03  0.79869397205E+02 0.  0.
        -11    1    3    3    0    0 -0.54376764588E+02 -0.12677346307E+03 -0.55363416397E+03  0.57056036576E+03  0.00000000000E+00 0.  1.
         12    1    3    3    0    0 -0.38420095049E+02 -0.99041246026E+01 -0.84606048674E+02  0.93447198246E+02  0.00000000000E+00 0. -1.
         11    1    5    5    0    0  0.38726027460E+01 -0.35493893378E+02  0.73649904324E+02  0.81848163853E+02  0.00000000000E+00 0. -1.
        -12    1    5    5    0    0 -0.12966594722E+02 -0.30307068756E+02  0.50337665253E+03  0.50445485953E+03  0.00000000000E+00 0.  1.
          5    1    4    4  501    0 -0.28405052451E+02  0.27445176247E+02 -0.66228157155E+02  0.77225163671E+02  0.41800000000E+01 0. -1.
         -5    1    4    4    0  501  0.13029590406E+03  0.17503337356E+03 -0.27337853566E+03  0.34980994931E+03  0.41800000000E+01 0. -1.
</event>
<event>
11    1  0.1003949E-008  0.2307335E+03  0.7561462E-02  0.1034695E+00
         22   -1    0    0    0    0  0.00000000000E+00  0.00000000000E+00  0.28738518830E+03  0.28738518830E+03  0.00000000000E+00 0. -1.
         22   -1    0    0    0    0 -0.00000000000E+00 -0.00000000000E+00 -0.32313512755E+03  0.32313512755E+03  0.00000000000E+00 0.  1.
        -24    2    1    2    0    0 -0.14588900272E+02 -0.46169722274E+02 -0.11279522157E+03  0.14716290171E+03  0.81176833927E+02 0.  0.
         25    2    1    2    0    0  0.19924527490E+03 -0.95135444238E+01 -0.11555392420E+02  0.23573257712E+03  0.12508850356E+03 0.  0.
         24    2    1    2    0    0 -0.18465637463E+03  0.55683266697E+02  0.88600674738E+02  0.22762483702E+03  0.82245875187E+02 0.  0.
        -11    1    5    5    0    0 -0.70624879428E+02  0.12359597413E+02  0.76808227423E+02  0.10507205643E+03  0.00000000000E+00 0.  1.
         12    1    5    5    0    0 -0.11403149520E+03  0.43323669285E+02  0.11792447315E+02  0.12255278060E+03  0.00000000000E+00 0. -1.
         13    1    3    3    0    0  0.16889996951E+01 -0.49644777698E+02 -0.21099819549E+02  0.53969056483E+02  0.00000000000E+00 0. -1.
        -14    1    3    3    0    0 -0.16277899967E+02  0.34750554243E+01 -0.91695402019E+02  0.93193845231E+02  0.00000000000E+00 0.  1.
          5    1    4    4  501    0  0.33371712320E+02 -0.36949617304E+02  0.35267153136E+02  0.61157091923E+02  0.41800000000E+01 0.  1.
         -5    1    4    4    0  501  0.16587356258E+03  0.27436072880E+02 -0.46822545556E+02  0.17457548519E+03  0.41800000000E+01 0.  1.
</event>
<event>
11    1  0.1003949E-008  0.1376774E+03  0.7561462E-02  0.1110180E+00
         22   -1    0    0    0    0  0.00000000000E+00  0.00000000000E+00  0.84767488935E+03  0.84767488935E+03  0.00000000000E+00 0. -1.
         22   -1    0    0    0    0 -0.00000000000E+00 -0.00000000000E+00 -0.60339851336E+03  0.60339851336E+03  0.00000000000E+00 0. -1.
        -24    2    1    2    0    0  0.56466556328E+02 -0.90879520575E+01 -0.55079641621E+03  0.55980664900E+03  0.82071488979E+02 0.  0.
         25    2    1    2    0    0 -0.65115017065E+02  0.44494027598E+01  0.62354710075E+02  0.15425984272E+03  0.12509287180E+03 0.  0.
         24    2    1    2    0    0  0.86484607371E+01  0.46385492976E+01  0.73271808213E+03  0.73700691098E+03  0.78785068046E+02 0.  0.
        -13    1    5    5    0    0  0.19475850149E+02  0.30645308140E+02  0.18300217908E+03  0.18656966849E+03  0.00000000000E+00 0.  1.
         14    1    5    5    0    0 -0.10827389412E+02 -0.26006758842E+02  0.54971590304E+03  0.55043724249E+03  0.00000000000E+00 0. -1.
         13    1    3    3    0    0  0.76000651851E+02 -0.12161640536E+02 -0.36924420693E+03  0.37718071125E+03  0.00000000000E+00 0. -1.
        -14    1    3    3    0    0 -0.19534095522E+02  0.30736884786E+01 -0.18155220928E+03  0.18262593776E+03  0.00000000000E+00 0.  1.
          5    1    4    4  501    0 -0.10227312875E+03  0.20304089747E+01  0.36310503943E+02  0.10862707085E+03  0.41800000000E+01 0. -1.
         -5    1    4    4    0  501  0.37158111688E+02  0.24189937851E+01  0.26044206133E+02  0.45632771866E+02  0.41800000000E+01 0. -1.
</event>
<event>
11    1  0.1003949E-008  0.1790559E+03  0.7561462E-02  0.1070409E+00
         22   -1    0    0    0    0  0.00000000000E+00  0.00000000000E+00  0.28664557929E+04  0.28664557929E+04  0.00000000000E+00 0. -1.
         22   -1    0    0    0    0 -0.00000000000E+00 -0.00000000000E+00 -0.29655526394E+03  0.29655526394E+03  0.00000000000E+00 0.  1.
        -24    2    1    2    0    0 -0.37385540062E+02 -0.47958465827E+02 -0.23373045313E+03  0.25564297072E+03  0.83819512684E+02 0.  0.
         25    2    1    2    0    0 -0.28171375802E+02 -0.65012372650E+02  0.54207832453E+02  0.15364239947E+03  0.12508901952E+03 0.  0.
         24    2    1    2    0    0  0.65556915864E+02  0.11297083848E+03  0.27494231496E+04  0.27537256866E+04  0.81347292173E+02 0.  0.
        -11    1    5    5    0    0  0.72567958747E+02  0.51230440034E+02  0.13462814842E+04  0.13492088427E+04  0.00000000000E+00 0.  1.
         12    1    5    5    0    0 -0.70110428828E+01  0.61740398442E+02  0.14031416655E+04  0.14045168439E+04  0.00000000000E+00 0. -1.
         13    1    3    3    0    0 -0.55322697875E+02 -0.43853255872E+02 -0.11104551032E+03  0.13158576789E+03  0.00000000000E+00 0. -1.
        -14    1    3    3    0    0  0.17937157813E+02 -0.41052099548E+01 -0.12268494282E+03  0.12405720283E+03  0.00000000000E+00 0.  1.
          5    1    4    4  501    0 -0.29243079708E+02  0.33616895963E+02  0.21441667258E+02  0.49623289893E+02  0.41800000000E+01 0. -1.
         -5    1    4    4    0  501  0.10717039067E+01 -0.98629268612E+02  0.32766165194E+02  0.10401910958E+03  0.41800000000E+01 0. -1.
</event>
<event>
11    1  0.1003949E-008  0.1566473E+03  0.7561462E-02  0.1090274E+00
         22   -1    0    0    0    0  0.00000000000E+00  0.00000000000E+00  0.11524750921E+03  0.11524750921E+03  0.00000000000E+00 0.  1.
         22   -1    0    0    0    0 -0.00000000000E+00 -0.00000000000E+00 -0.11548325225E+04  0.11548325225E+04  0.00000000000E+00 0. -1.
         24    2    1    2    0    0  0.61609318415E+02 -0.25267133497E+02 -0.85222281204E+03  0.85875289597E+03  0.82089456222E+02 0.  0.
         25    2    1    2    0    0 -0.74723329748E+01 -0.61465168353E+02 -0.23493290460E+03  0.27327925127E+03  0.12511705251E+03 0.  0.
        -24    2    1    2    0    0 -0.54136985440E+02  0.86732301851E+02  0.47570703323E+02  0.13804788450E+03  0.79630027146E+02 0.  0.
        -11    1    3    3    0    0  0.16736807562E+02  0.21346447990E+02 -0.95750427253E+02  0.99518520328E+02  0.00000000000E+00 0.  1.
         12    1    3    3    0    0  0.44872510853E+02 -0.46613581487E+02 -0.75647238479E+03  0.75923437564E+03  0.00000000000E+00 0. -1.
         11    1    5    5    0    0 -0.27026866818E+02  0.37279975140E+01 -0.14517590198E+02  0.30904852704E+02  0.00000000000E+00 0. -1.
        -12    1    5    5    0    0 -0.27110118621E+02  0.83004304337E+02  0.62088293520E+02  0.10714303180E+03  0.00000000000E+00 0.  1.
          5    1    4    4  501    0 -0.24925205893E+01 -0.29722563151E+02 -0.23876024432E+03  0.24065238434E+03  0.41800000000E+01 0. -1.
         -5    1    4    4    0  501 -0.49798123855E+01 -0.31742605203E+02  0.38273397209E+01  0.32626866932E+02  0.41800000000E+01 0. -1.
</event>
<event>
11    1  0.1003949E-008  0.2339534E+03  0.7561462E-02  0.1032813E+00
         22   -1    0    0    0    0  0.00000000000E+00  0.00000000000E+00  0.16067683437E+04  0.16067683437E+04  0.00000000000E+00 0.  1.
         22   -1    0    0    0    0 -0.00000000000E+00 -0.00000000000E+00 -0.63256975626E+03  0.63256975626E+03  0.00000000000E+00 0.  1.
        -24    2    1    2    0    0  0.15621206626E+02 -0.16182993558E+02 -0.38427507656E+03  0.39198604871E+03  0.74025782925E+02 0.  0.
         25    2    1    2    0    0 -0.15498095368E+03  0.15544473644E+03 -0.16961668731E+03  0.30430178318E+03  0.12509033754E+03 0.  0.
         24    2    1    2    0    0  0.13935974705E+03 -0.13926174288E+03  0.15280903513E+04  0.15430502680E+04  0.84433618231E+02 0.  0.
        -11    1    5    5    0    0  0.44501666628E+02 -0.10369334320E+03  0.83829872436E+03  0.84585900659E+03  0.00000000000E+00 0.  1.
         12    1    5    5    0    0  0.94858080422E+02 -0.35568399680E+02  0.68979162693E+03  0.69719126146E+03  0.00000000000E+00 0. -1.
         11    1    3    3    0    0  0.18803213773E+02  0.13610200715E+02 -0.38793919687E+02  0.45208037077E+02  0.00000000000E+00 0. -1.
        -12    1    3    3    0    0 -0.31820071473E+01 -0.29793194273E+02 -0.34548115688E+03  0.34677801163E+03  0.00000000000E+00 0.  1.
          5    1    4    4  501    0 -0.13290287180E+03  0.45839867214E+02 -0.98974633821E+02  0.17198231682E+03  0.41800000000E+01 0.  1.
         -5    1    4    4    0  501 -0.22078081878E+02  0.10960486923E+03 -0.70642053489E+02  0.13231946636E+03  0.41800000000E+01 0.  1.
</event>
<event>
11    1  0.1003949E-008  0.1339329E+03  0.7561462E-02  0.1114529E+00
         22   -1    0    0    0    0  0.00000000000E+00  0.00000000000E+00  0.57428465805E+03  0.57428465805E+03  0.00000000000E+00 0.  1.
         22   -1    0    0    0    0 -0.00000000000E+00 -0.00000000000E+00 -0.38382809284E+03  0.38382809284E+03  0.00000000000E+00 0. -1.
        -24    2    1    2    0    0 -0.12387237349E+02 -0.62955228590E+01 -0.25059194476E+03  0.26332573214E+03  0.79693419872E+02 0.  0.
         25    2    1    2    0    0  0.57548382790E+02  0.20871216177E+02 -0.83648551599E+02  0.16245360527E+03  0.12508664859E+03 0.  0.
         24    2    1    2    0    0 -0.45161145441E+02 -0.14575693318E+02  0.52469706157E+03  0.53233341347E+03  0.76288116906E+02 0.  0.
        -13    1    5    5    0    0 -0.36601604796E+02 -0.25480325884E+02  0.51066404833E+03  0.51260773964E+03  0.00000000000E+00 0.  1.
         14    1    5    5    0    0 -0.85595406443E+01  0.10904632566E+02  0.14033013242E+02  0.19725673831E+02  0.00000000000E+00 0. -1.
         13    1    3    3    0    0 -0.35381896155E+02 -0.30462194960E+02 -0.16448817998E+03  0.17098592121E+03  0.00000000000E+00 0. -1.
        -14    1    3    3    0    0  0.22994658806E+02  0.24166672101E+02 -0.86103764782E+02  0.92339810935E+02  0.00000000000E+00 0.  1.
          5    1    4    4  501    0  0.55572904334E+02  0.63953491332E+02 -0.83634026260E+02  0.11912396693E+03  0.41800000000E+01 0.  1.
         -5    1    4    4    0  501  0.19754784556E+01 -0.43082275155E+02 -0.14525338910E-01  0.43329638339E+02  0.41800000000E+01 0.  1.
</event>
<event>
11    1  0.1003949E-008  0.1741310E+03  0.7561462E-02  0.1074492E+00
         22   -1    0    0    0    0  0.00000000000E+00  0.00000000000E+00  0.96445989296E+03  0.96445989296E+03  0.00000000000E+00 0. -1.
         22   -1    0    0    0    0 -0.00000000000E+00 -0.00000000000E+00 -0.95730431189E+03  0.95730431189E+03  0.00000000000E+00 0. -1.
         24    2    1    2    0    0  0.27425726739E+02 -0.43452341007E+02 -0.84667891438E+03  0.85213881257E+03  0.81456094949E+02 0.  0.
         25    2    1    2    0    0 -0.13930920851E+03  0.83451042265E+02  0.14734779886E+01  0.20499234517E+03  0.12509419814E+03 0.  0.
        -24    2    1    2    0    0  0.11188348177E+03 -0.39998701259E+02  0.85236101746E+03  0.86463304712E+03  0.83385805066E+02 0.  0.
        -13    1    3    3    0    0  0.24673304323E+02 -0.23622539462E+01 -0.68081488622E+02  0.72453028114E+02  0.00000000000E+00 0.  1.
         14    1    3    3    0    0  0.27524224165E+01 -0.41090087061E+02 -0.77859742576E+03  0.77968578445E+03  0.00000000000E+00 0. -1.
         13    1    5    5    0    0  0.11869466917E+03 -0.43248497741E+02  0.84386846342E+03  0.85327184449E+03  0.00000000000E+00 0. -1.
        -14    1    5    5    0    0 -0.68111874020E+01  0.32497964829E+01  0.84925540433E+01  0.11361202629E+02  0.00000000000E+00 0.  1.
          5    1    4    4  501    0 -0.13037455683E+03  0.49411501419E+02 -0.44983712768E+02  0.14656066442E+03  0.41800000000E+01 0.  1.
         -5    1    4    4    0  501 -0.89346516751E+01  0.34039540846E+02  0.46457190756E+02  0.58431680744E+02  0.41800000000E+01 0.  1.
</event>
<event>
11    1  0.1003949E-008  0.1843100E+03  0.7561462E-02  0.1066209E+00
         22   -1    0    0    0    0  0.00000000000E+00  0.00000000000E+00  0.58833864890E+03  0.58833864890E+03  0.00000000000E+00 0.  1.
         22   -1    0    0    0    0 -0.00000000000E+00 -0.00000000000E+00 -0.12042364717E+04  0.12042364717E+04  0.00000000000E+00 0. -1.
         24    2    1    2    0    0 -0.32506581023E+01 -0.67992946657E+00 -0.10706341653E+04  0.10738954803E+04  0.83564093258E+02 0.  0.
         25    2    1    2    0    0 -0.10378071997E+03 -0.82631246062E+02 -0.50616804929E+02  0.18922974600E+03  0.12508986837E+03 0.  0.
        -24    2    1    2    0    0  0.10703137808E+03  0.83311175528E+02  0.50535314740E+03  0.52944989429E+03  0.80863583353E+02 0.  0.
        -11    1    3    3    0    0 -0.22811823644E+02  0.68886805579E+01 -0.91980469800E+02  0.95017051325E+02  0.00000000000E+00 0.  1.
         12    1    3    3    0    0  0.19561165542E+02 -0.75686100245E+01 -0.97865369551E+03  0.97887842901E+03  0.00000000000E+00 0. -1.
         11    1    5    5    0    0  0.62492646889E+02  0.58124544649E+02  0.17004874413E+03  0.19026394557E+03  0.00000000000E+00 0. -1.
        -12    1    5    5    0    0  0.44538731187E+02  0.25186630879E+02  0.33530440327E+03  0.33918594871E+03  0.00000000000E+00 0.  1.
          5    1    4    4  501    0 -0.11427097599E+03 -0.19510301222E+02 -0.18337803152E+02  0.11744043270E+03  0.41800000000E+01 0. -1.
         -5    1    4    4    0  501  0.10490256021E+02 -0.63120944840E+02 -0.32279001777E+02  0.71789313304E+02  0.41800000000E+01 0. -1.
</event>
<event>
11    1  0.1003949E-008  0.1472975E+03  0.7561462E-02  0.1099673E+00
         22   -1    0    0    0    0  0.00000000000E+00  0.00000000000E+00  0.32949589014E+03  0.32949589014E+03  0.00000000000E+00 0. -1.
         22   -1    0    0    0    0 -0.00000000000E+00 -0.00000000000E+00 -0.17150187208E+03  0.17150187208E+03  0.00000000000E+00 0. -1.
        -24    2    1    2    0    0 -0.31078857708E+01  0.16210640004E+02 -0.59422663101E+02  0.10254048787E+03  0.81921028800E+02 0.  0.
         25    2    1    2    0    0 -0.75087829777E+02 -0.16017551680E+02 -0.74980850941E+01  0.14696699264E+03  0.12509329120E+03 0.  0.
         24    2    1    2    0    0  0.78195715548E+02 -0.19308832365E+00  0.22491476625E+03  0.25149028171E+03  0.80907987879E+02 0.  0.
        -13    1    5    5    0    0  0.51941551389E+01  0.15540695162E+02  0.21312735432E+01  0.16523764119E+02  0.00000000000E+00 0.  1.
         14    1    5    5    0    0  0.73001560409E+02 -0.15733783486E+02  0.22278349271E+03  0.23496651759E+03  0.00000000000E+00 0. -1.
         11    1    3    3    0    0 -0.23341146945E+01  0.13789356240E+02 -0.80300088617E+02  0.81508887055E+02  0.00000000000E+00 0. -1.
        -12    1    3    3    0    0 -0.77377107637E+00  0.24212837632E+01  0.20877425516E+02  0.21031600817E+02  0.00000000000E+00 0.  1.
          5    1    4    4  501    0 -0.45758345569E+02 -0.48408273039E+02  0.43508934714E+02  0.79672372174E+02  0.41800000000E+01 0. -1.
         -5    1    4    4    0  501 -0.29329484208E+02  0.32390721359E+02 -0.51007019808E+02  0.67294620467E+02  0.41800000000E+01 0. -1.
</event>
<event>
11    1  0.1003949E-008  0.1413146E+03  0.7561462E-02  0.1106099E+00
         22   -1    0    0    0    0  0.00000000000E+00  0.00000000000E+00  0.11098377998E+03  0.11098377998E+03  0.00000000000E+00 0.  1.
         22   -1    0    0    0    0 -0.00000000000E+00 -0.00000000000E+00 -0.55788118682E+03  0.55788118682E+03  0.00000000000E+00 0.  1.
         24    2    1    2    0    0 -0.58801204595E+02  0.12626552583E+02 -0.26707481350E+03  0.28503710883E+03  0.79373710431E+02 0.  0.
         25    2    1    2    0    0  0.79441367434E+02 -0.42811076138E+01 -0.23912009324E+03  0.28134462813E+03  0.12508845688E+03 0.  0.
        -24    2    1    2    0    0 -0.20640162839E+02 -0.83454449689E+01  0.59297499908E+02  0.10248322984E+03  0.80566470259E+02 0.  0.
        -13    1    3    3    0    0 -0.11650883697E+02 -0.31873358192E+02 -0.75141559276E+02  0.82449426825E+02  0.00000000000E+00 0.  1.
         14    1    3    3    0    0 -0.47150320899E+02  0.44499910775E+02 -0.19193325423E+03  0.20258768200E+03  0.00000000000E+00 0. -1.
         11    1    5    5    0    0  0.14639170876E+02  0.19145517941E+02 -0.45521319777E+01  0.24527088834E+02  0.00000000000E+00 0. -1.
        -12    1    5    5    0    0 -0.35279333714E+02 -0.27490962909E+02  0.63849631886E+02  0.77956141009E+02  0.00000000000E+00 0.  1.
          5    1    4    4  501    0 -0.30924478012E+02 -0.93989050871E+01 -0.89916765893E+02  0.95640785996E+02  0.41800000000E+01 0. -1.
         -5    1    4    4    0  501  0.11036584545E+03  0.51177974734E+01 -0.14920332735E+03  0.18570384214E+03  0.41800000000E+01 0. -1.
</event>
<event>
11    1  0.1003949E-008  0.1385047E+03  0.7561462E-02  0.1109240E+00
         22   -1    0    0    0    0  0.00000000000E+00  0.00000000000E+00  0.31769836657E+03  0.31769836657E+03  0.00000000000E+00 0. -1.
         22   -1    0    0    0    0 -0.00000000000E+00 -0.00000000000E+00 -0.28167859901E+03  0.28167859901E+03  0.00000000000E+00 0. -1.
        -24    2    1    2    0    0  0.55178191885E+02  0.25229706606E+02 -0.19245038495E+03  0.21741351813E+03  0.80934024010E+02 0.  0.
         25    2    1    2    0    0 -0.20556378449E+02 -0.70692042500E+02  0.14038032152E+02  0.14582868454E+03  0.12509600042E+03 0.  0.
         24    2    1    2    0    0 -0.34621813436E+02  0.45462335894E+02  0.21443212035E+03  0.23613476291E+03  0.80703147793E+02 0.  0.
        -11    1    5    5    0    0 -0.25403858664E+01  0.13936637529E+01 -0.72719857013E+01  0.78280032605E+01  0.00000000000E+00 0.  1.
         12    1    5    5    0    0 -0.32081427569E+02  0.44068672141E+02  0.22170410606E+03  0.22830675965E+03  0.00000000000E+00 0. -1.
         11    1    3    3    0    0 -0.83400124331E+01  0.38965844657E+00 -0.11041362666E+03  0.11072884265E+03  0.00000000000E+00 0. -1.
        -12    1    3    3    0    0  0.63518204318E+02  0.24840048160E+02 -0.82036758288E+02  0.10668467548E+03  0.00000000000E+00 0.  1.
          5    1    4    4  501    0  0.36609264945E+02 -0.56119077658E+02  0.43255929108E+02  0.79863239103E+02  0.41800000000E+01 0. -1.
         -5    1    4    4    0  501 -0.57165643395E+02 -0.14572964842E+02 -0.29217896956E+02  0.65965445436E+02  0.41800000000E+01 0. -1.
</event>
<event>
11    1  0.1003949E-008  0.2029201E+03  0.7561462E-02  0.1052478E+00
         22   -1    0    0    0    0  0.00000000000E+00  0.00000000000E+00  0.87308037362E+03  0.87308037362E+03  0.00000000000E+00 0.  1.
         22   -1    0    0    0    0 -0.00000000000E+00 -0.00000000000E+00 -0.14952737445E+04  0.14952737445E+04  0.00000000000E+00 0. -1.
        -24    2    1    2    0    0  0.14175745300E+03  0.29986629678E+02 -0.77380909003E+03  0.79108275016E+03  0.77698367804E+02 0.  0.
         25    2    1    2    0    0 -0.15520161596E+03 -0.16835702375E+03 -0.68104828099E+03  0.72931937406E+03  0.12509340228E+03 0.  0.
         24    2    1    2    0    0  0.13444162962E+02  0.13837039407E+03  0.83266400013E+03  0.84795199391E+03  0.79788065524E+02 0.  0.
        -11    1    5    5    0    0  0.44387734368E+01  0.74505991243E+02  0.64929930822E+03  0.65357511971E+03  0.00000000000E+00 0.  1.
         12    1    5    5    0    0  0.90053895250E+01  0.63864402828E+02  0.18336469190E+03  0.19437687420E+03  0.00000000000E+00 0. -1.
         13    1    3    3    0    0  0.14382714611E+03  0.13115796793E+02 -0.63385737703E+03  0.65010264304E+03  0.00000000000E+00 0. -1.
        -14    1    3    3    0    0 -0.20696931071E+01  0.16870832885E+02 -0.13995171300E+03  0.14098010712E+03  0.00000000000E+00 0.  1.
          5    1    4    4  501    0 -0.70309518862E+02 -0.13513007439E+03 -0.54187648216E+03  0.56289533642E+03  0.41800000000E+01 0.  1.
         -5    1    4    4    0  501 -0.84892097102E+02 -0.33226949362E+02 -0.13917179883E+03  0.16642403764E+03  0.41800000000E+01 0.  1.
</event>
<event>
11    1  0.1003949E-008  0.1540794E+03  0.7561462E-02  0.1092782E+00
         22   -1    0    0    0    0  0.00000000000E+00  0.00000000000E+00  0.58626568567E+03  0.58626568567E+03  0.00000000000E+00 0. -1.
         22   -1    0    0    0    0 -0.00000000000E+00 -0.00000000000E+00 -0.21209672591E+04  0.21209672591E+04  0.00000000000E+00 0. -1.
         24    2    1    2    0    0 -0.41476749037E+02  0.78568613144E+02 -0.19862896814E+04  0.19899744953E+04  0.82209768226E+02 0.  0.
         25    2    1    2    0    0  0.22981257268E+02 -0.13624051697E+03 -0.59906789968E+02  0.19576568017E+03  0.12508301803E+03 0.  0.
        -24    2    1    2    0    0  0.18495491768E+02  0.57671903827E+02  0.51149489798E+03  0.52149276922E+03  0.81606041370E+02 0.  0.
        -13    1    3    3    0    0 -0.32315007220E+02  0.12985291982E+01 -0.27135584564E+03  0.27327630858E+03  0.00000000000E+00 0.  1.
         14    1    3    3    0    0 -0.91617418170E+01  0.77270083946E+02 -0.17149338357E+04  0.17166981867E+04  0.00000000000E+00 0. -1.
         13    1    5    5    0    0  0.14548117931E+02  0.78143325836E+02  0.43527194130E+03  0.44246998767E+03  0.00000000000E+00 0. -1.
        -14    1    5    5    0    0  0.39473738368E+01 -0.20471422009E+02  0.76222956675E+02  0.79022781547E+02  0.00000000000E+00 0.  1.
          5    1    4    4  501    0  0.14921794365E+02 -0.11330312141E+02  0.34125653519E+02  0.39154419270E+02  0.41800000000E+01 0.  1.
         -5    1    4    4    0  501  0.80594629034E+01 -0.12491020483E+03 -0.94032443487E+02  0.15661126090E+03  0.41800000000E+01 0.  1.
</event>
<event>
11    1  0.1003949E-008  0.1751710E+03  0.7561462E-02  0.1073617E+00
         22   -1    0    0    0    0  0.00000000000E+00  0.00000000000E+00  0.99728320398E+03  0.99728320398E+03  0.00000000000E+00 0.  1.
         22   -1    0    0    0    0 -0.00000000000E+00 -0.00000000000E+00 -0.19799693429E+03  0.19799693429E+03  0.00000000000E+00 0.  1.
         24    2    1    2    0    0  0.11576136260E+03  0.32861442348E+02 -0.12058349227E+03  0.18797090601E+03  0.79448822733E+02 0.  0.
         25    2    1    2    0    0 -0.15427767972E+03  0.39017451997E+02  0.22683555055E+03  0.30401632570E+03  0.12509034847E+03 0.  0.
        -24    2    1    2    0    0  0.38516317120E+02 -0.71878894345E+02  0.69303421141E+03  0.70329290657E+03  0.87603721983E+02 0.  0.
        -13    1    3    3    0    0  0.10634423893E+03  0.38285226142E+02 -0.13092937213E+03  0.17296634407E+03  0.00000000000E+00 0.  1.
         14    1    3    3    0    0  0.94171236689E+01 -0.54237837943E+01  0.10345879861E+02  0.15004561938E+02  0.00000000000E+00 0. -1.
         11    1    5    5    0    0 -0.18050228666E+02 -0.38139777044E+01  0.37298006755E+02  0.41611278383E+02  0.00000000000E+00 0. -1.
        -12    1    5    5    0    0  0.56566545786E+02 -0.68064916641E+02  0.65573620466E+03  0.66168162819E+03  0.00000000000E+00 0.  1.
          5    1    4    4  501    0 -0.13984058128E+03 -0.55010361883E+01  0.21324869833E+03  0.25510415385E+03  0.41800000000E+01 0. -1.
         -5    1    4    4    0  501 -0.14437098433E+02  0.44518488185E+02  0.13586852212E+02  0.48912171844E+02  0.41800000000E+01 0. -1.
</event>
<event>
11    1  0.1003949E-008  0.1386345E+03  0.7561462E-02  0.1109093E+00
         22   -1    0    0    0    0  0.00000000000E+00  0.00000000000E+00  0.30615880887E+03  0.30615880887E+03  0.00000000000E+00 0.  1.
         22   -1    0    0    0    0 -0.00000000000E+00 -0.00000000000E+00 -0.82422532715E+03  0.82422532715E+03  0.00000000000E+00 0. -1.
        -24    2    1    2    0    0  0.28235184399E+02 -0.83271952995E+01 -0.76419486520E+03  0.76891375955E+03  0.79799810823E+02 0.  0.
         25    2    1    2    0    0  0.34867660137E+02  0.25447582766E+02  0.53854787718E+02  0.14286811310E+03  0.12509047281E+03 0.  0.
         24    2    1    2    0    0 -0.63102844535E+02 -0.17120387466E+02  0.19227355920E+03  0.21860226337E+03  0.80887275432E+02 0.  0.
        -11    1    5    5    0    0 -0.73381081443E+02 -0.74882265994E+00  0.18299311514E+03  0.19715938739E+03  0.00000000000E+00 0.  1.
         12    1    5    5    0    0  0.10278236908E+02 -0.16371564806E+02  0.92804440643E+01  0.21442875977E+02  0.00000000000E+00 0. -1.
         13    1    3    3    0    0  0.22808425042E+02  0.21740168110E+02 -0.64810851340E+03  0.64887402807E+03  0.00000000000E+00 0. -1.
        -14    1    3    3    0    0  0.54267593560E+01 -0.30067363409E+02 -0.11608635180E+03  0.12003973148E+03  0.00000000000E+00 0.  1.
          5    1    4    4  501    0 -0.34065757816E+02  0.39309055468E+02  0.50084527946E+02  0.72329869604E+02  0.41800000000E+01 0.  1.
         -5    1    4    4    0  501  0.68933417953E+02 -0.13861472702E+02  0.37702597724E+01  0.70538243492E+02  0.41800000000E+01 0.  1.
</event>
<event>
11    1  0.1003949E-008  0.1373706E+03  0.7561462E-02  0.1110531E+00
         22   -1    0    0    0    0  0.00000000000E+00  0.00000000000E+00  0.23618076713E+04  0.23618076713E+04  0.00000000000E+00 0. -1.
         22   -1    0    0    0    0 -0.00000000000E+00 -0.00000000000E+00 -0.21566474678E+02  0.21566474678E+02  0.00000000000E+00 0. -1.
         24    2    1    2    0    0 -0.44748172733E+00  0.16182805900E+02  0.13311732027E+03  0.15943155496E+03  0.86232918968E+02 0.  0.
         25    2    1    2    0    0 -0.55783765817E+02 -0.21498424376E+02  0.69702582863E+03  0.71068087976E+03  0.12509315052E+03 0.  0.
        -24    2    1    2    0    0  0.56231247545E+02  0.53156184759E+01  0.15100980477E+04  0.15132617112E+04  0.79841618325E+02 0.  0.
        -13    1    3    3    0    0 -0.12504847258E+02 -0.48265904938E+01  0.13450231222E+03  0.13516855838E+03  0.00000000000E+00 0.  1.
         14    1    3    3    0    0  0.12057365531E+02  0.21009396394E+02 -0.13849919521E+01  0.24262996581E+02  0.00000000000E+00 0. -1.
         13    1    5    5    0    0  0.30363116112E+02  0.71634532803E+01  0.13920054295E+04  0.13923549654E+04  0.00000000000E+00 0. -1.
        -14    1    5    5    0    0  0.25868131432E+02 -0.18478348044E+01  0.11809261815E+03  0.12090674579E+03  0.00000000000E+00 0.  1.
          5    1    4    4  501    0 -0.32178728679E+02 -0.47420030048E+02  0.12508426622E+03  0.13765055715E+03  0.41800000000E+01 0. -1.
         -5    1    4    4    0  501 -0.23605037139E+02  0.25921605672E+02  0.57194156241E+03  0.57303032261E+03  0.41800000000E+01 0. -1.
</event>
<event>
11    1  0.1003949E-008  0.1325818E+03  0.7561462E-02  0.1116137E+00
         22   -1    0    0    0    0  0.00000000000E+00  0.00000000000E+00  0.12923802317E+03  0.12923802317E+03  0.00000000000E+00 0.  1.
         22   -1    0    0    0    0 -0.00000000000E+00 -0.00000000000E+00 -0.24530976217E+04  0.24530976217E+04  0.00000000000E+00 0. -1.
        -24    2    1    2    0    0  0.38642071092E+02  0.18376012730E+02 -0.19228074176E+04  0.19249806958E+04  0.80817240374E+02 0.  0.
         25    2    1    2    0    0 -0.31624441204E+02 -0.55916029531E+02 -0.50262428836E+03  0.52192457247E+03  0.12508947381E+03 0.  0.
         24    2    1    2    0    0 -0.70176298879E+01  0.37540016801E+02  0.10157210747E+03  0.13543037661E+03  0.81030820691E+02 0.  0.
        -13    1    5    5    0    0  0.17704401512E+02  0.43630256649E+02  0.99263405973E+02  0.10986477549E+03  0.00000000000E+00 0.  1.
         14    1    5    5    0    0 -0.24722031400E+02 -0.60902398481E+01  0.23087014976E+01  0.25565601119E+02  0.00000000000E+00 0. -1.
         11    1    3    3    0    0  0.48559705035E+02 -0.69151944626E+01 -0.16695619818E+04  0.16702823342E+04  0.00000000000E+00 0. -1.
        -12    1    3    3    0    0 -0.99176339430E+01  0.25291207193E+02 -0.25324543577E+03  0.25469836152E+03  0.00000000000E+00 0.  1.
          5    1    4    4  501    0  0.11726351235E+02 -0.31351160725E+02 -0.25753728493E+02  0.42439716344E+02  0.41800000000E+01 0. -1.
         -5    1    4    4    0  501 -0.43350792439E+02 -0.24564868806E+02 -0.47687055987E+03  0.47948485613E+03  0.41800000000E+01 0. -1.
</event>
<event>
11    1  0.1003949E-008  0.1543412E+03  0.7561462E-02  0.1092524E+00
         22   -1    0    0    0    0  0.00000000000E+00  0.00000000000E+00  0.97810030358E+02  0.97810030358E+02  0.00000000000E+00 0.  1.
         22   -1    0    0    0    0 -0.00000000000E+00 -0.00000000000E+00 -0.16082820366E+04  0.16082820366E+04  0.00000000000E+00 0.  1.
        -24    2    1    2    0    0 -0.90249498184E+02  0.30572694028E+02 -0.12568267655E+04  0.12629181368E+04  0.79177271448E+02 0.  0.
         25    2    1    2    0    0  0.67580769728E+02 -0.34320408592E+01 -0.30793777899E+03  0.33919164315E+03  0.12508539368E+03 0.  0.
         24    2    1    2    0    0  0.22668728456E+02 -0.27140653169E+02  0.54292538304E+02  0.10398228692E+03  0.81327424488E+02 0.  0.
        -11    1    5    5    0    0 -0.20521543076E+02 -0.97678310483E+01  0.52711048293E+02  0.57402080675E+02  0.00000000000E+00 0.  1.
         12    1    5    5    0    0  0.43190271531E+02 -0.17372822121E+02  0.15814900107E+01  0.46580206247E+02  0.00000000000E+00 0. -1.
         11    1    3    3    0    0  0.45956661604E+01 -0.14450870244E+02 -0.80527308828E+02  0.81942633990E+02  0.00000000000E+00 0. -1.
        -12    1    3    3    0    0 -0.94845164344E+02  0.45023564272E+02 -0.11762994567E+04  0.11809755029E+04  0.00000000000E+00 0.  1.
          5    1    4    4  501    0  0.43331712201E+02 -0.35896519123E+02 -0.28866259669E+03  0.29412542307E+03  0.41800000000E+01 0.  1.
         -5    1    4    4    0  501  0.24249057527E+02  0.32464478264E+02 -0.19275182302E+02  0.45066220084E+02  0.41800000000E+01 0.  1.
</event>
<event>
11    1  0.1003949E-008  0.1741673E+03  0.7561462E-02  0.1074461E+00
         22   -1    0    0    0    0  0.00000000000E+00  0.00000000000E+00  0.16868721316E+04  0.16868721316E+04  0.00000000000E+00 0. -1.
         22   -1    0    0    0    0 -0.00000000000E+00 -0.00000000000E+00 -0.16811309661E+04  0.16811309661E+04  0.00000000000E+00 0. -1.
        -24    2    1    2    0    0 -0.94167615294E+01 -0.12206785275E+03 -0.16349191600E+04  0.16411472743E+04  0.73583150707E+02 0.  0.
         25    2    1    2    0    0  0.58028722385E+02  0.61431760131E+02  0.97208441747E+02  0.17955060211E+03  0.12509094211E+03 0.  0.
         24    2    1    2    0    0 -0.48611960855E+02  0.60636092615E+02  0.15434518838E+04  0.15473052212E+04  0.76615088075E+02 0.  0.
        -13    1    5    5    0    0 -0.55941218395E+01 -0.18343645394E+02  0.28240143089E+03  0.28305185337E+03  0.00000000000E+00 0.  1.
         14    1    5    5    0    0 -0.43017839016E+02  0.78979738009E+02  0.12610504529E+04  0.12642533679E+04  0.00000000000E+00 0. -1.
         13    1    3    3    0    0 -0.88381823848E+01 -0.63032450499E+02 -0.12601493797E+04  0.12617557856E+04  0.00000000000E+00 0. -1.
        -14    1    3    3    0    0 -0.57857914456E+00 -0.59035402247E+02 -0.37476978032E+03  0.37939148872E+03  0.00000000000E+00 0.  1.
          5    1    4    4  501    0  0.16919203608E+01 -0.35095193433E+02  0.74860281916E+01  0.36166949204E+02  0.41800000000E+01 0. -1.
         -5    1    4    4    0  501  0.56336802024E+02  0.96526953564E+02  0.89722413556E+02  0.14338365291E+03  0.41800000000E+01 0. -1.
</event>
<event>
11    1  0.1003949E-008  0.1449937E+03  0.7561462E-02  0.1102107E+00
         22   -1    0    0    0    0  0.00000000000E+00  0.00000000000E+00  0.78950090497E+03  0.78950090497E+03  0.00000000000E+00 0. -1.
         22   -1    0    0    0    0 -0.00000000000E+00 -0.00000000000E+00 -0.16380367980E+04  0.16380367980E+04  0.00000000000E+00 0. -1.
         24    2    1    2    0    0 -0.48847063957E+02 -0.15263035518E+02 -0.15043611345E+04  0.15073612105E+04  0.80102434566E+02 0.  0.
         25    2    1    2    0    0  0.12067319671E+03  0.13323523393E+02 -0.68905509013E+02  0.18744305275E+03  0.12508953663E+03 0.  0.
        -24    2    1    2    0    0 -0.71826132751E+02  0.19395121251E+01  0.72473075042E+03  0.73273343977E+03  0.80628023032E+02 0.  0.
        -13    1    3    3    0    0 -0.30665519041E+02 -0.40180471291E+02 -0.50479623286E+03  0.50732049145E+03  0.00000000000E+00 0.  1.
         14    1    3    3    0    0 -0.18181544916E+02  0.24917435773E+02 -0.99956490162E+03  0.10000407190E+04  0.00000000000E+00 0. -1.
         13    1    5    5    0    0 -0.54225990159E+02 -0.36699390425E+02  0.45170605058E+03  0.45642705813E+03  0.00000000000E+00 0. -1.
        -14    1    5    5    0    0 -0.17600142592E+02  0.38638902550E+02  0.27302469985E+03  0.27630638164E+03  0.00000000000E+00 0.  1.
          5    1    4    4  501    0  0.11603875194E+02  0.50327827946E+02 -0.47350556789E+02  0.70193217717E+02  0.41800000000E+01 0.  1.
         -5    1    4    4    0  501  0.10906932151E+03 -0.37004304552E+02 -0.21554952224E+02  0.11724983504E+03  0.41800000000E+01 0.  1.
</event>
<event>
11    1  0.1003949E-008  0.2101467E+03  0.7561462E-02  0.1047572E+00
         22   -1    0    0    0    0  0.00000000000E+00  0.00000000000E+00  0.61313185726E+03  0.61313185726E+03  0.00000000000E+00 0.  1.
         22   -1    0    0    0    0 -0.00000000000E+00 -0.00000000000E+00 -0.16209288550E+04  0.16209288550E+04  0.00000000000E+00 0.  1.
        -24    2    1    2    0    0  0.29942252240E+02  0.16453421835E+03 -0.15263236437E+04  0.15378210750E+04  0.85215878935E+02 0.  0.
         25    2    1    2    0    0 -0.35421119967E+02 -0.22338451213E+03  0.11985696967E+03  0.28489989577E+03  0.12508781488E+03 0.  0.
         24    2    1    2    0    0  0.54788677274E+01  0.58850293779E+02  0.39866967623E+03  0.41133974151E+03  0.82276953784E+02 0.  0.
        -13    1    5    5    0    0  0.31217138107E+02  0.67315619953E+02  0.28953474964E+03  0.29889174235E+03  0.00000000000E+00 0.  1.
         14    1    5    5    0    0 -0.25738270380E+02 -0.84653261746E+01  0.10913492660E+03  0.11244799915E+03  0.00000000000E+00 0. -1.
         11    1    3    3    0    0  0.58957296066E+01  0.17517758888E+02 -0.40152825467E+02  0.44202724996E+02  0.00000000000E+00 0. -1.
        -12    1    3    3    0    0  0.24046522633E+02  0.14701645946E+03 -0.14861708182E+04  0.14936183500E+04  0.00000000000E+00 0.  1.
          5    1    4    4  501    0 -0.43457556023E+02 -0.37507832099E+02  0.73060231468E+02  0.93008959065E+02  0.41800000000E+01 0.  1.
         -5    1    4    4    0  501  0.80364360552E+01 -0.18587668003E+03  0.46796738202E+02  0.19189093670E+03  0.41800000000E+01 0.  1.
</event>
<event>
11    1  0.1003949E-008  0.1832589E+03  0.7561462E-02  0.1067037E+00
         22   -1    0    0    0    0  0.00000000000E+00  0.00000000000E+00  0.50312020688E+02  0.50312020688E+02  0.00000000000E+00 0. -1.
         22   -1    0    0    0    0 -0.00000000000E+00 -0.00000000000E+00 -0.17571185670E+04  0.17571185670E+04  0.00000000000E+00 0. -1.
        -24    2    1    2    0    0  0.11898539010E+03  0.32846442770E+02 -0.10951371132E+04  0.11049527605E+04  0.79742675588E+02 0.  0.
         25    2    1    2    0    0 -0.19089612044E+03 -0.45724387625E+02 -0.43569637360E+03  0.49397489355E+03  0.12509123498E+03 0.  0.
         24    2    1    2    0    0  0.71910730337E+02  0.12877944855E+02 -0.17597305954E+03  0.20850293368E+03  0.84675622653E+02 0.  0.
        -11    1    5    5    0    0 -0.95235718617E+01  0.43263261638E+01 -0.86842355028E+02  0.87470052852E+02  0.00000000000E+00 0.  1.
         12    1    5    5    0    0  0.81434302199E+02  0.85516186917E+01 -0.89130704507E+02  0.12103288083E+03  0.00000000000E+00 0. -1.
         11    1    3    3    0    0  0.12667293979E+03  0.34093438419E+02 -0.10799222412E+04  0.10878604889E+04  0.00000000000E+00 0. -1.
        -12    1    3    3    0    0 -0.76875496876E+01 -0.12469956492E+01 -0.15214871984E+02  0.17092271582E+02  0.00000000000E+00 0.  1.
          5    1    4    4  501    0 -0.15766864640E+03 -0.70109978084E+02 -0.41093282584E+03  0.44571074795E+03  0.41800000000E+01 0.  1.
         -5    1    4    4    0  501 -0.33227474038E+02  0.24385590459E+02 -0.24763547757E+02  0.48264145600E+02  0.41800000000E+01 0.  1.
</event>
<event>
11    1  0.1003949E-008  0.1482283E+03  0.7561462E-02  0.1098703E+00
         22   -1    0    0    0    0  0.00000000000E+00  0.00000000000E+00  0.19628988239E+04  0.19628988239E+04  0.00000000000E+00 0. -1.
         22   -1    0    0    0    0 -0.00000000000E+00 -0.00000000000E+00 -0.17289148012E+03  0.17289148012E+03  0.00000000000E+00 0. -1.
         24    2    1    2    0    0  0.80829401407E+01 -0.23730613629E+02 -0.12259554664E+03  0.15365713683E+03  0.89176071337E+02 0.  0.
         25    2    1    2    0    0 -0.85485309220E+02  0.38839782832E+02  0.15265513768E+03  0.21855815919E+03  0.12509121098E+03 0.  0.
        -24    2    1    2    0    0  0.77402369079E+02 -0.15109169203E+02  0.17599477528E+04  0.17635750080E+04  0.81001868479E+02 0.  0.
        -11    1    3    3    0    0 -0.64085811075E+01 -0.71027288485E+01  0.13077403668E+02  0.16202998352E+02  0.00000000000E+00 0.  1.
         12    1    3    3    0    0  0.14491521248E+02 -0.16627884780E+02 -0.13567295031E+03  0.13745413848E+03  0.00000000000E+00 0. -1.
         11    1    5    5    0    0 -0.55654101217E+01  0.55698957238E+01  0.74217578907E+03  0.74221755531E+03  0.00000000000E+00 0. -1.
        -12    1    5    5    0    0  0.82967779201E+02 -0.20679064927E+02  0.10177719637E+04  0.10213574527E+04  0.00000000000E+00 0.  1.
          5    1    4    4  501    0  0.37810669115E+01 -0.13767080553E+02  0.10212598031E+03  0.10320376557E+03  0.41800000000E+01 0.  1.
         -5    1    4    4    0  501 -0.89266376131E+02  0.52606863385E+02  0.50529157376E+02  0.11535439362E+03  0.41800000000E+01 0.  1.
</event>
<event>
11    1  0.1003949E-008  0.1294686E+03  0.7561462E-02  0.1119924E+00
         22   -1    0    0    0    0  0.00000000000E+00  0.00000000000E+00  0.13971636542E+03  0.13971636542E+03  0.00000000000E+00 0. -1.
         22   -1    0    0    0    0 -0.00000000000E+00 -0.00000000000E+00 -0.97046718697E+03  0.97046718697E+03  0.00000000000E+00 0. -1.
         24    2    1    2    0    0  0.12065607228E+02  0.23054301337E+02 -0.59580509390E+03  0.60164271299E+03  0.79455424546E+02 0.  0.
         25    2    1    2    0    0  0.88996952474E+01  0.42278346193E+01 -0.34594583527E+03  0.36799847951E+03  0.12508909152E+03 0.  0.
        -24    2    1    2    0    0 -0.20965302476E+02 -0.27282135956E+02  0.11100010763E+03  0.14054235988E+03  0.79039687358E+02 0.  0.
        -13    1    3    3    0    0  0.23548216408E+01  0.14900910982E+02 -0.17118485693E+02  0.22817205909E+02  0.00000000000E+00 0.  1.
         14    1    3    3    0    0  0.97107855873E+01  0.81533903550E+01 -0.57868660821E+03  0.57882550708E+03  0.00000000000E+00 0. -1.
         11    1    5    5    0    0  0.27214998534E+02 -0.15538369620E+01  0.17925859771E+02  0.32625251004E+02  0.00000000000E+00 0. -1.
        -12    1    5    5    0    0 -0.48180301010E+02 -0.25728298994E+02  0.93074247858E+02  0.10791710888E+03  0.00000000000E+00 0.  1.
          5    1    4    4  501    0  0.49103727730E+02 -0.38702151527E+02 -0.13270255888E+03  0.14675310607E+03  0.41800000000E+01 0.  1.
         -5    1    4    4    0  501 -0.40204032482E+02  0.42929986147E+02 -0.21324327640E+03  0.22124537344E+03  0.41800000000E+01 0.  1.
</event>
<event>
11    1  0.1003949E-008  0.2824000E+03  0.7561462E-02  0.1007928E+00
         22   -1    0    0    0    0  0.00000000000E+00  0.00000000000E+00  0.15700919440E+04  0.15700919440E+04  0.00000000000E+00 0. -1.
         22   -1    0    0    0    0 -0.00000000000E+00 -0.00000000000E+00 -0.75581996830E+03  0.75581996830E+03  0.00000000000E+00 0.  1.
        -24    2    1    2    0    0 -0.12206465469E+02 -0.24880271497E+03 -0.66823490506E+03  0.71752011954E+03  0.79028126836E+02 0.  0.
         25    2    1    2    0    0  0.80903299641E+02  0.36570648731E+03  0.64656598327E+03  0.75761570348E+03  0.12508958661E+03 0.  0.
         24    2    1    2    0    0 -0.68696834173E+02 -0.11690377234E+03  0.83594089748E+03  0.85077608928E+03  0.81467926182E+02 0.  0.
        -11    1    5    5    0    0 -0.33631444430E+02 -0.16764921205E+01  0.11444905382E+03  0.11929991869E+03  0.00000000000E+00 0.  1.
         12    1    5    5    0    0 -0.35065389743E+02 -0.11522728022E+03  0.72149184366E+03  0.73147617059E+03  0.00000000000E+00 0. -1.
         13    1    3    3    0    0  0.72247191677E+01 -0.65116827538E+02 -0.96104692186E+02  0.11631212171E+03  0.00000000000E+00 0. -1.
        -14    1    3    3    0    0 -0.19431184636E+02 -0.18368588743E+03 -0.57213021287E+03  0.60120799783E+03  0.00000000000E+00 0.  1.
          5    1    4    4  501    0  0.69169876734E+02  0.35759252934E+03  0.64728490829E+03  0.74273286839E+03  0.41800000000E+01 0.  1.
         -5    1    4    4    0  501  0.11733422907E+02  0.81139579680E+01 -0.71892501858E+00  0.14882835086E+02  0.41800000000E+01 0.  1.
</event>
<event>
11    1  0.1003949E-008  0.1616345E+03  0.7561462E-02  0.1085550E+00
         22   -1    0    0    0    0  0.00000000000E+00  0.00000000000E+00  0.64557626455E+03  0.64557626455E+03  0.00000000000E+00 0.  1.
         22   -1    0    0    0    0 -0.00000000000E+00 -0.00000000000E+00 -0.43090976138E+03  0.43090976138E+03  0.00000000000E+00 0.  1.
        -24    2    1    2    0    0 -0.53239535766E+02  0.55292862751E+01 -0.35747590958E+03  0.36931658426E+03  0.75767356451E+02 0.  0.
         25    2    1    2    0    0  0.66228036283E+02  0.95637185729E+02  0.63953298262E+02  0.18239888335E+03  0.12508678670E+03 0.  0.
         24    2    1    2    0    0 -0.12988500517E+02 -0.10116647200E+03  0.50818911450E+03  0.52477055832E+03  0.82003698575E+02 0.  0.
        -11    1    5    5    0    0 -0.68752250612E+01 -0.11528338496E+03  0.44935567481E+03  0.46395910386E+03  0.00000000000E+00 0.  1.
         12    1    5    5    0    0 -0.61132754562E+01  0.14116912956E+02  0.58833439687E+02  0.60811454461E+02  0.00000000000E+00 0. -1.
         13    1    3    3    0    0 -0.12527882308E+01 -0.99544207070E+01 -0.26617502338E+01  0.10380023327E+02  0.00000000000E+00 0. -1.
        -14    1    3    3    0    0 -0.51986747535E+02  0.15483706982E+02 -0.35481415935E+03  0.35893656094E+03  0.00000000000E+00 0.  1.
          5    1    4    4  501    0  0.23799798737E+02  0.32772689680E+02 -0.37707094844E+02  0.55495738668E+02  0.41800000000E+01 0.  1.
         -5    1    4    4    0  501  0.42428237546E+02  0.62864496049E+02  0.10166039311E+03  0.12690314469E+03  0.41800000000E+01 0.  1.
</event>
<event>
11    1  0.1028178E-008  0.1531666E+03  0.7561462E-02  0.1093686E+00
         22   -1    0    0    0    0  0.00000000000E+00  0.00000000000E+00  0.52373068050E+03  0.52373068050E+03  0.00000000000E+00 0.  1.
         22   -1    0    0    0    0 -0.00000000000E+00 -0.00000000000E+00 -0.43010672877E+03  0.43010672877E+03  0.00000000000E+00 0. -1.
        -24    2    1    2    0    0 -0.34176722844E+01  0.29771538967E+02 -0.26261025713E+03  0.27653170691E+03  0.81287223830E+02 0.  0.
         25    2    1    2    0    0  0.19554374803E+02  0.58474858155E+02 -0.12135945667E+03  0.18487244836E+03  0.12509205343E+03 0.  0.
         24    2    1    2    0    0 -0.16136702519E+02 -0.88246397122E+02  0.47759366553E+03  0.49243325400E+03  0.79667939049E+02 0.  0.
        -11    1    5    5    0    0 -0.13676520594E+01 -0.41146814310E+02  0.38769396738E+03  0.38987375282E+03  0.00000000000E+00 0.  1.
         12    1    5    5    0    0 -0.14769050459E+02 -0.47099582812E+02  0.89899698152E+02  0.10255950117E+03  0.00000000000E+00 0. -1.
         13    1    3    3    0    0 -0.13450726362E+02 -0.11950305967E+02 -0.19893412208E+03  0.19974613083E+03  0.00000000000E+00 0. -1.
        -14    1    3    3    0    0  0.10033054078E+02  0.41721844935E+02 -0.63676135048E+02  0.76785576077E+02  0.00000000000E+00 0.  1.
          5    1    4    4  501    0  0.93602831462E+01  0.29316328791E+02 -0.14338200239E+03  0.14670696318E+03  0.41800000000E+01 0.  1.
         -5    1    4    4    0  501  0.10194091657E+02  0.29158529364E+02  0.22022545723E+02  0.38165485187E+02  0.41800000000E+01 0.  1.
</event>
<event>
11    1  0.1003949E-008  0.1736202E+03  0.7561462E-02  0.1074923E+00
         22   -1    0    0    0    0  0.00000000000E+00  0.00000000000E+00  0.28323290306E+03  0.28323290306E+03  0.00000000000E+00 0.  1.
         22   -1    0    0    0    0 -0.00000000000E+00 -0.00000000000E+00 -0.32411900898E+04  0.32411900898E+04  0.00000000000E+00 0. -1.
        -24    2    1    2    0    0  0.11910098715E+03  0.16729249054E+02 -0.28564142025E+04  0.28600951695E+04  0.81100982908E+02 0.  0.
         25    2    1    2    0    0 -0.12668191013E+03  0.29832451585E+02 -0.35246155711E+03  0.39599704051E+03  0.12508487249E+03 0.  0.
         24    2    1    2    0    0  0.75809229884E+01 -0.46561700639E+02  0.25091857287E+03  0.26833078286E+03  0.82557958196E+02 0.  0.
        -11    1    5    5    0    0 -0.23474976166E+02 -0.24662674671E+02  0.20898485342E+03  0.21174038582E+03  0.00000000000E+00 0.  1.
         12    1    5    5    0    0  0.31055899155E+02 -0.21899025968E+02  0.41933719446E+02  0.56590397041E+02  0.00000000000E+00 0. -1.
         11    1    3    3    0    0  0.93365688274E+02  0.45837123243E+02 -0.22814783384E+04  0.22838479814E+04  0.00000000000E+00 0. -1.
        -12    1    3    3    0    0  0.25735298873E+02 -0.29107874188E+02 -0.57493586408E+03  0.57624718806E+03  0.00000000000E+00 0.  1.
          5    1    4    4  501    0 -0.66971484744E+01 -0.33456677852E+02 -0.13786191955E+03  0.14208301219E+03  0.41800000000E+01 0. -1.
         -5    1    4    4    0  501 -0.11998476166E+03  0.63289129437E+02 -0.21459963757E+03  0.25391402832E+03  0.41800000000E+01 0. -1.
</event>
<event>
11    1  0.1003949E-008  0.1503901E+03  0.7561462E-02  0.1096481E+00
         22   -1    0    0    0    0  0.00000000000E+00  0.00000000000E+00  0.39861937687E+03  0.39861937687E+03  0.00000000000E+00 0. -1.
         22   -1    0    0    0    0 -0.00000000000E+00 -0.00000000000E+00 -0.15985098550E+04  0.15985098550E+04  0.00000000000E+00 0.  1.
         24    2    1    2    0    0 -0.32289433489E+02  0.11118056732E+02 -0.96418728149E+03  0.96833864594E+03  0.82803386014E+02 0.  0.
         25    2    1    2    0    0  0.98116706507E+02 -0.61791505483E+02 -0.61257338112E+03  0.63587651544E+03  0.12509083654E+03 0.  0.
        -24    2    1    2    0    0 -0.65827273018E+02  0.50673448751E+02  0.37687018445E+03  0.39291407053E+03  0.73819391834E+02 0.  0.
        -13    1    3    3    0    0 -0.50500431873E+02 -0.56169654999E+01 -0.35163178805E+03  0.35528405296E+03  0.00000000000E+00 0.  1.
         14    1    3    3    0    0  0.18210998384E+02  0.16735022232E+02 -0.61255549343E+03  0.61305459297E+03  0.00000000000E+00 0. -1.
         13    1    5    5    0    0 -0.47080759300E+02  0.26032548128E+02  0.34231703038E+03  0.34651874515E+03  0.00000000000E+00 0. -1.
        -14    1    5    5    0    0 -0.18746513718E+02  0.24640900622E+02  0.34553154074E+02  0.46395325374E+02  0.00000000000E+00 0.  1.
          5    1    4    4  501    0  0.64307436864E+02  0.27920163201E+02 -0.33197636890E+03  0.33932398067E+03  0.41800000000E+01 0.  1.
         -5    1    4    4    0  501  0.33809269643E+02 -0.89711668684E+02 -0.28059701222E+03  0.29655253477E+03  0.41800000000E+01 0.  1.
</event>
<event>
11    1  0.1003949E-008  0.1841597E+03  0.7561462E-02  0.1066327E+00
         22   -1    0    0    0    0  0.00000000000E+00  0.00000000000E+00  0.32197296202E+03  0.32197296202E+03  0.00000000000E+00 0. -1.
         22   -1    0    0    0    0 -0.00000000000E+00 -0.00000000000E+00 -0.37380514514E+03  0.37380514514E+03  0.00000000000E+00 0.  1.
         24    2    1    2    0    0  0.11675293589E+03 -0.27379198393E+02 -0.18023602081E+03  0.23009495506E+03  0.77960224505E+02 0.  0.
         25    2    1    2    0    0 -0.17879801968E+03  0.36227486155E+02 -0.80956186755E+02  0.23555080910E+03  0.12509643041E+03 0.  0.
        -24    2    1    2    0    0  0.62045083785E+02 -0.88482877622E+01  0.20936002444E+03  0.23013234299E+03  0.72120668599E+02 0.  0.
        -13    1    3    3    0    0  0.58382151306E+02 -0.11882175367E+02 -0.15232921069E+03  0.16356604205E+03  0.00000000000E+00 0.  1.
         14    1    3    3    0    0  0.58370784585E+02 -0.15497023026E+02 -0.27906810119E+02  0.66528913013E+02  0.00000000000E+00 0. -1.
         11    1    5    5    0    0  0.54294908460E+02 -0.27968017042E+02  0.88527423842E+02  0.10755115915E+03  0.00000000000E+00 0. -1.
        -12    1    5    5    0    0  0.77501753247E+01  0.19119729279E+02  0.12083260060E+03  0.12258118385E+03  0.00000000000E+00 0.  1.
          5    1    4    4  501    0 -0.66337859256E+02  0.76767919065E+02 -0.39378731705E+02  0.10891364414E+03  0.41800000000E+01 0. -1.
         -5    1    4    4    0  501 -0.11246016042E+03 -0.40540432910E+02 -0.41577455050E+02  0.12663716497E+03  0.41800000000E+01 0. -1.
</event>
<event>
11    1  0.1003949E-008  0.2097754E+03  0.7561462E-02  0.1047818E+00
         22   -1    0    0    0    0  0.00000000000E+00  0.00000000000E+00  0.11921969288E+04  0.11921969288E+04  0.00000000000E+00 0. -1.
         22   -1    0    0    0    0 -0.00000000000E+00 -0.00000000000E+00 -0.53679629683E+03  0.53679629683E+03  0.00000000000E+00 0. -1.
        -24    2    1    2    0    0 -0.12842435493E+03 -0.10021842958E+03 -0.34279339374E+03  0.38795281516E+03  0.80396066008E+02 0.  0.
         25    2    1    2    0    0  0.16513243448E+03  0.90988221092E+02 -0.94204506720E+02  0.24509083095E+03  0.12508976391E+03 0.  0.
         24    2    1    2    0    0 -0.36708079550E+02  0.92302084932E+01  0.10923985325E+04  0.10959495795E+04  0.79613110357E+02 0.  0.
        -13    1    5    5    0    0 -0.52881869581E+02 -0.16754284453E+02  0.58329189899E+03  0.58592374727E+03  0.00000000000E+00 0.  1.
         14    1    5    5    0    0  0.16173790031E+02  0.25984492946E+02  0.50910663346E+03  0.51002583228E+03  0.00000000000E+00 0. -1.
         13    1    3    3    0    0 -0.13470137902E+03 -0.91938543891E+02 -0.34015905509E+03  0.37723380034E+03  0.00000000000E+00 0. -1.
        -14    1    3    3    0    0  0.62770240880E+01 -0.82798856944E+01 -0.26343386536E+01  0.10719014817E+02  0.00000000000E+00 0.  1.
          5    1    4    4  501    0 -0.55247657620E+01  0.15723257139E+02  0.19984465043E+02  0.26355172070E+02  0.41800000000E+01 0. -1.
         -5    1    4    4    0  501  0.17065720025E+03  0.75264963952E+02 -0.11418897176E+03  0.21873565888E+03  0.41800000000E+01 0. -1.
</event>
<event>
11    1  0.1003949E-008  0.1658432E+03  0.7561462E-02  0.1081707E+00
         22   -1    0    0    0    0  0.00000000000E+00  0.00000000000E+00  0.95534014786E+03  0.95534014786E+03  0.00000000000E+00 0. -1.
         22   -1    0    0    0    0 -0.00000000000E+00 -0.00000000000E+00 -0.35606498914E+03  0.35606498914E+03  0.00000000000E+00 0. -1.
        -24    2    1    2    0    0 -0.26041647557E+02 -0.11160578774E+03 -0.20182958433E+03  0.24871336036E+03  0.89381962631E+02 0.  0.
         25    2    1    2    0    0  0.75382425363E+02  0.76362635591E+02 -0.74803775174E+02  0.18098831052E+03  0.12508957429E+03 0.  0.
         24    2    1    2    0    0 -0.49340777806E+02  0.35243152149E+02  0.87590851822E+03  0.88170346612E+03  0.80676376680E+02 0.  0.
        -11    1    5    5    0    0  0.14044592572E+02  0.15982201230E+02  0.72209681274E+02  0.75278943977E+02  0.00000000000E+00 0.  1.
         12    1    5    5    0    0 -0.63385370378E+02  0.19260950919E+02  0.80369883695E+03  0.80642452215E+03  0.00000000000E+00 0. -1.
         11    1    3    3    0    0 -0.32896801175E+02 -0.97720462075E+02 -0.93208244137E+02  0.13899375889E+03  0.00000000000E+00 0. -1.
        -12    1    3    3    0    0  0.68551536182E+01 -0.13885325665E+02 -0.10862134019E+03  0.10971960146E+03  0.00000000000E+00 0.  1.
          5    1    4    4  501    0  0.30893503202E+02  0.35115648543E+02  0.32876984143E+02  0.57322646476E+02  0.41800000000E+01 0.  1.
         -5    1    4    4    0  501  0.44488922161E+02  0.41246987047E+02 -0.10768075932E+03  0.12366566404E+03  0.41800000000E+01 0.  1.
</event>
<event>
11    1  0.1003949E-008  0.1716643E+03  0.7561462E-02  0.1076592E+00
         22   -1    0    0    0    0  0.00000000000E+00  0.00000000000E+00  0.42672988184E+03  0.42672988184E+03  0.00000000000E+00 0.  1.
         22   -1    0    0    0    0 -0.00000000000E+00 -0.00000000000E+00 -0.10956797310E+04  0.10956797310E+04  0.00000000000E+00 0.  1.
         24    2    1    2    0    0  0.75205918912E+02 -0.14301135017E+02 -0.98953124641E+03  0.99569166289E+03  0.79808190202E+02 0.  0.
         25    2    1    2    0    0 -0.18022744730E+03 -0.42525575301E+01  0.50185377542E+02  0.22509129695E+03  0.12508997896E+03 0.  0.
        -24    2    1    2    0    0  0.10502152839E+03  0.18553692547E+02  0.27039601975E+03  0.30162665296E+03  0.80565931653E+02 0.  0.
        -13    1    3    3    0    0  0.83833173352E+02 -0.29208993334E+02 -0.90980939197E+03  0.91413034955E+03  0.00000000000E+00 0.  1.
         14    1    3    3    0    0 -0.86272544406E+01  0.14907858317E+02 -0.79721854444E+02  0.81561313346E+02  0.00000000000E+00 0. -1.
         11    1    5    5    0    0  0.42800774755E+01 -0.22863811269E+02  0.32356577021E+02  0.39849981248E+02  0.00000000000E+00 0. -1.
        -12    1    5    5    0    0  0.10074145091E+03  0.41417503816E+02  0.23803944273E+03  0.26177667171E+03  0.00000000000E+00 0.  1.
          5    1    4    4  501    0 -0.91503232264E+02 -0.64180085468E+02  0.18574313110E+02  0.11337725695E+03  0.41800000000E+01 0.  1.
         -5    1    4    4    0  501 -0.88724215038E+02  0.59927527938E+02  0.31611064432E+02  0.11171404000E+03  0.41800000000E+01 0.  1.
</event>
<event>
11    1  0.1003949E-008  0.1409134E+03  0.7561462E-02  0.1106543E+00
         22   -1    0    0    0    0  0.00000000000E+00  0.00000000000E+00  0.40338094035E+03  0.40338094035E+03  0.00000000000E+00 0.  1.
         22   -1    0    0    0    0 -0.00000000000E+00 -0.00000000000E+00 -0.12543818356E+03  0.12543818356E+03  0.00000000000E+00 0.  1.
         24    2    1    2    0    0  0.53168678723E+02  0.32138827050E+02 -0.51134004371E+02  0.11524449322E+03  0.82503298190E+02 0.  0.
         25    2    1    2    0    0 -0.49414647763E+02 -0.71290088389E+02  0.15150863657E+03  0.21476963624E+03  0.12508815123E+03 0.  0.
        -24    2    1    2    0    0 -0.37540309598E+01  0.39151261339E+02  0.17756812459E+03  0.19880499445E+03  0.80287439450E+02 0.  0.
        -13    1    3    3    0    0  0.18003031725E+02  0.41910804819E+02 -0.62175266843E+02  0.77112829794E+02  0.00000000000E+00 0.  1.
         14    1    3    3    0    0  0.35165646998E+02 -0.97719777693E+01  0.11041262472E+02  0.38131663422E+02  0.00000000000E+00 0. -1.
         11    1    5    5    0    0 -0.22044342686E+02 -0.18588249861E+02  0.56839114306E+02  0.63735084471E+02  0.00000000000E+00 0. -1.
        -12    1    5    5    0    0  0.18290311727E+02  0.57739511200E+02  0.12072901029E+03  0.13506990998E+03  0.00000000000E+00 0.  1.
          5    1    4    4  501    0 -0.11046710046E+02  0.14965348866E+02  0.10986029846E+03  0.11150223786E+03  0.41800000000E+01 0. -1.
         -5    1    4    4    0  501 -0.38367937717E+02 -0.86255437256E+02  0.41648338109E+02  0.10326739838E+03  0.41800000000E+01 0. -1.
</event>
<event>
11    1  0.1003949E-008  0.1339137E+03  0.7561462E-02  0.1114552E+00
         22   -1    0    0    0    0  0.00000000000E+00  0.00000000000E+00  0.28711370350E+04  0.28711370350E+04  0.00000000000E+00 0. -1.
         22   -1    0    0    0    0 -0.00000000000E+00 -0.00000000000E+00 -0.30173407284E+02  0.30173407284E+02  0.00000000000E+00 0.  1.
        -24    2    1    2    0    0  0.50784078533E+01  0.45951645156E+02  0.77509870833E+02  0.11998193064E+03  0.79060354693E+02 0.  0.
         25    2    1    2    0    0  0.31642023608E+02 -0.59641523287E+02  0.62223513851E+03  0.63826510482E+03  0.12508975767E+03 0.  0.
         24    2    1    2    0    0 -0.36720431462E+02  0.13689878131E+02  0.21412186184E+04  0.21430634069E+04  0.79798440900E+02 0.  0.
        -13    1    5    5    0    0  0.20298051274E+02 -0.14349384147E+02  0.71005394123E+03  0.71048892685E+03  0.00000000000E+00 0.  1.
         14    1    5    5    0    0 -0.57018482736E+02  0.28039262278E+02  0.14311646772E+04  0.14325744800E+04  0.00000000000E+00 0. -1.
         13    1    3    3    0    0  0.26652536431E+02 -0.42704159331E+01  0.54219618291E+02  0.60566997268E+02  0.00000000000E+00 0. -1.
        -14    1    3    3    0    0 -0.21574128577E+02  0.50222061089E+02  0.23290252542E+02  0.59414933370E+02  0.00000000000E+00 0.  1.
          5    1    4    4  501    0  0.79590997215E+02 -0.37449565185E+02  0.34911295338E+03  0.36004794596E+03  0.41800000000E+01 0. -1.
         -5    1    4    4    0  501 -0.47948973607E+02 -0.22191958102E+02  0.27312218513E+03  0.27821715886E+03  0.41800000000E+01 0. -1.
</event>
<event>
11    1  0.1003949E-008  0.1267338E+03  0.7561462E-02  0.1123349E+00
         22   -1    0    0    0    0  0.00000000000E+00  0.00000000000E+00  0.29368464592E+04  0.29368464592E+04  0.00000000000E+00 0.  1.
         22   -1    0    0    0    0 -0.00000000000E+00 -0.00000000000E+00 -0.28079344508E+02  0.28079344508E+02  0.00000000000E+00 0.  1.
         24    2    1    2    0    0 -0.14691512226E+02 -0.82722524181E+01  0.11352849066E+03  0.13955699029E+03  0.79392472290E+02 0.  0.
         25    2    1    2    0    0  0.24491009613E+02  0.13886879544E+02  0.26896068145E+03  0.29795970933E+03  0.12508990864E+03 0.  0.
        -24    2    1    2    0    0 -0.97994973867E+01 -0.56146271263E+01  0.25262779426E+04  0.25274091041E+04  0.74759494605E+02 0.  0.
        -13    1    3    3    0    0  0.92443111200E+01  0.23423291759E+02  0.74099351576E+01  0.26249095679E+02  0.00000000000E+00 0.  1.
         14    1    3    3    0    0 -0.23935823346E+02 -0.31695544177E+02  0.10611855550E+03  0.11330789461E+03  0.00000000000E+00 0. -1.
         11    1    5    5    0    0 -0.37666850685E+02 -0.20519324882E+02  0.12355068025E+04  0.12362511449E+04  0.00000000000E+00 0. -1.
        -12    1    5    5    0    0  0.27867353299E+02  0.14904697755E+02  0.12907711402E+04  0.12911579592E+04  0.00000000000E+00 0.  1.
          5    1    4    4  501    0  0.14383563451E+02  0.23643938009E+02 -0.60510576804E+00  0.27995736374E+02  0.41800000000E+01 0. -1.
         -5    1    4    4    0  501  0.10107446162E+02 -0.97570584645E+01  0.26956578721E+03  0.26996397296E+03  0.41800000000E+01 0. -1.
</event>
<event>
11    1  0.1003949E-008  0.1536353E+03  0.7561462E-02  0.1093221E+00
         22   -1    0    0    0    0  0.00000000000E+00  0.00000000000E+00  0.25806786159E+04  0.25806786159E+04  0.00000000000E+00 0. -1.
         22   -1    0    0    0    0 -0.00000000000E+00 -0.00000000000E+00 -0.10666797440E+04  0.10666797440E+04  0.00000000000E+00 0.  1.
        -24    2    1    2    0    0  0.88997944441E+02  0.65246873618E+01 -0.10260717279E+04  0.10330723065E+04  0.80324304955E+02 0.  0.
         25    2    1    2    0    0 -0.89700487181E+02  0.22826088873E+02  0.13028891255E+03  0.20294815432E+03  0.12508215250E+03 0.  0.
         24    2    1    2    0    0  0.70254273946E+00 -0.29350776235E+02  0.24097816874E+04  0.24113378991E+04  0.81490619621E+02 0.  0.
        -13    1    5    5    0    0 -0.39896999658E+02 -0.14326262585E+02  0.10157187925E+04  0.10166030090E+04  0.00000000000E+00 0.  1.
         14    1    5    5    0    0  0.40599542397E+02 -0.15024513650E+02  0.13940628949E+04  0.13947348901E+04  0.00000000000E+00 0. -1.
         11    1    3    3    0    0  0.12659560253E+00 -0.35353611227E+00  0.15485029749E+01  0.15933849794E+01  0.00000000000E+00 0. -1.
        -12    1    3    3    0    0  0.88871348839E+02  0.68782234741E+01 -0.10276202309E+04  0.10314789215E+04  0.00000000000E+00 0.  1.
          5    1    4    4  501    0  0.24074985236E+02  0.14434639442E+02 -0.17083899191E+01  0.28431579732E+02  0.41800000000E+01 0.  1.
         -5    1    4    4    0  501 -0.11377547242E+03  0.83914494307E+01  0.13199730247E+03  0.17451657459E+03  0.41800000000E+01 0.  1.
</event>
<event>
11    1  0.1003949E-008  0.2558936E+03  0.7561462E-02  0.1020806E+00
         22   -1    0    0    0    0  0.00000000000E+00  0.00000000000E+00  0.13522848739E+03  0.13522848739E+03  0.00000000000E+00 0. -1.
         22   -1    0    0    0    0 -0.00000000000E+00 -0.00000000000E+00 -0.21074486998E+04  0.21074486998E+04  0.00000000000E+00 0.  1.
         24    2    1    2    0    0  0.16427617401E+02  0.12645851381E+03 -0.13904315615E+04  0.13981484567E+04  0.72509016245E+02 0.  0.
         25    2    1    2    0    0 -0.15289483048E+03 -0.27475038400E+03 -0.51765682805E+03  0.61845320987E+03  0.12510467012E+03 0.  0.
        -24    2    1    2    0    0  0.13646721307E+03  0.14829187019E+03 -0.64131822857E+02  0.22607552061E+03  0.79896628893E+02 0.  0.
        -11    1    3    3    0    0 -0.11235347616E+02  0.11248346437E+03 -0.11868465364E+04  0.11922178760E+04  0.00000000000E+00 0.  1.
         12    1    3    3    0    0  0.27662965016E+02  0.13975049442E+02 -0.20358502510E+03  0.20593058074E+03  0.00000000000E+00 0. -1.
         13    1    5    5    0    0  0.11365712403E+03  0.71377468179E+02 -0.23883004439E+02  0.13631978106E+03  0.00000000000E+00 0. -1.
        -14    1    5    5    0    0  0.22810089043E+02  0.76914402010E+02 -0.40248818418E+02  0.89755739554E+02  0.00000000000E+00 0.  1.
          5    1    4    4  501    0 -0.10559519025E+03 -0.85828683120E+02 -0.27856070631E+03  0.31004910345E+03  0.41800000000E+01 0. -1.
         -5    1    4    4    0  501 -0.47299640221E+02 -0.18892170088E+03 -0.23909612174E+03  0.30840410642E+03  0.41800000000E+01 0. -1.
</event>
<event>
11    1  0.1003949E-008  0.1330341E+03  0.7561462E-02  0.1115596E+00
         22   -1    0    0    0    0  0.00000000000E+00  0.00000000000E+00  0.16492941523E+04  0.16492941523E+04  0.00000000000E+00 0. -1.
         22   -1    0    0    0    0 -0.00000000000E+00 -0.00000000000E+00 -0.39094961209E+03  0.39094961209E+03  0.00000000000E+00 0. -1.
         24    2    1    2    0    0  0.42820118374E+02 -0.44900382614E+00 -0.30400148620E+03  0.31725416091E+03  0.79997092807E+02 0.  0.
         25    2    1    2    0    0 -0.69595076366E+02 -0.14568752875E+02 -0.13735059194E+02  0.14453721694E+03  0.12508649813E+03 0.  0.
        -24    2    1    2    0    0  0.26774957993E+02  0.15017756702E+02  0.15760810856E+04  0.15784523866E+04  0.80857385480E+02 0.  0.
        -11    1    3    3    0    0 -0.31981551111E+01 -0.33359948431E+02 -0.95327684682E+02  0.10104692881E+03  0.00000000000E+00 0.  1.
         12    1    3    3    0    0  0.46018273485E+02  0.32910944605E+02 -0.20867380152E+03  0.21620723209E+03  0.00000000000E+00 0. -1.
         11    1    5    5    0    0  0.43330961510E+02 -0.15804742332E+02  0.11548781004E+04  0.11557987666E+04  0.00000000000E+00 0. -1.
        -12    1    5    5    0    0 -0.16556003517E+02  0.30822499033E+02  0.42120298523E+03  0.42265361996E+03  0.00000000000E+00 0.  1.
          5    1    4    4  501    0  0.55305567078E+00  0.44846427386E+02 -0.25504904568E+02  0.51763698447E+02  0.41800000000E+01 0.  1.
         -5    1    4    4    0  501 -0.70148132037E+02 -0.59415180261E+02  0.11769845374E+02  0.92773518495E+02  0.41800000000E+01 0.  1.
</event>
<event>
11    1  0.1003949E-008  0.1514629E+03  0.7561462E-02  0.1095393E+00
         22   -1    0    0    0    0  0.00000000000E+00  0.00000000000E+00  0.53382319475E+03  0.53382319475E+03  0.00000000000E+00 0.  1.
         22   -1    0    0    0    0 -0.00000000000E+00 -0.00000000000E+00 -0.46528420536E+03  0.46528420536E+03  0.00000000000E+00 0. -1.
        -24    2    1    2    0    0 -0.59377387552E+02  0.58926911519E+02 -0.40834246111E+03  0.42559398093E+03  0.85957059070E+02 0.  0.
         25    2    1    2    0    0  0.97263675493E+02 -0.76054339710E+02  0.14197665221E+03  0.22594116629E+03  0.12509019023E+03 0.  0.
         24    2    1    2    0    0 -0.37886287941E+02  0.17127428191E+02  0.33490479828E+03  0.34757225289E+03  0.83165662717E+02 0.  0.
        -11    1    5    5    0    0 -0.36078914618E+02  0.43867406672E+02  0.28802776191E+03  0.29357457159E+03  0.00000000000E+00 0.  1.
         12    1    5    5    0    0 -0.18073733232E+01 -0.26739978481E+02  0.46877036368E+02  0.53997681303E+02  0.00000000000E+00 0. -1.
         13    1    3    3    0    0 -0.78301295336E+02  0.33408690384E+02 -0.33536346529E+03  0.34599983713E+03  0.00000000000E+00 0. -1.
        -14    1    3    3    0    0  0.18923907784E+02  0.25518221135E+02 -0.72978995816E+02  0.79594143792E+02  0.00000000000E+00 0.  1.
          5    1    4    4  501    0  0.12227285278E+03 -0.70011250996E+02  0.14170286679E+03  0.19987346159E+03  0.41800000000E+01 0.  1.
         -5    1    4    4    0  501 -0.25009177290E+02 -0.60430887141E+01  0.27378542888E+00  0.26067704701E+02  0.41800000000E+01 0.  1.
</event>
<event>
11    1  0.1003949E-008  0.3017435E+03  0.7561462E-02  0.9994560E-01
         22   -1    0    0    0    0  0.00000000000E+00  0.00000000000E+00  0.30101956222E+03  0.30101956222E+03  0.00000000000E+00 0. -1.
         22   -1    0    0    0    0 -0.00000000000E+00 -0.00000000000E+00 -0.43571389568E+03  0.43571389568E+03  0.00000000000E+00 0. -1.
        -24    2    1    2    0    0 -0.65285916780E+01  0.37835221302E+01 -0.10684243337E+03  0.13136189158E+03  0.76050663652E+02 0.  0.
         25    2    1    2    0    0  0.22328524610E+03 -0.16778786615E+03 -0.81965145380E+02  0.31682890484E+03  0.12511275208E+03 0.  0.
         24    2    1    2    0    0 -0.21675665442E+03  0.16400434402E+03  0.54113245288E+02  0.28854266147E+03  0.80297895858E+02 0.  0.
        -11    1    5    5    0    0 -0.17813204113E+03  0.10116894496E+03  0.62822639536E+02  0.21427287169E+03  0.00000000000E+00 0.  1.
         12    1    5    5    0    0 -0.38624613293E+02  0.62835399056E+02 -0.87093942480E+01  0.74269789785E+02  0.00000000000E+00 0. -1.
         13    1    3    3    0    0 -0.25084339523E+02 -0.27181409851E+02 -0.34817332162E+02  0.50796650969E+02  0.00000000000E+00 0. -1.
        -14    1    3    3    0    0  0.18555747845E+02  0.30964931981E+02 -0.72025101207E+02  0.80565240609E+02  0.00000000000E+00 0.  1.
          5    1    4    4  501    0  0.48732839000E+02  0.11948720537E+02  0.71864090290E+01  0.50860381380E+02  0.41800000000E+01 0. -1.
         -5    1    4    4    0  501  0.17455240710E+03 -0.17973658669E+03 -0.89151554409E+02  0.26596852346E+03  0.41800000000E+01 0. -1.
</event>
<event>
11    1  0.1003949E-008  0.1537631E+03  0.7561462E-02  0.1093095E+00
         22   -1    0    0    0    0  0.00000000000E+00  0.00000000000E+00  0.20096837750E+04  0.20096837750E+04  0.00000000000E+00 0.  1.
         22   -1    0    0    0    0 -0.00000000000E+00 -0.00000000000E+00 -0.46304497472E+03  0.46304497472E+03  0.00000000000E+00 0. -1.
        -24    2    1    2    0    0  0.61924784812E+02 -0.63010171004E+02 -0.41687455752E+03  0.43350182900E+03  0.79589436613E+02 0.  0.
         25    2    1    2    0    0 -0.87604444591E+02  0.75043333088E+02  0.15969263346E+03  0.23335369647E+03  0.12508465102E+03 0.  0.
         24    2    1    2    0    0  0.25679659780E+02 -0.12033162084E+02  0.18038207243E+04  0.18058732242E+04  0.81269025973E+02 0.  0.
        -13    1    5    5    0    0  0.55097008226E+02 -0.69085600713E+01  0.12773254077E+04  0.12785318165E+04  0.00000000000E+00 0.  1.
         14    1    5    5    0    0 -0.29417348446E+02 -0.51246020125E+01  0.52649531657E+03  0.52734140773E+03  0.00000000000E+00 0. -1.
         11    1    3    3    0    0  0.15223654887E+02 -0.13966924535E+02 -0.28028566314E+03  0.28104605959E+03  0.00000000000E+00 0. -1.
        -12    1    3    3    0    0  0.46701129925E+02 -0.49043246469E+02 -0.13658889438E+03  0.15245576942E+03  0.00000000000E+00 0.  1.
          5    1    4    4  501    0 -0.94990408122E+02  0.18151832096E+02  0.14438466144E+03  0.17383057701E+03  0.41800000000E+01 0. -1.
         -5    1    4    4    0  501  0.73859635306E+01  0.56891500992E+02  0.15307972014E+02  0.59523119454E+02  0.41800000000E+01 0. -1.
</event>
<event>
11    1  0.1003949E-008  0.1593476E+03  0.7561462E-02  0.1087693E+00
         22   -1    0    0    0    0  0.00000000000E+00  0.00000000000E+00  0.72876720681E+03  0.72876720681E+03  0.00000000000E+00 0. -1.
         22   -1    0    0    0    0 -0.00000000000E+00 -0.00000000000E+00 -0.29125707608E+03  0.29125707608E+03  0.00000000000E+00 0.  1.
        -24    2    1    2    0    0  0.52612667437E+02  0.84444247966E+02 -0.23879687982E+03  0.27085253706E+03  0.80238539573E+02 0.  0.
         25    2    1    2    0    0 -0.17529074614E+02 -0.93967858787E+02  0.15638936794E+03  0.22190595759E+03  0.12508953860E+03 0.  0.
         24    2    1    2    0    0 -0.35083592823E+02  0.95236108207E+01  0.51991764261E+03  0.52726578824E+03  0.79832942465E+02 0.  0.
        -13    1    5    5    0    0 -0.26125402595E+02  0.27524618741E+02  0.10145181955E+03  0.10831718695E+03  0.00000000000E+00 0.  1.
         14    1    5    5    0    0 -0.89581902286E+01 -0.18001007920E+02  0.41846582305E+03  0.41894860129E+03  0.00000000000E+00 0. -1.
         11    1    3    3    0    0 -0.44154649698E+00 -0.13653945159E+02 -0.12280108123E+02  0.18369165392E+02  0.00000000000E+00 0. -1.
        -12    1    3    3    0    0  0.53054213934E+02  0.98098193124E+02 -0.22651677170E+03  0.25248337167E+03  0.00000000000E+00 0.  1.
          5    1    4    4  501    0  0.40366591483E+02  0.49767961471E+01  0.27051640543E+02  0.49025440986E+02  0.41800000000E+01 0.  1.
         -5    1    4    4    0  501 -0.57895666097E+02 -0.98944654934E+02  0.12933772740E+03  0.17288051661E+03  0.41800000000E+01 0.  1.
</event>
<event>
11    1  0.1003949E-008  0.1368241E+03  0.7561462E-02  0.1111157E+00
         22   -1    0    0    0    0  0.00000000000E+00  0.00000000000E+00  0.17787255340E+03  0.17787255340E+03  0.00000000000E+00 0. -1.
         22   -1    0    0    0    0 -0.00000000000E+00 -0.00000000000E+00 -0.15336398672E+04  0.15336398672E+04  0.00000000000E+00 0. -1.
        -24    2    1    2    0    0  0.61553163227E+01 -0.57415916984E+02 -0.13840876813E+04  0.13877035249E+04  0.81779508772E+02 0.  0.
         25    2    1    2    0    0  0.28237092243E+02  0.17372224188E+02 -0.99943467624E+02  0.16351264805E+03  0.12509421170E+03 0.  0.
         24    2    1    2    0    0 -0.34392408566E+02  0.40043692796E+02  0.12826383508E+03  0.16029624768E+03  0.80355090267E+02 0.  0.
        -11    1    5    5    0    0  0.53962560166E+01  0.17529725739E+02 -0.53270484805E+01  0.19099432164E+02  0.00000000000E+00 0.  1.
         12    1    5    5    0    0 -0.39788664582E+02  0.22513967057E+02  0.13359088356E+03  0.14119681552E+03  0.00000000000E+00 0. -1.
         13    1    3    3    0    0 -0.14600442159E+02 -0.72687760922E+02 -0.98703937168E+03  0.98981988500E+03  0.00000000000E+00 0. -1.
        -14    1    3    3    0    0  0.20755758481E+02  0.15271843938E+02 -0.39704830958E+03  0.39788363986E+03  0.00000000000E+00 0.  1.
          5    1    4    4  501    0 -0.45945936194E+02  0.11214509914E+02 -0.13503669448E+02  0.49362088428E+02  0.41800000000E+01 0. -1.
         -5    1    4    4    0  501  0.74183028437E+02  0.61577142735E+01 -0.86439798176E+02  0.11415055962E+03  0.41800000000E+01 0. -1.
</event>
<event>
11    1  0.1003949E-008  0.2565206E+03  0.7561462E-02  0.1020482E+00
         22   -1    0    0    0    0  0.00000000000E+00  0.00000000000E+00  0.31859615011E+04  0.31859615011E+04  0.00000000000E+00 0.  1.
         22   -1    0    0    0    0 -0.00000000000E+00 -0.00000000000E+00 -0.54045470573E+03  0.54045470573E+03  0.00000000000E+00 0.  1.
         24    2    1    2    0    0  0.10736568538E+03 -0.19722364590E+03 -0.45404453321E+03  0.51298915912E+03  0.81097979845E+02 0.  0.
         25    2    1    2    0    0 -0.18491696171E+03  0.14504279410E+03  0.26460706093E+03  0.37536133721E+03  0.12509013522E+03 0.  0.
        -24    2    1    2    0    0  0.77551276326E+02  0.52180851799E+02  0.28349442676E+04  0.28380657105E+04  0.94715018722E+02 0.  0.
        -11    1    3    3    0    0  0.15233804572E+02 -0.95398330891E+02 -0.23963600910E+03  0.25837632863E+03  0.00000000000E+00 0.  1.
         12    1    3    3    0    0  0.92131880808E+02 -0.10182531501E+03 -0.21440852410E+03  0.25461283048E+03  0.00000000000E+00 0. -1.
         13    1    5    5    0    0  0.71252531360E+02  0.60513485002E+02  0.14157131151E+04  0.14187961197E+04  0.00000000000E+00 0. -1.
        -14    1    5    5    0    0  0.62987449664E+01 -0.83326332032E+01  0.14192311525E+04  0.14192695908E+04  0.00000000000E+00 0.  1.
          5    1    4    4  501    0 -0.11589787112E+03  0.10250920960E+03  0.81196112966E+02  0.17478768762E+03  0.41800000000E+01 0. -1.
         -5    1    4    4    0  501 -0.69019090588E+02  0.42533584507E+02  0.18341094797E+03  0.20057364959E+03  0.41800000000E+01 0. -1.
</event>
<event>
11    1  0.1003949E-008  0.2547644E+03  0.7561462E-02  0.1021391E+00
         22   -1    0    0    0    0  0.00000000000E+00  0.00000000000E+00  0.17238958610E+04  0.17238958610E+04  0.00000000000E+00 0.  1.
         22   -1    0    0    0    0 -0.00000000000E+00 -0.00000000000E+00 -0.28313571645E+03  0.28313571645E+03  0.00000000000E+00 0.  1.
         24    2    1    2    0    0 -0.55826908322E+01  0.21934327137E+03 -0.18102665738E+03  0.29556606404E+03  0.80287049997E+02 0.  0.
         25    2    1    2    0    0  0.18771685073E+03 -0.25460610476E+03  0.91007064813E+03  0.97156323613E+03  0.12507858564E+03 0.  0.
        -24    2    1    2    0    0 -0.18213415990E+03  0.35262833388E+02  0.71171615377E+03  0.73990227726E+03  0.80617471646E+02 0.  0.
        -13    1    3    3    0    0  0.30041693475E+02  0.73811848512E+02 -0.90186362792E+02  0.12035062260E+03  0.00000000000E+00 0.  1.
         14    1    3    3    0    0 -0.35624384307E+02  0.14553142286E+03 -0.90840294588E+02  0.17521544143E+03  0.00000000000E+00 0. -1.
         11    1    5    5    0    0 -0.63423305463E+02 -0.22862319185E+02  0.30030761101E+03  0.30778216736E+03  0.00000000000E+00 0. -1.
        -12    1    5    5    0    0 -0.11871085444E+03  0.58125152573E+02  0.41140854275E+03  0.43212010989E+03  0.00000000000E+00 0.  1.
          5    1    4    4  501    0  0.16559439353E+03 -0.21998783728E+03  0.87524278825E+03  0.91754213118E+03  0.41800000000E+01 0.  1.
         -5    1    4    4    0  501  0.22122457201E+02 -0.34618267471E+02  0.34827859879E+02  0.54021104941E+02  0.41800000000E+01 0.  1.
</event>
<event>
11    1  0.1003949E-008  0.2306189E+03  0.7561462E-02  0.1034762E+00
         22   -1    0    0    0    0  0.00000000000E+00  0.00000000000E+00  0.89371694532E+03  0.89371694532E+03  0.00000000000E+00 0. -1.
         22   -1    0    0    0    0 -0.00000000000E+00 -0.00000000000E+00 -0.14690457242E+03  0.14690457242E+03  0.00000000000E+00 0.  1.
        -24    2    1    2    0    0 -0.12683615820E+03  0.72867598127E+02  0.64713196688E+01  0.16714442613E+03  0.80611930421E+02 0.  0.
         25    2    1    2    0    0 -0.12124136819E+03 -0.93916511523E+02  0.25865013520E+03  0.32568021758E+03  0.12509169112E+03 0.  0.
         24    2    1    2    0    0  0.24807752639E+03  0.21048913397E+02  0.48169091803E+03  0.54779687402E+03  0.77908656901E+02 0.  0.
        -11    1    5    5    0    0  0.24632396511E+03  0.23258578745E+02  0.43054874969E+03  0.49657696597E+03  0.00000000000E+00 0.  1.
         12    1    5    5    0    0  0.17535612786E+01 -0.22096653483E+01  0.51142168346E+02  0.51219908056E+02  0.00000000000E+00 0. -1.
         13    1    3    3    0    0 -0.93178677423E+01  0.41701997739E+02  0.14946106267E+02  0.45268812302E+02  0.00000000000E+00 0. -1.
        -14    1    3    3    0    0 -0.11751829046E+03  0.31165600388E+02 -0.84747865977E+01  0.12187561383E+03  0.00000000000E+00 0.  1.
          5    1    4    4  501    0  0.10183201530E+02 -0.61461421888E+02  0.78918186362E+02  0.10063178679E+03  0.41800000000E+01 0.  1.
         -5    1    4    4    0  501 -0.13142456972E+03 -0.32455089635E+02  0.17973194884E+03  0.22504843079E+03  0.41800000000E+01 0.  1.
</event>
<event>
11    1  0.1003949E-008  0.1467305E+03  0.7561462E-02  0.1100267E+00
         22   -1    0    0    0    0  0.00000000000E+00  0.00000000000E+00  0.45588203187E+03  0.45588203187E+03  0.00000000000E+00 0. -1.
         22   -1    0    0    0    0 -0.00000000000E+00 -0.00000000000E+00 -0.10247605559E+04  0.10247605559E+04  0.00000000000E+00 0. -1.
        -24    2    1    2    0    0 -0.23093663265E+02 -0.92283024837E+00 -0.92513333213E+03  0.92891238856E+03  0.80451069007E+02 0.  0.
         25    2    1    2    0    0  0.22609576197E+02  0.77524435062E+02 -0.27987613747E+02  0.15150254765E+03  0.12509390254E+03 0.  0.
         24    2    1    2    0    0  0.48408706835E+00 -0.76601604814E+02  0.38424242182E+03  0.40022765159E+03  0.81681663619E+02 0.  0.
        -11    1    5    5    0    0  0.23624396426E+02 -0.21721735440E+02  0.42085678475E+02  0.52925893755E+02  0.00000000000E+00 0.  1.
         12    1    5    5    0    0 -0.23140309358E+02 -0.54879869373E+02  0.34215674334E+03  0.34730175784E+03  0.00000000000E+00 0. -1.
         13    1    3    3    0    0 -0.34811059481E+02 -0.29894337608E+02 -0.71466430802E+03  0.71613584915E+03  0.00000000000E+00 0. -1.
        -14    1    3    3    0    0  0.11717396216E+02  0.28971507359E+02 -0.21046902411E+03  0.21277653941E+03  0.00000000000E+00 0.  1.
          5    1    4    4  501    0 -0.84708194778E+01  0.20015425258E+02 -0.70179371083E+02  0.73586605822E+02  0.41800000000E+01 0.  1.
         -5    1    4    4    0  501  0.31080395675E+02  0.57509009804E+02  0.42191757336E+02  0.77915941828E+02  0.41800000000E+01 0.  1.
</event>
<event>
11    1  0.1003949E-008  0.8613655E+03  0.7561462E-02  0.8823358E-01
         22   -1    0    0    0    0  0.00000000000E+00  0.00000000000E+00  0.13630021289E+04  0.13630021289E+04  0.00000000000E+00 0.  1.
         22   -1    0    0    0    0 -0.00000000000E+00 -0.00000000000E+00 -0.78899622511E+03  0.78899622511E+03  0.00000000000E+00 0. -1.
        -24    2    1    2    0    0  0.29241438247E+03  0.81843557945E+03 -0.20988513284E+02  0.87352713302E+03  0.85241806972E+02 0.  0.
         25    2    1    2    0    0 -0.24949889164E+03 -0.79346578672E+03  0.18959777372E+03  0.86222495640E+03  0.12508760137E+03 0.  0.
         24    2    1    2    0    0 -0.42915490825E+02 -0.24969792733E+02  0.40539664340E+03  0.41624626464E+03  0.80307437046E+02 0.  0.
        -11    1    5    5    0    0 -0.28167651496E+02 -0.42757676283E+02  0.37274827247E+03  0.37624846857E+03  0.00000000000E+00 0.  1.
         12    1    5    5    0    0 -0.14747839329E+02  0.17787883550E+02  0.32648370930E+02  0.39997796070E+02  0.00000000000E+00 0. -1.
         13    1    3    3    0    0  0.43661653367E+02  0.23223593651E+03  0.20935116497E+01  0.23631388654E+03  0.00000000000E+00 0. -1.
        -14    1    3    3    0    0  0.24875272910E+03  0.58619964294E+03 -0.23082024934E+02  0.63721324648E+03  0.00000000000E+00 0.  1.
          5    1    4    4  501    0 -0.20676604686E+03 -0.70983395292E+03  0.20434284299E+03  0.76706577862E+03  0.41800000000E+01 0. -1.
         -5    1    4    4    0  501 -0.42732844778E+02 -0.83631833795E+02 -0.14745069270E+02  0.95159177773E+02  0.41800000000E+01 0. -1.
</event>
<event>
11    1  0.1003949E-008  0.1375977E+03  0.7561462E-02  0.1110271E+00
         22   -1    0    0    0    0  0.00000000000E+00  0.00000000000E+00  0.31197825096E+03  0.31197825096E+03  0.00000000000E+00 0.  1.
         22   -1    0    0    0    0 -0.00000000000E+00 -0.00000000000E+00 -0.58572124689E+03  0.58572124689E+03  0.00000000000E+00 0. -1.
        -24    2    1    2    0    0 -0.57892161626E+02 -0.28669462963E+02 -0.45820500405E+03  0.46971876823E+03  0.80687390642E+02 0.  0.
         25    2    1    2    0    0  0.19224327041E+02 -0.13018359218E+02 -0.76503036416E+02  0.14844969901E+03  0.12508215751E+03 0.  0.
         24    2    1    2    0    0  0.38667834585E+02  0.41687822181E+02  0.26096504454E+03  0.27953103062E+03  0.82472823742E+02 0.  0.
        -11    1    5    5    0    0  0.62840505239E+02  0.16788417011E+02  0.15755576445E+03  0.17045409633E+03  0.00000000000E+00 0.  1.
         12    1    5    5    0    0 -0.24172670655E+02  0.24899405170E+02  0.10340928009E+03  0.10907693429E+03  0.00000000000E+00 0. -1.
         13    1    3    3    0    0  0.29451986809E+01 -0.45071627151E+01 -0.27700460115E+03  0.27705692153E+03  0.00000000000E+00 0. -1.
        -14    1    3    3    0    0 -0.60837360307E+02 -0.24162300247E+02 -0.18120040290E+03  0.19266184670E+03  0.00000000000E+00 0.  1.
          5    1    4    4  501    0 -0.48571609276E+02 -0.67280663394E+01 -0.47442666157E+01  0.49441364969E+02  0.41800000000E+01 0. -1.
         -5    1    4    4    0  501  0.67795936317E+02 -0.62902928788E+01 -0.71758769800E+02  0.99008334037E+02  0.41800000000E+01 0. -1.
</event>
<event>
11    1  0.1003949E-008  0.4412221E+03  0.7561462E-02  0.9535395E-01
         22   -1    0    0    0    0  0.00000000000E+00  0.00000000000E+00  0.29890806807E+03  0.29890806807E+03  0.00000000000E+00 0.  1.
         22   -1    0    0    0    0 -0.00000000000E+00 -0.00000000000E+00 -0.27310745704E+04  0.27310745704E+04  0.00000000000E+00 0.  1.
        -24    2    1    2    0    0  0.79046627053E+02  0.35770365691E+03 -0.13461373167E+04  0.13973614863E+04  0.79581231766E+02 0.  0.
         25    2    1    2    0    0  0.31483070477E+03 -0.48289986848E+03 -0.10572235111E+04  0.12106528093E+04  0.12509203213E+03 0.  0.
         24    2    1    2    0    0 -0.39387733183E+03  0.12519621157E+03 -0.28805674528E+02  0.42196834295E+03  0.80087899503E+02 0.  0.
        -13    1    5    5    0    0 -0.37026450815E+03  0.94282820424E+02 -0.26687238829E+02  0.38301078959E+03  0.00000000000E+00 0.  1.
         14    1    5    5    0    0 -0.23612823676E+02  0.30913391147E+02 -0.21184356990E+01  0.38957553362E+02  0.00000000000E+00 0. -1.
         11    1    3    3    0    0  0.35299973342E+02  0.10475496124E+03 -0.54514752343E+03  0.55624231440E+03  0.00000000000E+00 0. -1.
        -12    1    3    3    0    0  0.43746653712E+02  0.25294869567E+03 -0.80098979328E+03  0.84111917187E+03  0.00000000000E+00 0.  1.
          5    1    4    4  501    0  0.15592630530E+03 -0.13322406214E+03 -0.39519887032E+03  0.44526540728E+03  0.41800000000E+01 0.  1.
         -5    1    4    4    0  501  0.15890439948E+03 -0.34967580634E+03 -0.66202464078E+03  0.76538740198E+03  0.41800000000E+01 0.  1.
</event>
<event>
11    1  0.1003949E-008  0.1399548E+03  0.7561462E-02  0.1107609E+00
         22   -1    0    0    0    0  0.00000000000E+00  0.00000000000E+00  0.77898596136E+02  0.77898596136E+02  0.00000000000E+00 0.  1.
         22   -1    0    0    0    0 -0.00000000000E+00 -0.00000000000E+00 -0.73253515191E+03  0.73253515191E+03  0.00000000000E+00 0. -1.
         24    2    1    2    0    0 -0.53994797818E+02  0.27111006261E+02 -0.38029626449E+03  0.39344146837E+03  0.80749584513E+02 0.  0.
         25    2    1    2    0    0  0.89674853223E+02  0.21957049042E+02 -0.27343705826E+03  0.31454455140E+03  0.12508700444E+03 0.  0.
        -24    2    1    2    0    0 -0.35680055405E+02 -0.49068055304E+02 -0.90323302738E+00  0.10244772828E+03  0.82546840002E+02 0.  0.
        -11    1    3    3    0    0  0.15251094189E+02  0.22384528840E+02 -0.16572560526E+03  0.16792450460E+03  0.00000000000E+00 0.  1.
         12    1    3    3    0    0 -0.69245892007E+02  0.47264774215E+01 -0.21457065923E+03  0.22551696377E+03  0.00000000000E+00 0. -1.
         11    1    5    5    0    0 -0.49652457718E+02 -0.15181110483E+02 -0.25957779289E+02  0.58048591529E+02  0.00000000000E+00 0. -1.
        -12    1    5    5    0    0  0.13972402313E+02 -0.33886944820E+02  0.25054546262E+02  0.44399136749E+02  0.00000000000E+00 0.  1.
          5    1    4    4  501    0 -0.81339299679E+01  0.52203880524E+02 -0.94473061613E+02  0.10832376345E+03  0.41800000000E+01 0.  1.
         -5    1    4    4    0  501  0.97808783191E+02 -0.30246831482E+02 -0.17896399665E+03  0.20622078794E+03  0.41800000000E+01 0.  1.
</event>
<event>
11    1  0.1003949E-008  0.1367550E+03  0.7561462E-02  0.1111237E+00
         22   -1    0    0    0    0  0.00000000000E+00  0.00000000000E+00  0.41767150873E+03  0.41767150873E+03  0.00000000000E+00 0. -1.
         22   -1    0    0    0    0 -0.00000000000E+00 -0.00000000000E+00 -0.93648006102E+03  0.93648006102E+03  0.00000000000E+00 0.  1.
        -24    2    1    2    0    0  0.27656821585E+02 -0.21619988153E+02 -0.77626615072E+03  0.78086384089E+03  0.76986216920E+02 0.  0.
         25    2    1    2    0    0 -0.70622263091E+02 -0.12627328395E+02 -0.11767104531E+03  0.18611965941E+03  0.12508836576E+03 0.  0.
         24    2    1    2    0    0  0.42965441506E+02  0.34247316548E+02  0.37512864373E+03  0.38716806945E+03  0.78477428615E+02 0.  0.
        -11    1    5    5    0    0  0.57511283988E+01  0.38048770062E+02  0.71089230569E+02  0.80836025904E+02  0.00000000000E+00 0.  1.
         12    1    5    5    0    0  0.37214313107E+02 -0.38014535145E+01  0.30403941316E+03  0.30633204355E+03  0.00000000000E+00 0. -1.
         13    1    3    3    0    0 -0.21706678584E+02 -0.19062233290E+02 -0.15757146135E+03  0.16019773427E+03  0.00000000000E+00 0. -1.
        -14    1    3    3    0    0  0.49363500169E+02 -0.25577548623E+01 -0.61869468936E+03  0.62066610662E+03  0.00000000000E+00 0.  1.
          5    1    4    4  501    0 -0.41103213933E+02 -0.53252888017E+02 -0.11781052344E+03  0.13572816993E+03  0.41800000000E+01 0. -1.
         -5    1    4    4    0  501 -0.29519049159E+02  0.40625559622E+02  0.13947813773E+00  0.50391489480E+02  0.41800000000E+01 0. -1.
</event>
<event>
11    1  0.1003949E-008  0.2334445E+03  0.7561462E-02  0.1033108E+00
         22   -1    0    0    0    0  0.00000000000E+00  0.00000000000E+00  0.14705507129E+04  0.14705507129E+04  0.00000000000E+00 0. -1.
         22   -1    0    0    0    0 -0.00000000000E+00 -0.00000000000E+00 -0.50964919668E+03  0.50964919668E+03  0.00000000000E+00 0.  1.
         24    2    1    2    0    0  0.38402093569E+02 -0.32465431757E+02 -0.45139407978E+03  0.46150505908E+03  0.81863173943E+02 0.  0.
         25    2    1    2    0    0 -0.53606835799E+02  0.22221609507E+03  0.34928560626E+03  0.43577710364E+03  0.12509022170E+03 0.  0.
        -24    2    1    2    0    0  0.15204742230E+02 -0.18975066332E+03  0.10630099898E+04  0.10829177469E+04  0.80523970009E+02 0.  0.
        -13    1    3    3    0    0 -0.12168717234E+02  0.19868544614E+02 -0.10900524450E+03  0.11146739466E+03  0.00000000000E+00 0.  1.
         14    1    3    3    0    0  0.50570810803E+02 -0.52333976371E+02 -0.34238883528E+03  0.35003766442E+03  0.00000000000E+00 0. -1.
         13    1    5    5    0    0 -0.98645571715E+01 -0.15246449638E+03  0.93144704257E+03  0.94389423414E+03  0.00000000000E+00 0. -1.
        -14    1    5    5    0    0  0.25069299402E+02 -0.37286166934E+02  0.13156294721E+03  0.13902351275E+03  0.00000000000E+00 0.  1.
          5    1    4    4  501    0 -0.29626544630E+02  0.17099128168E+03  0.33498047092E+03  0.37728654741E+03  0.41800000000E+01 0. -1.
         -5    1    4    4    0  501 -0.23980291169E+02  0.51224813387E+02  0.14305135337E+02  0.58490556230E+02  0.41800000000E+01 0. -1.
</event>
<event>
11    1  0.1003949E-008  0.1311193E+03  0.7561462E-02  0.1117901E+00
         22   -1    0    0    0    0  0.00000000000E+00  0.00000000000E+00  0.72262083927E+03  0.72262083927E+03  0.00000000000E+00 0.  1.
         22   -1    0    0    0    0 -0.00000000000E+00 -0.00000000000E+00 -0.37029183167E+03  0.37029183167E+03  0.00000000000E+00 0.  1.
        -24    2    1    2    0    0  0.26999992686E+00  0.10814640225E+02 -0.26646445917E+03  0.27917072273E+03  0.82558797747E+02 0.  0.
         25    2    1    2    0    0  0.21808836372E+02  0.22039680350E+02 -0.50606548861E+02  0.13845397677E+03  0.12508840091E+03 0.  0.
         24    2    1    2    0    0 -0.22078836299E+02 -0.32854320574E+02  0.66940001563E+03  0.67528797144E+03  0.79690539339E+02 0.  0.
        -13    1    5    5    0    0 -0.13697381087E+02 -0.52607328214E+02  0.60435647903E+03  0.60679642631E+03  0.00000000000E+00 0.  1.
         14    1    5    5    0    0 -0.83814552120E+01  0.19753007639E+02  0.65043536596E+02  0.68491545136E+02  0.00000000000E+00 0. -1.
         11    1    3    3    0    0  0.27804123101E+02  0.12113067575E+02 -0.36037557130E+02  0.47100968052E+02  0.00000000000E+00 0. -1.
        -12    1    3    3    0    0 -0.27534123174E+02 -0.12984273501E+01 -0.23042690204E+03  0.23206975468E+03  0.00000000000E+00 0.  1.
          5    1    4    4  501    0  0.57903611669E+02 -0.80096604888E+01 -0.66554009588E+02  0.88678585339E+02  0.41800000000E+01 0. -1.
         -5    1    4    4    0  501 -0.36094775297E+02  0.30049340838E+02  0.15947460727E+02  0.49775391432E+02  0.41800000000E+01 0. -1.
</event>
<event>
11    1  0.1003949E-008  0.3104136E+03  0.7561462E-02  0.9958778E-01
         22   -1    0    0    0    0  0.00000000000E+00  0.00000000000E+00  0.70143986994E+03  0.70143986994E+03  0.00000000000E+00 0.  1.
         22   -1    0    0    0    0 -0.00000000000E+00 -0.00000000000E+00 -0.10853874403E+04  0.10853874403E+04  0.00000000000E+00 0. -1.
        -24    2    1    2    0    0  0.27147217218E+02  0.14901107909E+03 -0.81457784909E+03  0.83232940694E+03  0.79334080511E+02 0.  0.
         25    2    1    2    0    0  0.19502523810E+03 -0.30891487466E+03 -0.56027092523E+02  0.39019159505E+03  0.12508877836E+03 0.  0.
         24    2    1    2    0    0 -0.22217245532E+03  0.15990379557E+03  0.48665737130E+03  0.56430630821E+03  0.81709171479E+02 0.  0.
        -11    1    5    5    0    0 -0.82377830953E+02  0.74310127624E+02  0.27545919399E+03  0.29696105747E+03  0.00000000000E+00 0.  1.
         12    1    5    5    0    0 -0.13979462436E+03  0.85593667946E+02  0.21119817731E+03  0.26734525074E+03  0.00000000000E+00 0. -1.
         13    1    3    3    0    0 -0.15089687854E+02  0.88294955634E+02 -0.56382445603E+03  0.57089553781E+03  0.00000000000E+00 0. -1.
        -14    1    3    3    0    0  0.42236905073E+02  0.60716123454E+02 -0.25075339306E+03  0.26143386913E+03  0.00000000000E+00 0.  1.
          5    1    4    4  501    0  0.16084051096E+03 -0.21814006926E+03 -0.92607144403E+02  0.28644077115E+03  0.41800000000E+01 0. -1.
         -5    1    4    4    0  501  0.34184727140E+02 -0.90774805398E+02  0.36580051880E+02  0.10375082390E+03  0.41800000000E+01 0. -1.
</event>
<event>
11    1  0.1003949E-008  0.1471700E+03  0.7561462E-02  0.1099806E+00
         22   -1    0    0    0    0  0.00000000000E+00  0.00000000000E+00  0.25101590643E+03  0.25101590643E+03  0.00000000000E+00 0. -1.
         22   -1    0    0    0    0 -0.00000000000E+00 -0.00000000000E+00 -0.88998807923E+03  0.88998807923E+03  0.00000000000E+00 0.  1.
         24    2    1    2    0    0  0.48042586516E+02  0.22255018679E+02 -0.80040296703E+03  0.80583523403E+03  0.76955433850E+02 0.  0.
         25    2    1    2    0    0  0.23091831883E+02 -0.65831558612E+02  0.82213786836E+01  0.14346311945E+03  0.12508816397E+03 0.  0.
        -24    2    1    2    0    0 -0.71134418399E+02  0.43576539934E+02  0.15320941554E+03  0.19170563219E+03  0.79491534704E+02 0.  0.
        -11    1    3    3    0    0  0.59803223042E+02  0.39882199457E+02 -0.64536654792E+03  0.64935737194E+03  0.00000000000E+00 0.  1.
         12    1    3    3    0    0 -0.11760636526E+02 -0.17627180778E+02 -0.15503641911E+03  0.15647786209E+03  0.00000000000E+00 0. -1.
         13    1    5    5    0    0 -0.38928364578E+02  0.98783638254E+01  0.13634227360E+03  0.14213449691E+03  0.00000000000E+00 0. -1.
        -14    1    5    5    0    0 -0.32206053821E+02  0.33698176108E+02  0.16867141935E+02  0.49571135279E+02  0.00000000000E+00 0.  1.
          5    1    4    4  501    0  0.61721050794E+02 -0.15382204709E+02  0.36866733192E+02  0.73639179443E+02  0.41800000000E+01 0. -1.
         -5    1    4    4    0  501 -0.38629218911E+02 -0.50449353904E+02 -0.28645354508E+02  0.69823940005E+02  0.41800000000E+01 0. -1.
</event>
<event>
11    1  0.1003949E-008  0.2466173E+03  0.7561462E-02  0.1025717E+00
         22   -1    0    0    0    0  0.00000000000E+00  0.00000000000E+00  0.63832942374E+03  0.63832942374E+03  0.00000000000E+00 0. -1.
         22   -1    0    0    0    0 -0.00000000000E+00 -0.00000000000E+00 -0.21046627010E+03  0.21046627010E+03  0.00000000000E+00 0. -1.
        -24    2    1    2    0    0 -0.38168459051E+02  0.19890321749E+02 -0.47743077308E+02  0.10295571651E+03  0.80424013618E+02 0.  0.
         25    2    1    2    0    0 -0.38591870063E+02 -0.21686786488E+03  0.41602917396E+02  0.25670865308E+03  0.12509007386E+03 0.  0.
         24    2    1    2    0    0  0.76760329114E+02  0.19697754313E+03  0.43400331355E+03  0.48913132424E+03  0.78729127747E+02 0.  0.
        -11    1    5    5    0    0  0.32829269715E+01  0.12177326144E+01 -0.30446551464E+01  0.46400869799E+01  0.00000000000E+00 0.  1.
         12    1    5    5    0    0  0.73477402142E+02  0.19575981052E+03  0.43704796870E+03  0.48449123726E+03  0.00000000000E+00 0. -1.
         11    1    3    3    0    0  0.20375803844E+02  0.16294059936E+02 -0.33744155825E+02  0.42653696485E+02  0.00000000000E+00 0. -1.
        -12    1    3    3    0    0 -0.58544262895E+02  0.35962618127E+01 -0.13998921483E+02  0.60302020029E+02  0.00000000000E+00 0.  1.
          5    1    4    4  501    0 -0.56133764272E+02 -0.14530311127E+03 -0.24368590949E+02  0.15771903582E+03  0.41800000000E+01 0. -1.
         -5    1    4    4    0  501  0.17541894209E+02 -0.71564753612E+02  0.65971508345E+02  0.98989617260E+02  0.41800000000E+01 0. -1.
</event>
<event>
11    1  0.1003949E-008  0.3116461E+03  0.7561462E-02  0.9953794E-01
         22   -1    0    0    0    0  0.00000000000E+00  0.00000000000E+00  0.34900603306E+03  0.34900603306E+03  0.00000000000E+00 0. -1.
         22   -1    0    0    0    0 -0.00000000000E+00 -0.00000000000E+00 -0.44295429278E+03  0.44295429278E+03  0.00000000000E+00 0.  1.
         24    2    1    2    0    0 -0.36230835413E+02  0.11542871503E+03 -0.19344411737E+03  0.24165846836E+03  0.79634961514E+02 0.  0.
         25    2    1    2    0    0  0.30160964481E+02  0.10015473000E+03 -0.14222616789E+03  0.21637846444E+03  0.12510277104E+03 0.  0.
        -24    2    1    2    0    0  0.60698709316E+01 -0.21558344503E+03  0.24172202553E+03  0.33392339304E+03  0.81007590333E+02 0.  0.
        -13    1    3    3    0    0 -0.50528231278E+02  0.11926809968E+03 -0.17921996920E+03  0.22112842223E+03  0.00000000000E+00 0.  1.
         14    1    3    3    0    0  0.14297395865E+02 -0.38393846442E+01 -0.14224148166E+02  0.20530046128E+02  0.00000000000E+00 0. -1.
         11    1    5    5    0    0  0.91736020597E+01 -0.67216344354E+02  0.13515203136E+03  0.15122256281E+03  0.00000000000E+00 0. -1.
        -12    1    5    5    0    0 -0.31037311280E+01 -0.14836710068E+03  0.10656999417E+03  0.18270083023E+03  0.00000000000E+00 0.  1.
          5    1    4    4  501    0 -0.28480833375E+02  0.67528454872E+02 -0.18721431824E+02  0.75757603557E+02  0.41800000000E+01 0. -1.
         -5    1    4    4    0  501  0.58641797857E+02  0.32626275123E+02 -0.12350473607E+03  0.14062086088E+03  0.41800000000E+01 0. -1.
</event>
<event>
11    1  0.1003949E-008  0.1370613E+03  0.7561462E-02  0.1110885E+00
         22   -1    0    0    0    0  0.00000000000E+00  0.00000000000E+00  0.44193977065E+03  0.44193977065E+03  0.00000000000E+00 0. -1.
         22   -1    0    0    0    0 -0.00000000000E+00 -0.00000000000E+00 -0.65003160147E+03  0.65003160147E+03  0.00000000000E+00 0. -1.
         24    2    1    2    0    0 -0.15653393964E+02 -0.62285706281E+01 -0.42363783445E+03  0.43170426092E+03  0.81337139662E+02 0.  0.
         25    2    1    2    0    0  0.70195141564E+02  0.17018638924E+02 -0.19248541206E+03  0.24065333596E+03  0.12508557984E+03 0.  0.
        -24    2    1    2    0    0 -0.54541747600E+02 -0.10790068296E+02  0.40803141568E+03  0.41961377524E+03  0.80590671823E+02 0.  0.
        -13    1    3    3    0    0  0.14219066303E+02 -0.31643070350E+02 -0.10319158971E+03  0.10886675311E+03  0.00000000000E+00 0.  1.
         14    1    3    3    0    0 -0.29872460267E+02  0.25414499721E+02 -0.32044624474E+03  0.32283750781E+03  0.00000000000E+00 0. -1.
         11    1    5    5    0    0 -0.68541912560E+02 -0.61458106815E+01  0.39131494879E+03  0.39731996415E+03  0.00000000000E+00 0. -1.
        -12    1    5    5    0    0  0.14000164960E+02 -0.46442576146E+01  0.16716466897E+02  0.22293811097E+02  0.00000000000E+00 0.  1.
          5    1    4    4  501    0 -0.26135834049E+02  0.32494928802E+02 -0.88950240599E+02  0.98329140756E+02  0.41800000000E+01 0.  1.
         -5    1    4    4    0  501  0.96330975613E+02 -0.15476289877E+02 -0.10353517146E+03  0.14232419520E+03  0.41800000000E+01 0.  1.
</event>
<event>
11    1  0.1003949E-008  0.1286748E+03  0.7561462E-02  0.1120908E+00
         22   -1    0    0    0    0  0.00000000000E+00  0.00000000000E+00  0.10450694739E+03  0.10450694739E+03  0.00000000000E+00 0. -1.
         22   -1    0    0    0    0 -0.00000000000E+00 -0.00000000000E+00 -0.77573181282E+03  0.77573181282E+03  0.00000000000E+00 0. -1.
         24    2    1    2    0    0 -0.98582650123E+00  0.28811754665E+02 -0.50940988925E+03  0.51740474476E+03  0.85896132483E+02 0.  0.
         25    2    1    2    0    0  0.86090194462E+01 -0.35440578583E+02 -0.22498408615E+03  0.25999377327E+03  0.12509505701E+03 0.  0.
        -24    2    1    2    0    0 -0.76231929449E+01  0.66288239178E+01  0.63169109972E+02  0.10284024218E+03  0.80521578351E+02 0.  0.
        -13    1    3    3    0    0 -0.33075754866E+02  0.11549295630E+02 -0.92611322887E+02  0.99016407309E+02  0.00000000000E+00 0.  1.
         14    1    3    3    0    0  0.32089928365E+02  0.17262459036E+02 -0.41679856636E+03  0.41838833745E+03  0.00000000000E+00 0. -1.
         13    1    5    5    0    0  0.34072712467E+02 -0.10716759357E+02  0.23724747730E+02  0.42879625941E+02  0.00000000000E+00 0. -1.
        -14    1    5    5    0    0 -0.41695905412E+02  0.17345583275E+02  0.39444362242E+02  0.59960616241E+02  0.00000000000E+00 0.  1.
          5    1    4    4  501    0 -0.21650218495E+02  0.38319018339E+02 -0.44927528134E+02  0.63032010213E+02  0.41800000000E+01 0.  1.
         -5    1    4    4    0  501  0.30259237941E+02 -0.73759596922E+02 -0.18005655802E+03  0.19696176305E+03  0.41800000000E+01 0.  1.
</event>
<event>
11    1  0.1003949E-008  0.1354994E+03  0.7561462E-02  0.1112691E+00
         22   -1    0    0    0    0  0.00000000000E+00  0.00000000000E+00  0.66246096958E+03  0.66246096958E+03  0.00000000000E+00 0. -1.
         22   -1    0    0    0    0 -0.00000000000E+00 -0.00000000000E+00 -0.67348019785E+03  0.67348019785E+03  0.00000000000E+00 0. -1.
        -24    2    1    2    0    0  0.32177612735E+02  0.39470633623E+02 -0.58764238386E+03  0.59502408798E+03  0.78337502397E+02 0.  0.
         25    2    1    2    0    0 -0.32465131953E+02 -0.89581728602E+02  0.11941534496E+01  0.15723551243E+03  0.12507081784E+03 0.  0.
         24    2    1    2    0    0  0.28751921792E+00  0.50111094979E+02  0.57542900214E+03  0.58368156702E+03  0.83990658206E+02 0.  0.
        -11    1    5    5    0    0 -0.14070279583E+02 -0.20941530601E+02  0.15952023754E+03  0.16150302367E+03  0.00000000000E+00 0.  1.
         12    1    5    5    0    0  0.14357798801E+02  0.71052625579E+02  0.41590876461E+03  0.42217854335E+03  0.00000000000E+00 0. -1.
         13    1    3    3    0    0  0.44767668844E+02  0.50528780932E+02 -0.54567532124E+03  0.54983530087E+03  0.00000000000E+00 0. -1.
        -14    1    3    3    0    0 -0.12590056109E+02 -0.11058147309E+02 -0.41967062619E+02  0.45188787101E+02  0.00000000000E+00 0.  1.
          5    1    4    4  501    0  0.31751895361E+02  0.83747748900E+01 -0.19203720342E+02  0.38269765984E+02  0.41800000000E+01 0. -1.
         -5    1    4    4    0  501 -0.64217027314E+02 -0.97956503492E+02  0.20397873791E+02  0.11896574645E+03  0.41800000000E+01 0. -1.
</event>
<event>
11    1  0.1003949E-008  0.1527562E+03  0.7561462E-02  0.1094095E+00
         22   -1    0    0    0    0  0.00000000000E+00  0.00000000000E+00  0.14215915778E+03  0.14215915778E+03  0.00000000000E+00 0. -1.
         22   -1    0    0    0    0 -0.00000000000E+00 -0.00000000000E+00 -0.93007220638E+03  0.93007220638E+03  0.00000000000E+00 0.  1.
        -24    2    1    2    0    0 -0.48241727261E+01 -0.11022806207E+02 -0.65615172088E+03  0.66161038331E+03  0.83955009359E+02 0.  0.
         25    2    1    2    0    0  0.57523770264E+02 -0.59878416430E+02 -0.21726398042E+03  0.26409298780E+03  0.12508820935E+03 0.  0.
         24    2    1    2    0    0 -0.52699597538E+02  0.70901222638E+02  0.85502652702E+02  0.14652799304E+03  0.79721503838E+02 0.  0.
        -11    1    5    5    0    0 -0.53888643701E+02  0.23242336277E+02  0.13576919449E+02  0.60237238128E+02  0.00000000000E+00 0.  1.
         12    1    5    5    0    0  0.11890461633E+01  0.47658886361E+02  0.71925733253E+02  0.86290754916E+02  0.00000000000E+00 0. -1.
         13    1    3    3    0    0 -0.43119445236E+02 -0.15340070135E+02 -0.31984607485E+03  0.32310387789E+03  0.00000000000E+00 0. -1.
        -14    1    3    3    0    0  0.38295272510E+02  0.43172639276E+01 -0.33630564603E+03  0.33850650542E+03  0.00000000000E+00 0.  1.
          5    1    4    4  501    0 -0.29470197549E+02 -0.10945405779E+02 -0.87744262931E+01  0.32905279333E+02  0.41800000000E+01 0. -1.
         -5    1    4    4    0  501  0.86993967813E+02 -0.48933010651E+02 -0.20848955413E+03  0.23118770847E+03  0.41800000000E+01 0. -1.
</event>
<event>
11    1  0.1003949E-008  0.1576426E+03  0.7561462E-02  0.1089316E+00
         22   -1    0    0    0    0  0.00000000000E+00  0.00000000000E+00  0.24070116840E+04  0.24070116840E+04  0.00000000000E+00 0.  1.
         22   -1    0    0    0    0 -0.00000000000E+00 -0.00000000000E+00 -0.15366361537E+02  0.15366361537E+02  0.00000000000E+00 0. -1.
         24    2    1    2    0    0 -0.68517838373E+02  0.87902239522E+02  0.57919312822E+03  0.59538651374E+03  0.81233755753E+02 0.  0.
         25    2    1    2    0    0  0.35206918137E+02 -0.62096439870E+02  0.94452529227E+03  0.95544292625E+03  0.12509061774E+03 0.  0.
        -24    2    1    2    0    0  0.33310920236E+02 -0.25805799652E+02  0.86792690198E+03  0.87154860556E+03  0.67262976230E+02 0.  0.
        -13    1    3    3    0    0 -0.51120902603E+00  0.39127477576E+02  0.78119245728E+02  0.87371834073E+02  0.00000000000E+00 0.  1.
         14    1    3    3    0    0 -0.68006629347E+02  0.48774761945E+02  0.50107388249E+03  0.50801467967E+03  0.00000000000E+00 0. -1.
         11    1    5    5    0    0  0.16173784596E+02  0.21907737370E+02  0.22898210880E+03  0.23059563399E+03  0.00000000000E+00 0. -1.
        -12    1    5    5    0    0  0.17137135640E+02 -0.47713537022E+02  0.63894479318E+03  0.64095297157E+03  0.00000000000E+00 0.  1.
          5    1    4    4  501    0 -0.93746016836E+01 -0.80189755883E+02  0.36191842021E+03  0.37083782897E+03  0.41800000000E+01 0.  1.
         -5    1    4    4    0  501  0.44581519821E+02  0.18093316013E+02  0.58260687206E+03  0.58460509728E+03  0.41800000000E+01 0.  1.
</event>
<event>
11    1  0.1003949E-008  0.1339456E+03  0.7561462E-02  0.1114514E+00
         22   -1    0    0    0    0  0.00000000000E+00  0.00000000000E+00  0.51243954616E+02  0.51243954616E+02  0.00000000000E+00 0. -1.
         22   -1    0    0    0    0 -0.00000000000E+00 -0.00000000000E+00 -0.10906194932E+04  0.10906194932E+04  0.00000000000E+00 0. -1.
         24    2    1    2    0    0  0.13019860383E+02  0.10466438253E+02 -0.44849426665E+03  0.45575787497E+03  0.79303658717E+02 0.  0.
         25    2    1    2    0    0 -0.19970663249E+02  0.37630721602E+02 -0.57629349820E+03  0.59125087535E+03  0.12509397644E+03 0.  0.
        -24    2    1    2    0    0  0.69508028660E+01 -0.48097159855E+02 -0.14587773774E+02  0.94854697532E+02  0.80143371863E+02 0.  0.
        -11    1    3    3    0    0  0.32383460859E+02  0.29405893429E+02 -0.37291421445E+03  0.37547091291E+03  0.00000000000E+00 0.  1.
         12    1    3    3    0    0 -0.19363600476E+02 -0.18939455176E+02 -0.75580052199E+02  0.80286962056E+02  0.00000000000E+00 0. -1.
         11    1    5    5    0    0 -0.69925506452E+01  0.18986185584E+02  0.93333547312E+01  0.22281887669E+02  0.00000000000E+00 0. -1.
        -12    1    5    5    0    0  0.13943353511E+02 -0.67083345439E+02 -0.23921128506E+02  0.72572809863E+02  0.00000000000E+00 0.  1.
          5    1    4    4  501    0 -0.26282704327E+02 -0.14230671784E+02 -0.30361042112E+02  0.42808385210E+02  0.41800000000E+01 0. -1.
         -5    1    4    4    0  501  0.63120410773E+01  0.51861393386E+02 -0.54593245608E+03  0.54844249014E+03  0.41800000000E+01 0. -1.
</event>
<event>
11    1  0.1003949E-008  0.1471495E+03  0.7561462E-02  0.1099827E+00
         22   -1    0    0    0    0  0.00000000000E+00  0.00000000000E+00  0.38013177533E+03  0.38013177533E+03  0.00000000000E+00 0.  1.
         22   -1    0    0    0    0 -0.00000000000E+00 -0.00000000000E+00 -0.10489172512E+04  0.10489172512E+04  0.00000000000E+00 0.  1.
        -24    2    1    2    0    0 -0.15638662239E+01 -0.80355373428E+02 -0.57543255884E+03  0.58659342214E+03  0.80683216393E+02 0.  0.
         25    2    1    2    0    0  0.58760693433E+02  0.63262022496E+02 -0.44835658553E+03  0.47341849183E+03  0.12508612245E+03 0.  0.
         24    2    1    2    0    0 -0.57196827210E+02  0.17093350933E+02  0.35500366853E+03  0.36903711253E+03  0.81222694305E+02 0.  0.
        -13    1    5    5    0    0 -0.53306046537E+02 -0.14936622368E+02  0.30163588655E+03  0.30667384196E+03  0.00000000000E+00 0.  1.
         14    1    5    5    0    0 -0.38907806721E+01  0.32029973301E+02  0.53367781975E+02  0.62363270575E+02  0.00000000000E+00 0. -1.
         13    1    3    3    0    0 -0.71694379059E+00  0.15257511228E+02 -0.42738073990E+02  0.45385555253E+02  0.00000000000E+00 0. -1.
        -14    1    3    3    0    0 -0.84692243331E+00 -0.95612884656E+02 -0.53269448485E+03  0.54120786689E+03  0.00000000000E+00 0.  1.
          5    1    4    4  501    0 -0.39794539774E+01 -0.22941612107E+02 -0.22107692277E+03  0.22233900198E+03  0.41800000000E+01 0. -1.
         -5    1    4    4    0  501  0.62740147411E+02  0.86203634603E+02 -0.22727966277E+03  0.25107948985E+03  0.41800000000E+01 0. -1.
</event>
<event>
11    1  0.1003949E-008  0.1630199E+03  0.7561462E-02  0.1084271E+00
         22   -1    0    0    0    0  0.00000000000E+00  0.00000000000E+00  0.14215696005E+03  0.14215696005E+03  0.00000000000E+00 0.  1.
         22   -1    0    0    0    0 -0.00000000000E+00 -0.00000000000E+00 -0.43166534065E+03  0.43166534065E+03  0.00000000000E+00 0.  1.
         24    2    1    2    0    0  0.42315454518E+02  0.11298669216E+03 -0.17927783297E+03  0.23048674436E+03  0.80168620016E+02 0.  0.
         25    2    1    2    0    0 -0.17878957436E+02 -0.85352427303E+02 -0.17597796796E+03  0.23286166076E+03  0.12510641022E+03 0.  0.
        -24    2    1    2    0    0 -0.24436497081E+02 -0.27634264859E+02  0.65747420336E+02  0.11047389558E+03  0.80752481943E+02 0.  0.
        -11    1    3    3    0    0  0.65873298962E+02  0.91666034060E+02 -0.14481892890E+03  0.18361501976E+03  0.00000000000E+00 0.  1.
         12    1    3    3    0    0 -0.23557844444E+02  0.21320658102E+02 -0.34458904073E+02  0.46871724597E+02  0.00000000000E+00 0. -1.
         11    1    5    5    0    0 -0.14997077939E+02  0.22437824977E+02 -0.38182358893E+00  0.26991000827E+02  0.00000000000E+00 0. -1.
        -12    1    5    5    0    0 -0.94394191427E+01 -0.50072089836E+02  0.66129243925E+02  0.83482894753E+02  0.00000000000E+00 0.  1.
          5    1    4    4  501    0 -0.63618074743E+02 -0.85356857106E+02 -0.12077595742E+03  0.16105078944E+03  0.41800000000E+01 0.  1.
         -5    1    4    4    0  501  0.45739117307E+02  0.44298029317E-02 -0.55202010546E+02  0.71810871322E+02  0.41800000000E+01 0.  1.
</event>
<event>
11    1  0.2315787E-008  0.1771387E+03  0.7561462E-02  0.1071981E+00
         22   -1    0    0    0    0  0.00000000000E+00  0.00000000000E+00  0.49006666069E+03  0.49006666069E+03  0.00000000000E+00 0. -1.
         22   -1    0    0    0    0 -0.00000000000E+00 -0.00000000000E+00 -0.18632675214E+04  0.18632675214E+04  0.00000000000E+00 0. -1.
        -24    2    1    2    0    0  0.45296243347E+01  0.84729682707E+01 -0.12442522943E+04  0.12468265362E+04  0.79500509006E+02 0.  0.
         25    2    1    2    0    0 -0.33662536885E+02  0.11367847532E+03 -0.59409733262E+03  0.61858652336E+03  0.12506671869E+03 0.  0.
         24    2    1    2    0    0  0.29132912550E+02 -0.12215144359E+03  0.46514876616E+03  0.48792112253E+03  0.77032106182E+02 0.  0.
        -13    1    5    5    0    0 -0.19256635765E+01  0.32348900963E+01 -0.12480987112E+01  0.39661624447E+01  0.00000000000E+00 0.  1.
         14    1    5    5    0    0  0.31058576127E+02 -0.12538633369E+03  0.46639686487E+03  0.48395496008E+03  0.00000000000E+00 0. -1.
         11    1    3    3    0    0 -0.13132143245E+02  0.22524741301E+02 -0.11334051035E+04  0.11337049642E+04  0.00000000000E+00 0. -1.
        -12    1    3    3    0    0  0.17661767580E+02 -0.14051773031E+02 -0.11084719071E+03  0.11312157198E+03  0.00000000000E+00 0.  1.
          5    1    4    4  501    0 -0.10809298023E+02  0.13672551713E+03 -0.43384908123E+03  0.45503099416E+03  0.41800000000E+01 0.  1.
         -5    1    4    4    0  501 -0.22853238862E+02 -0.23047041806E+02 -0.16024825138E+03  0.16355552921E+03  0.41800000000E+01 0.  1.
</event>
<event>
11    1  0.1170535E-008  0.1775499E+03  0.7561462E-02  0.1071642E+00
         22   -1    0    0    0    0  0.00000000000E+00  0.00000000000E+00  0.25241213207E+03  0.25241213207E+03  0.00000000000E+00 0. -1.
         22   -1    0    0    0    0 -0.00000000000E+00 -0.00000000000E+00 -0.12598738091E+04  0.12598738091E+04  0.00000000000E+00 0. -1.
         24    2    1    2    0    0  0.35340124051E+02 -0.17372777497E+02 -0.84986470406E+03  0.85459453935E+03  0.80691224503E+02 0.  0.
         25    2    1    2    0    0 -0.27661039277E+02  0.14221791876E+03 -0.35948551646E+03  0.40726919684E+03  0.12508913880E+03 0.  0.
        -24    2    1    2    0    0 -0.76790847745E+01 -0.12484514126E+03  0.20188854350E+03  0.25042220497E+03  0.79416743246E+02 0.  0.
        -13    1    3    3    0    0  0.12880349283E+02  0.16238570235E+02 -0.56186911618E+02  0.59887925311E+02  0.00000000000E+00 0.  1.
         14    1    3    3    0    0  0.22459774768E+02 -0.33611347732E+02 -0.79367779245E+03  0.79470661404E+03  0.00000000000E+00 0. -1.
         13    1    5    5    0    0 -0.12617211559E-01 -0.11676111281E+03  0.20738788472E+03  0.23799767300E+03  0.00000000000E+00 0. -1.
        -14    1    5    5    0    0 -0.76664675630E+01 -0.80840284492E+01 -0.54993412223E+01  0.12424531973E+02  0.00000000000E+00 0.  1.
          5    1    4    4  501    0 -0.53275876084E+02  0.28556434560E+02 -0.57384469662E+02  0.83452014270E+02  0.41800000000E+01 0. -1.
         -5    1    4    4    0  501  0.25614836807E+02  0.11366148420E+03 -0.30210104679E+03  0.32381718257E+03  0.41800000000E+01 0. -1.
</event>
<event>
11    1  0.1003949E-008  0.1336254E+03  0.7561462E-02  0.1114893E+00
         22   -1    0    0    0    0  0.00000000000E+00  0.00000000000E+00  0.45572405198E+03  0.45572405198E+03  0.00000000000E+00 0.  1.
         22   -1    0    0    0    0 -0.00000000000E+00 -0.00000000000E+00 -0.73785386554E+03  0.73785386554E+03  0.00000000000E+00 0.  1.
        -24    2    1    2    0    0 -0.49259800157E+02 -0.20677816814E+00 -0.65904773166E+03  0.66579629601E+03  0.80710745879E+02 0.  0.
         25    2    1    2    0    0  0.91948404955E+01  0.47281540483E+01 -0.14510093405E+02  0.12635607302E+03  0.12509362033E+03 0.  0.
         24    2    1    2    0    0  0.40064959662E+02 -0.45213758801E+01  0.39142801151E+03  0.40142554848E+03  0.79378453919E+02 0.  0.
        -13    1    5    5    0    0  0.55117274874E+01  0.24426406033E+02  0.28154173243E+03  0.28265310108E+03  0.00000000000E+00 0.  1.
         14    1    5    5    0    0  0.34553232174E+02 -0.28947781913E+02  0.10988627909E+03  0.11877244741E+03  0.00000000000E+00 0. -1.
         13    1    3    3    0    0  0.64716482549E+01  0.26803198674E+02 -0.11617526945E+03  0.11940262527E+03  0.00000000000E+00 0. -1.
        -14    1    3    3    0    0 -0.55731448412E+02 -0.27009976842E+02 -0.54287246222E+03  0.54639367074E+03  0.00000000000E+00 0.  1.
          5    1    4    4  501    0  0.54162335690E+02 -0.32060423279E+02 -0.23705241473E+02  0.67385756815E+02  0.41800000000E+01 0. -1.
         -5    1    4    4    0  501 -0.44967495194E+02  0.36788577327E+02  0.91951480673E+01  0.58970316209E+02  0.41800000000E+01 0. -1.
</event>
<event>
11    1  0.1003949E-008  0.1698830E+03  0.7561462E-02  0.1078134E+00
         22   -1    0    0    0    0  0.00000000000E+00  0.00000000000E+00  0.86764074775E+03  0.86764074775E+03  0.00000000000E+00 0. -1.
         22   -1    0    0    0    0 -0.00000000000E+00 -0.00000000000E+00 -0.14636937523E+03  0.14636937523E+03  0.00000000000E+00 0. -1.
         24    2    1    2    0    0 -0.22207212736E+02  0.11135985619E+03 -0.72201748760E+02  0.16473243991E+03  0.95023714760E+02 0.  0.
         25    2    1    2    0    0  0.41711401990E+02 -0.11861478056E+03  0.29728929285E+03  0.34617537764E+03  0.12508861346E+03 0.  0.
        -24    2    1    2    0    0 -0.19504189254E+02  0.72549243779E+01  0.49618382843E+03  0.50310230543E+03  0.80501495694E+02 0.  0.
        -13    1    3    3    0    0 -0.25533241491E+02 -0.77662823647E+01 -0.24948814124E+02  0.36533613139E+02  0.00000000000E+00 0.  1.
         14    1    3    3    0    0  0.33260287547E+01  0.11912613855E+03 -0.47252934635E+02  0.12819882677E+03  0.00000000000E+00 0. -1.
         11    1    5    5    0    0 -0.19292545620E+02  0.40468683315E+02  0.36653162142E+03  0.36926324776E+03  0.00000000000E+00 0. -1.
        -12    1    5    5    0    0 -0.21164363468E+00 -0.33213758937E+02  0.12965220701E+03  0.13383905767E+03  0.00000000000E+00 0.  1.
          5    1    4    4  501    0 -0.24543516473E+02 -0.75745721994E+02  0.22634322739E+03  0.23997609794E+03  0.41800000000E+01 0.  1.
         -5    1    4    4    0  501  0.66254918463E+02 -0.42869058571E+02  0.70946065459E+02  0.10619927969E+03  0.41800000000E+01 0.  1.
</event>
<event>
11    1  0.1003949E-008  0.1399465E+03  0.7561462E-02  0.1107618E+00
         22   -1    0    0    0    0  0.00000000000E+00  0.00000000000E+00  0.16795395284E+03  0.16795395284E+03  0.00000000000E+00 0. -1.
         22   -1    0    0    0    0 -0.00000000000E+00 -0.00000000000E+00 -0.33813832286E+03  0.33813832286E+03  0.00000000000E+00 0. -1.
         24    2    1    2    0    0 -0.28571080890E+01 -0.59597376738E+02 -0.22499897715E+03  0.24639502449E+03  0.80783401723E+02 0.  0.
         25    2    1    2    0    0  0.13089214167E+02  0.81582844460E+02 -0.14720446410E+02  0.15064382809E+03  0.12509909416E+03 0.  0.
        -24    2    1    2    0    0 -0.10232106078E+02 -0.21985467722E+02  0.69535053542E+02  0.10905342313E+03  0.80433007146E+02 0.  0.
        -13    1    3    3    0    0  0.12645697014E+02  0.14347338442E+02 -0.18915986273E+02  0.26899336609E+02  0.00000000000E+00 0.  1.
         14    1    3    3    0    0 -0.15502805103E+02 -0.73944715180E+02 -0.20608299088E+03  0.21949568788E+03  0.00000000000E+00 0. -1.
         11    1    5    5    0    0  0.50651280115E+00 -0.52053539626E+02  0.44384483952E+02  0.68409136514E+02  0.00000000000E+00 0. -1.
        -12    1    5    5    0    0 -0.10738618879E+02  0.30068071905E+02  0.25150569590E+02  0.40644286612E+02  0.00000000000E+00 0.  1.
          5    1    4    4  501    0  0.27430372599E+02  0.96065887055E+02  0.27387836376E+02  0.10367567689E+03  0.41800000000E+01 0. -1.
         -5    1    4    4    0  501 -0.14341158432E+02 -0.14483042595E+02 -0.42108282786E+02  0.46968151200E+02  0.41800000000E+01 0. -1.
</event>
<event>
11    1  0.1003949E-008  0.1473247E+03  0.7561462E-02  0.1099644E+00
         22   -1    0    0    0    0  0.00000000000E+00  0.00000000000E+00  0.13177866890E+03  0.13177866890E+03  0.00000000000E+00 0.  1.
         22   -1    0    0    0    0 -0.00000000000E+00 -0.00000000000E+00 -0.88628801423E+03  0.88628801423E+03  0.00000000000E+00 0.  1.
        -24    2    1    2    0    0 -0.10565595473E+02  0.11944712757E+02 -0.74370496078E+03  0.74800500531E+03  0.78486376546E+02 0.  0.
         25    2    1    2    0    0 -0.19105197454E+02  0.64809408887E+02 -0.47085513148E+02  0.14976192343E+03  0.12508525137E+03 0.  0.
         24    2    1    2    0    0  0.29670792927E+02 -0.76754121643E+02  0.36281128601E+02  0.12029975440E+03  0.79900935372E+02 0.  0.
        -13    1    5    5    0    0  0.19542245840E+02 -0.58959134757E+02  0.61774095391E+02  0.87602042243E+02  0.00000000000E+00 0.  1.
         14    1    5    5    0    0  0.10128547087E+02 -0.17794986887E+02 -0.25492966790E+02  0.32697712154E+02  0.00000000000E+00 0. -1.
         13    1    3    3    0    0 -0.38214589337E+01  0.11792920557E+02 -0.15865643622E+02  0.20134427511E+02  0.00000000000E+00 0. -1.
        -14    1    3    3    0    0 -0.67441365393E+01  0.15179219935E+00 -0.72783931716E+03  0.72787057780E+03  0.00000000000E+00 0.  1.
          5    1    4    4  501    0 -0.37653532428E+02  0.96299331944E+02 -0.45213152782E+02  0.11292940902E+03  0.41800000000E+01 0. -1.
         -5    1    4    4    0  501  0.18548334975E+02 -0.31489923057E+02 -0.18723603662E+01  0.36832514411E+02  0.41800000000E+01 0. -1.
</event>
<event>
11    1  0.1003949E-008  0.2148806E+03  0.7561462E-02  0.1044473E+00
         22   -1    0    0    0    0  0.00000000000E+00  0.00000000000E+00  0.24828516825E+03  0.24828516825E+03  0.00000000000E+00 0. -1.
         22   -1    0    0    0    0 -0.00000000000E+00 -0.00000000000E+00 -0.42528614257E+04  0.42528614257E+04  0.00000000000E+00 0.  1.
         24    2    1    2    0    0  0.56047554412E+02  0.50916719816E+01 -0.37877852019E+04  0.37890576699E+04  0.80461399621E+02 0.  0.
         25    2    1    2    0    0  0.54045934266E+02  0.13503393206E+03 -0.40022269537E+03  0.44382674817E+03  0.12509536637E+03 0.  0.
        -24    2    1    2    0    0 -0.11009348868E+03 -0.14012560404E+03  0.18343163980E+03  0.26826217587E+03  0.81004119435E+02 0.  0.
        -11    1    3    3    0    0 -0.17259193358E+02  0.29134989204E+01 -0.14890182383E+04  0.14891211107E+04  0.00000000000E+00 0.  1.
         12    1    3    3    0    0  0.73306747770E+02  0.21781730611E+01 -0.22987669636E+04  0.22999365592E+04  0.00000000000E+00 0. -1.
         11    1    5    5    0    0 -0.66473364607E+02 -0.11840108433E+03  0.17027488635E+03  0.21778673489E+03  0.00000000000E+00 0. -1.
        -12    1    5    5    0    0 -0.43620124071E+02 -0.21724519710E+02  0.13156753450E+02  0.50475440978E+02  0.00000000000E+00 0.  1.
          5    1    4    4  501    0 -0.24865475221E+02  0.97959689786E+02 -0.25582860350E+03  0.27510023528E+03  0.41800000000E+01 0.  1.
         -5    1    4    4    0  501  0.78911409487E+02  0.37074242271E+02 -0.14439409187E+03  0.16872651289E+03  0.41800000000E+01 0.  1.
</event>
<event>
11    1  0.1003949E-008  0.2029827E+03  0.7561462E-02  0.1052434E+00
         22   -1    0    0    0    0  0.00000000000E+00  0.00000000000E+00  0.47871148075E+03  0.47871148075E+03  0.00000000000E+00 0. -1.
         22   -1    0    0    0    0 -0.00000000000E+00 -0.00000000000E+00 -0.71014921361E+03  0.71014921361E+03  0.00000000000E+00 0.  1.
         24    2    1    2    0    0 -0.11018824578E+03 -0.10728005061E+03 -0.53670760763E+03  0.56422555814E+03  0.81516658470E+02 0.  0.
         25    2    1    2    0    0  0.14127070925E+03  0.14105861484E+03 -0.63806875138E+02  0.24407762004E+03  0.12509045199E+03 0.  0.
        -24    2    1    2    0    0 -0.31082463472E+02 -0.33778564224E+02  0.36907674991E+03  0.38055751617E+03  0.80618018185E+02 0.  0.
        -13    1    3    3    0    0 -0.15888898542E+02 -0.70213150603E+02 -0.24901195885E+03  0.25920898762E+03  0.00000000000E+00 0.  1.
         14    1    3    3    0    0 -0.94299347235E+02 -0.37066900011E+02 -0.28769564878E+03  0.30501657052E+03  0.00000000000E+00 0. -1.
         13    1    5    5    0    0 -0.17737379298E+02 -0.42484120627E+02  0.35847499533E+03  0.36141919901E+03  0.00000000000E+00 0. -1.
        -14    1    5    5    0    0 -0.13345084174E+02  0.87055564027E+01  0.10601754571E+02  0.19138317164E+02  0.00000000000E+00 0.  1.
          5    1    4    4  501    0  0.30859642121E+01  0.15818663115E+01  0.27125413565E+02  0.27663801930E+02  0.41800000000E+01 0. -1.
         -5    1    4    4    0  501  0.13818474504E+03  0.13947674853E+03 -0.90932288704E+02  0.21641381811E+03  0.41800000000E+01 0. -1.
</event>
<event>
11    1  0.1003949E-008  0.1704693E+03  0.7561462E-02  0.1077624E+00
         22   -1    0    0    0    0  0.00000000000E+00  0.00000000000E+00  0.13193653460E+04  0.13193653460E+04  0.00000000000E+00 0.  1.
         22   -1    0    0    0    0 -0.00000000000E+00 -0.00000000000E+00 -0.17761085193E+03  0.17761085193E+03  0.00000000000E+00 0. -1.
         24    2    1    2    0    0  0.70507684171E+02  0.81628721805E+02 -0.90280672980E+02  0.16100936867E+03  0.78350718800E+02 0.  0.
         25    2    1    2    0    0 -0.13302881449E+03 -0.10412319687E+03  0.17581634846E+03  0.27403760712E+03  0.12508763375E+03 0.  0.
        -24    2    1    2    0    0  0.62521130319E+02  0.22494475068E+02  0.10562188185E+04  0.10619292221E+04  0.87638957890E+02 0.  0.
        -11    1    3    3    0    0  0.60386644647E+02  0.10397478656E+02 -0.44559448921E+02  0.75764100353E+02  0.00000000000E+00 0.  1.
         12    1    3    3    0    0  0.10121039523E+02  0.71231243149E+02 -0.45721224060E+02  0.85245268321E+02  0.00000000000E+00 0. -1.
         11    1    5    5    0    0 -0.15630505359E+02  0.27485446497E+02  0.31843646985E+03  0.32000241843E+03  0.00000000000E+00 0. -1.
        -12    1    5    5    0    0  0.78151635678E+02 -0.49909714290E+01  0.73778234869E+03  0.74192680366E+03  0.00000000000E+00 0.  1.
          5    1    4    4  501    0 -0.15384232996E+03 -0.72668338160E+02  0.12779176936E+03  0.21282941191E+03  0.41800000000E+01 0.  1.
         -5    1    4    4    0  501  0.20813515468E+02 -0.31454858714E+02  0.48024579106E+02  0.61208195212E+02  0.41800000000E+01 0.  1.
</event>
<event>
11    1  0.1003949E-008  0.1467584E+03  0.7561462E-02  0.1100238E+00
         22   -1    0    0    0    0  0.00000000000E+00  0.00000000000E+00  0.62100241894E+03  0.62100241894E+03  0.00000000000E+00 0. -1.
         22   -1    0    0    0    0 -0.00000000000E+00 -0.00000000000E+00 -0.36571318581E+03  0.36571318581E+03  0.00000000000E+00 0. -1.
        -24    2    1    2    0    0 -0.12551566336E+02  0.73693810717E+02 -0.28905381619E+03  0.31221020762E+03  0.91295046609E+02 0.  0.
         25    2    1    2    0    0  0.30619585991E+02 -0.89948909951E+02  0.38217601451E+02  0.16166777309E+03  0.12509004096E+03 0.  0.
         24    2    1    2    0    0 -0.18068019655E+02  0.16255099234E+02  0.50612544786E+03  0.51283762404E+03  0.79049212988E+02 0.  0.
        -11    1    5    5    0    0 -0.59220346876E+01 -0.97946458322E+01  0.81919761595E+01  0.14075299472E+02  0.00000000000E+00 0.  1.
         12    1    5    5    0    0 -0.12145984967E+02  0.26049745067E+02  0.49793347171E+03  0.49876232457E+03  0.00000000000E+00 0. -1.
         13    1    3    3    0    0  0.14311655772E+02 -0.13962230341E+02 -0.21385469197E+02  0.29276366916E+02  0.00000000000E+00 0. -1.
        -14    1    3    3    0    0 -0.26863222108E+02  0.87656041057E+02 -0.26766834699E+03  0.28293384071E+03  0.00000000000E+00 0.  1.
          5    1    4    4  501    0  0.65797698413E+02 -0.36488218588E+02  0.57402161176E+02  0.94727016842E+02  0.41800000000E+01 0. -1.
         -5    1    4    4    0  501 -0.35178112422E+02 -0.53460691363E+02 -0.19184559725E+02  0.66940756244E+02  0.41800000000E+01 0. -1.
</event>
<event>
11    1  0.1003949E-008  0.1464797E+03  0.7561462E-02  0.1100531E+00
         22   -1    0    0    0    0  0.00000000000E+00  0.00000000000E+00  0.44951266119E+03  0.44951266119E+03  0.00000000000E+00 0.  1.
         22   -1    0    0    0    0 -0.00000000000E+00 -0.00000000000E+00 -0.28293259371E+03  0.28293259371E+03  0.00000000000E+00 0.  1.
         24    2    1    2    0    0 -0.24534124238E+01 -0.61961249884E+02 -0.20068199607E+03  0.22519184944E+03  0.81196611912E+02 0.  0.
         25    2    1    2    0    0 -0.73617348922E+02  0.61946426916E+02  0.43031816451E+02  0.16357270236E+03  0.12508963931E+03 0.  0.
        -24    2    1    2    0    0  0.76070761345E+02  0.14822968508E-01  0.32423024711E+03  0.34368070309E+03  0.84878805296E+02 0.  0.
        -13    1    3    3    0    0  0.14721566956E+02 -0.77412666316E+02 -0.16168918819E+03  0.17986894956E+03  0.00000000000E+00 0.  1.
         14    1    3    3    0    0 -0.17174979380E+02  0.15451416432E+02 -0.38992807888E+02  0.45322899879E+02  0.00000000000E+00 0. -1.
         11    1    5    5    0    0 -0.94367034334E+01  0.38502627631E+01  0.21435499614E+01  0.10414926859E+02  0.00000000000E+00 0. -1.
        -12    1    5    5    0    0  0.85507464779E+02 -0.38354397946E+01  0.32208669715E+03  0.33326577624E+03  0.00000000000E+00 0.  1.
          5    1    4    4  501    0 -0.24436228129E+02 -0.16261303113E+02  0.62400099720E+02  0.69085483781E+02  0.41800000000E+01 0. -1.
         -5    1    4    4    0  501 -0.49181120793E+02  0.78207730029E+02 -0.19368283269E+02  0.94487218583E+02  0.41800000000E+01 0. -1.
</event>
<event>
11    1  0.1003949E-008  0.1979012E+03  0.7561462E-02  0.1056018E+00
         22   -1    0    0    0    0  0.00000000000E+00  0.00000000000E+00  0.49553928113E+03  0.49553928113E+03  0.00000000000E+00 0. -1.
         22   -1    0    0    0    0 -0.00000000000E+00 -0.00000000000E+00 -0.13872009577E+03  0.13872009577E+03  0.00000000000E+00 0. -1.
        -24    2    1    2    0    0  0.34022059908E+02 -0.15843132956E+03  0.22044276547E+01  0.18110022665E+03  0.80835919264E+02 0.  0.
         25    2    1    2    0    0 -0.48762374386E+02  0.12498516715E+03  0.17695823411E+03  0.25487395502E+03  0.12508978843E+03 0.  0.
         24    2    1    2    0    0  0.14740314478E+02  0.33446162419E+02  0.17765652361E+03  0.19828519523E+03  0.80120257209E+02 0.  0.
        -11    1    5    5    0    0  0.17077781725E+02  0.56658341022E+02  0.15436540232E+03  0.16531937476E+03  0.00000000000E+00 0.  1.
         12    1    5    5    0    0 -0.23374672471E+01 -0.23212178603E+02  0.23291121283E+02  0.32965820470E+02  0.00000000000E+00 0. -1.
         11    1    3    3    0    0  0.42585243599E+02 -0.31202275349E+02  0.82822236133E+01  0.53438564608E+02  0.00000000000E+00 0. -1.
        -12    1    3    3    0    0 -0.85631836915E+01 -0.12722905421E+03 -0.60777959586E+01  0.12766166204E+03  0.00000000000E+00 0.  1.
          5    1    4    4  501    0  0.21843974830E+02 -0.11731955679E+02  0.81762534351E+01  0.26440906577E+02  0.41800000000E+01 0. -1.
         -5    1    4    4    0  501 -0.70606349216E+02  0.13671712282E+03  0.16878198067E+03  0.22843304845E+03  0.41800000000E+01 0. -1.
</event>
<event>
11    1  0.2620404E-008  0.1675805E+03  0.7561462E-02  0.1080157E+00
         22   -1    0    0    0    0  0.00000000000E+00  0.00000000000E+00  0.15503762963E+04  0.15503762963E+04  0.00000000000E+00 0. -1.
         22   -1    0    0    0    0 -0.00000000000E+00 -0.00000000000E+00 -0.62203585245E+03  0.62203585245E+03  0.00000000000E+00 0.  1.
         24    2    1    2    0    0 -0.77994575347E+02 -0.70726516309E+02 -0.49772411578E+03  0.51500411717E+03  0.80090894504E+02 0.  0.
         25    2    1    2    0    0  0.14200084810E+03  0.14317064166E+03  0.11842931654E+02  0.23759240121E+03  0.12509124905E+03 0.  0.
        -24    2    1    2    0    0 -0.64006272750E+02 -0.72444125348E+02  0.14142216280E+04  0.14198156304E+04  0.80676247813E+02 0.  0.
        -13    1    3    3    0    0 -0.68592777161E+02 -0.68174594360E+02 -0.49571067258E+03  0.50505624964E+03  0.00000000000E+00 0.  1.
         14    1    3    3    0    0 -0.94017981861E+01 -0.25519219491E+01 -0.20134431954E+01  0.99478675236E+01  0.00000000000E+00 0. -1.
         13    1    5    5    0    0 -0.65161947947E+02 -0.88306918132E+02  0.12634459892E+04  0.12682034375E+04  0.00000000000E+00 0. -1.
        -14    1    5    5    0    0  0.11556751972E+01  0.15862792784E+02  0.15077563879E+03  0.15161219289E+03  0.00000000000E+00 0.  1.
          5    1    4    4  501    0  0.82282376178E+02  0.48685736705E+02  0.63022544709E+02  0.11458622923E+03  0.41800000000E+01 0.  1.
         -5    1    4    4    0  501  0.59718471918E+02  0.94484904952E+02 -0.51179613055E+02  0.12300617198E+03  0.41800000000E+01 0.  1.
</event>
<event>
11    1  0.1003949E-008  0.1372827E+03  0.7561462E-02  0.1110631E+00
         22   -1    0    0    0    0  0.00000000000E+00  0.00000000000E+00  0.11436319963E+04  0.11436319963E+04  0.00000000000E+00 0.  1.
         22   -1    0    0    0    0 -0.00000000000E+00 -0.00000000000E+00 -0.25457011144E+04  0.25457011144E+04  0.00000000000E+00 0. -1.
         24    2    1    2    0    0 -0.22987540075E+02  0.51211554451E+02 -0.24305208372E+04  0.24325129654E+04  0.80850084829E+02 0.  0.
         25    2    1    2    0    0  0.56978819406E+02 -0.60023244947E+02 -0.62435695369E+02  0.16246377108E+03  0.12508750962E+03 0.  0.
        -24    2    1    2    0    0 -0.33991279331E+02  0.88116904966E+01  0.10908874145E+04  0.10943563742E+04  0.79671009624E+02 0.  0.
        -13    1    3    3    0    0  0.16917897043E+02 -0.80200317505E+01 -0.20687965290E+03  0.20772512351E+03  0.00000000000E+00 0.  1.
         14    1    3    3    0    0 -0.39905437118E+02  0.59231586201E+02 -0.22236411843E+04  0.22247878419E+04  0.00000000000E+00 0. -1.
         11    1    5    5    0    0  0.31848908825E+01 -0.23648924800E+02  0.69428819295E+03  0.69469814311E+03  0.00000000000E+00 0. -1.
        -12    1    5    5    0    0 -0.37176170213E+02  0.32460615296E+02  0.39659922151E+03  0.39965823109E+03  0.00000000000E+00 0.  1.
          5    1    4    4  501    0  0.75573138540E+00 -0.49738652250E+02 -0.86847662255E+02  0.10017231901E+03  0.41800000000E+01 0.  1.
         -5    1    4    4    0  501  0.56223088021E+02 -0.10284592698E+02  0.24411966885E+02  0.62291452068E+02  0.41800000000E+01 0.  1.
</event>
<event>
11    1  0.1003949E-008  0.2325700E+03  0.7561462E-02  0.1033617E+00
         22   -1    0    0    0    0  0.00000000000E+00  0.00000000000E+00  0.27269547447E+03  0.27269547447E+03  0.00000000000E+00 0.  1.
         22   -1    0    0    0    0 -0.00000000000E+00 -0.00000000000E+00 -0.44497561970E+03  0.44497561970E+03  0.00000000000E+00 0. -1.
         24    2    1    2    0    0  0.16979256327E+03 -0.15947790421E+03 -0.24604451233E+03  0.34909695338E+03  0.84071780877E+02 0.  0.
         25    2    1    2    0    0 -0.17311721043E+01  0.92361664408E+02 -0.61966669698E+01  0.15562429445E+03  0.12508736280E+03 0.  0.
        -24    2    1    2    0    0 -0.16806139116E+03  0.67116239798E+02  0.79961034074E+02  0.21294984633E+03  0.78769595905E+02 0.  0.
        -11    1    3    3    0    0  0.30207438081E+02 -0.97862999880E+01 -0.38260064598E+01  0.31982797068E+02  0.00000000000E+00 0.  1.
         12    1    3    3    0    0  0.13958512519E+03 -0.14969160422E+03 -0.24221850587E+03  0.31711415631E+03  0.00000000000E+00 0. -1.
         11    1    5    5    0    0 -0.32419937962E+02  0.12464384547E+01  0.49389583584E+02  0.59092613353E+02  0.00000000000E+00 0. -1.
        -12    1    5    5    0    0 -0.13564145320E+03  0.65869801343E+02  0.30571450491E+02  0.15385723298E+03  0.00000000000E+00 0.  1.
          5    1    4    4  501    0 -0.58056210158E+01  0.12209285337E+03  0.71609331540E+01  0.12251171962E+03  0.41800000000E+01 0. -1.
         -5    1    4    4    0  501  0.40744489116E+01 -0.29731188962E+02 -0.13357600124E+02  0.33112574834E+02  0.41800000000E+01 0. -1.
</event>
<event>
11    1  0.1003949E-008  0.1427323E+03  0.7561462E-02  0.1104545E+00
         22   -1    0    0    0    0  0.00000000000E+00  0.00000000000E+00  0.60323278439E+03  0.60323278439E+03  0.00000000000E+00 0.  1.
         22   -1    0    0    0    0 -0.00000000000E+00 -0.00000000000E+00 -0.16591110593E+03  0.16591110593E+03  0.00000000000E+00 0.  1.
        -24    2    1    2    0    0 -0.30558331811E+02 -0.60429354220E+02 -0.10780134066E+03  0.16128005753E+03  0.99018227689E+02 0.  0.
         25    2    1    2    0    0  0.10135374844E+02  0.80182162124E+02  0.18261842364E+03  0.23564567315E+03  0.12508992635E+03 0.  0.
         24    2    1    2    0    0  0.20422956967E+02 -0.19752807904E+02  0.36250459548E+03  0.37221815964E+03  0.79558192752E+02 0.  0.
        -13    1    5    5    0    0 -0.13476692277E+02  0.31745285051E+01  0.27780413139E+03  0.27814894262E+03  0.00000000000E+00 0.  1.
         14    1    5    5    0    0  0.33899649244E+02 -0.22927336410E+02  0.84700464088E+02  0.94069217019E+02  0.00000000000E+00 0. -1.
         13    1    3    3    0    0 -0.33082514309E+02  0.19145850043E+02 -0.49798710640E+02  0.62776810275E+02  0.00000000000E+00 0. -1.
        -14    1    3    3    0    0  0.25241824980E+01 -0.79575204263E+02 -0.58002630018E+02  0.98503247255E+02  0.00000000000E+00 0.  1.
          5    1    4    4  501    0  0.61284988546E+01 -0.93574952681E+00 -0.17826741350E+02  0.19331301885E+02  0.41800000000E+01 0.  1.
         -5    1    4    4    0  501  0.40068759891E+01  0.81117911651E+02  0.20044516499E+03  0.21631437126E+03  0.41800000000E+01 0.  1.
</event>
<event>
11    1  0.1003949E-008  0.1455590E+03  0.7561462E-02  0.1101505E+00
         22   -1    0    0    0    0  0.00000000000E+00  0.00000000000E+00  0.30480778858E+04  0.30480778858E+04  0.00000000000E+00 0.  1.
         22   -1    0    0    0    0 -0.00000000000E+00 -0.00000000000E+00 -0.15958316089E+03  0.15958316089E+03  0.00000000000E+00 0.  1.
        -24    2    1    2    0    0 -0.47959646110E+02  0.57361905308E+02 -0.12270549891E+03  0.16505962941E+03  0.81225155966E+02 0.  0.
         25    2    1    2    0    0  0.73783104449E+02 -0.26994666276E+02  0.34927473092E+03  0.37922675474E+03  0.12508970918E+03 0.  0.
         24    2    1    2    0    0 -0.25823458339E+02 -0.30367239032E+02  0.26619254929E+04  0.26633746625E+04  0.78283095470E+02 0.  0.
        -13    1    5    5    0    0 -0.30846745963E+01 -0.40227189512E+02  0.23852784622E+04  0.23856196436E+04  0.00000000000E+00 0.  1.
         14    1    5    5    0    0 -0.22738783743E+02  0.98599504804E+01  0.27664703068E+03  0.27775501885E+03  0.00000000000E+00 0. -1.
         13    1    3    3    0    0 -0.45967444662E+01 -0.20452254890E+02 -0.28832398979E+02  0.35647328380E+02  0.00000000000E+00 0. -1.
        -14    1    3    3    0    0 -0.43362901644E+02  0.77814160198E+02 -0.93873099935E+02  0.12941230103E+03  0.00000000000E+00 0.  1.
          5    1    4    4  501    0  0.47087499348E+02 -0.27962294134E+02  0.34784110612E+03  0.35215057858E+03  0.41800000000E+01 0.  1.
         -5    1    4    4    0  501  0.26695605101E+02  0.96762785808E+00  0.14336247998E+01  0.27076176160E+02  0.41800000000E+01 0.  1.
</event>
<event>
11    1  0.1003949E-008  0.1532022E+03  0.7561462E-02  0.1093651E+00
         22   -1    0    0    0    0  0.00000000000E+00  0.00000000000E+00  0.86186899421E+03  0.86186899421E+03  0.00000000000E+00 0.  1.
         22   -1    0    0    0    0 -0.00000000000E+00 -0.00000000000E+00 -0.11834701291E+03  0.11834701291E+03  0.00000000000E+00 0. -1.
        -24    2    1    2    0    0  0.50322751294E+01 -0.50524005219E+02 -0.51257819609E+02  0.10869196856E+03  0.81293179683E+02 0.  0.
         25    2    1    2    0    0  0.48800599889E+02  0.11378489066E+03  0.20422499632E+03  0.26959973289E+03  0.12509063499E+03 0.  0.
         24    2    1    2    0    0 -0.53832875018E+02 -0.63260885440E+02  0.59055480459E+03  0.60192430567E+03  0.81596412125E+02 0.  0.
        -13    1    5    5    0    0 -0.64522619188E+02 -0.27729250608E+02  0.48455658362E+03  0.48961940572E+03  0.00000000000E+00 0.  1.
         14    1    5    5    0    0  0.10689744170E+02 -0.35531634833E+02  0.10599822097E+03  0.11230489995E+03  0.00000000000E+00 0. -1.
         13    1    3    3    0    0 -0.26100288881E+02 -0.55598123679E+02 -0.20806151511E+02  0.64848071498E+02  0.00000000000E+00 0. -1.
        -14    1    3    3    0    0  0.31132564010E+02  0.50741184607E+01 -0.30451668097E+02  0.43843897066E+02  0.00000000000E+00 0.  1.
          5    1    4    4  501    0  0.72958698908E+02  0.83584897012E+02  0.20216540213E+03  0.23064632877E+03  0.41800000000E+01 0.  1.
         -5    1    4    4    0  501 -0.24158099019E+02  0.30199993647E+02  0.20595941853E+01  0.38953404122E+02  0.41800000000E+01 0.  1.
</event>
<event>
11    1  0.1003949E-008  0.1326963E+03  0.7561462E-02  0.1116000E+00
         22   -1    0    0    0    0  0.00000000000E+00  0.00000000000E+00  0.35077854728E+03  0.35077854728E+03  0.00000000000E+00 0.  1.
         22   -1    0    0    0    0 -0.00000000000E+00 -0.00000000000E+00 -0.31587422805E+04  0.31587422805E+04  0.00000000000E+00 0.  1.
        -24    2    1    2    0    0 -0.39589646313E+02 -0.12500274465E+02 -0.30301503821E+04  0.30313118148E+04  0.72913535276E+02 0.  0.
         25    2    1    2    0    0  0.57800289859E+02  0.51222590779E+02 -0.76857952182E+02  0.16588982283E+03  0.12509061192E+03 0.  0.
         24    2    1    2    0    0 -0.18210643547E+02 -0.38722316314E+02  0.29904460109E+03  0.31231919009E+03  0.79275202524E+02 0.  0.
        -11    1    5    5    0    0 -0.29033282521E+02  0.14836291829E+02  0.15182661703E+03  0.15528801849E+03  0.00000000000E+00 0.  1.
         12    1    5    5    0    0  0.10822638974E+02 -0.53558608143E+02  0.14721798406E+03  0.15703117159E+03  0.00000000000E+00 0. -1.
         13    1    3    3    0    0  0.37071179878E+01  0.24999662680E+02 -0.69588654997E+03  0.69634532833E+03  0.00000000000E+00 0. -1.
        -14    1    3    3    0    0 -0.43296764300E+02 -0.37499937145E+02 -0.23342638321E+04  0.23349664865E+04  0.00000000000E+00 0.  1.
          5    1    4    4  501    0 -0.82458471940E+01  0.65526716383E+02 -0.38033392439E+01  0.66284857587E+02  0.41800000000E+01 0. -1.
         -5    1    4    4    0  501  0.66046137053E+02 -0.14304125604E+02 -0.73054612938E+02  0.99604965240E+02  0.41800000000E+01 0. -1.
</event>
<event>
11    1  0.1003949E-008  0.1398096E+03  0.7561462E-02  0.1107771E+00
         22   -1    0    0    0    0  0.00000000000E+00  0.00000000000E+00  0.66705470900E+02  0.66705470900E+02  0.00000000000E+00 0. -1.
         22   -1    0    0    0    0 -0.00000000000E+00 -0.00000000000E+00 -0.18663390305E+04  0.18663390305E+04  0.00000000000E+00 0. -1.
         24    2    1    2    0    0  0.48730521865E+02 -0.28227954766E+02 -0.13452435745E+04  0.13486937669E+04  0.78250374063E+02 0.  0.
         25    2    1    2    0    0 -0.84572842116E+02  0.72952220134E+02 -0.45400117623E+03  0.48398331329E+03  0.12509271554E+03 0.  0.
        -24    2    1    2    0    0  0.35842320251E+02 -0.44724265368E+02 -0.38880892996E+00  0.10036742124E+03  0.82392573933E+02 0.  0.
        -13    1    3    3    0    0 -0.14733026403E+02 -0.28125266503E+02 -0.55403807331E+03  0.55494709600E+03  0.00000000000E+00 0.  1.
         14    1    3    3    0    0  0.63463548267E+02 -0.10268826312E+00 -0.79120550114E+03  0.79374667088E+03  0.00000000000E+00 0. -1.
         13    1    5    5    0    0  0.37072108803E+02 -0.48935091093E+01  0.31842536876E+02  0.49114507401E+02  0.00000000000E+00 0. -1.
        -14    1    5    5    0    0 -0.12297885519E+01 -0.39830756259E+02 -0.32231345806E+02  0.51252913834E+02  0.00000000000E+00 0.  1.
          5    1    4    4  501    0 -0.90027004385E+02  0.53004047030E+02 -0.45065041592E+03  0.46262031980E+03  0.41800000000E+01 0. -1.
         -5    1    4    4    0  501  0.54541622689E+01  0.19948173104E+02 -0.33507603053E+01  0.21362993490E+02  0.41800000000E+01 0. -1.
</event>
<event>
11    1  0.1003949E-008  0.2168138E+03  0.7561462E-02  0.1043232E+00
         22   -1    0    0    0    0  0.00000000000E+00  0.00000000000E+00  0.54238748213E+03  0.54238748213E+03  0.00000000000E+00 0.  1.
         22   -1    0    0    0    0 -0.00000000000E+00 -0.00000000000E+00 -0.51318033360E+03  0.51318033360E+03  0.00000000000E+00 0. -1.
        -24    2    1    2    0    0 -0.94644168463E+02  0.13734568836E+03 -0.33354160909E+03  0.38152857252E+03  0.80577229560E+02 0.  0.
         25    2    1    2    0    0  0.13937127755E+03 -0.17674140254E+03 -0.38257606472E+02  0.26033237128E+03  0.12508965867E+03 0.  0.
         24    2    1    2    0    0 -0.44727109084E+02  0.39395714182E+02  0.40100636409E+03  0.41370687192E+03  0.82430184121E+02 0.  0.
        -13    1    5    5    0    0 -0.66894447252E+02  0.34076427065E+02  0.34800927794E+03  0.35601478549E+03  0.00000000000E+00 0.  1.
         14    1    5    5    0    0  0.22167338168E+02  0.53192871168E+01  0.52997086149E+02  0.57692086435E+02  0.00000000000E+00 0. -1.
         11    1    3    3    0    0 -0.23511247422E+02  0.89147798313E+02 -0.11984808820E+03  0.15120738389E+03  0.00000000000E+00 0. -1.
        -12    1    3    3    0    0 -0.71132921041E+02  0.48197890044E+02 -0.21369352089E+03  0.23032118863E+03  0.00000000000E+00 0.  1.
          5    1    4    4  501    0 -0.14892395370E+02  0.52778499370E+01  0.64084867692E+01  0.17555063158E+02  0.41800000000E+01 0.  1.
         -5    1    4    4    0  501  0.15426367292E+03 -0.18201925248E+03 -0.44666093241E+02  0.24277730812E+03  0.41800000000E+01 0.  1.
</event>
<event>
11    1  0.1003949E-008  0.1478018E+03  0.7561462E-02  0.1099146E+00
         22   -1    0    0    0    0  0.00000000000E+00  0.00000000000E+00  0.41843823950E+03  0.41843823950E+03  0.00000000000E+00 0.  1.
         22   -1    0    0    0    0 -0.00000000000E+00 -0.00000000000E+00 -0.35566330678E+03  0.35566330678E+03  0.00000000000E+00 0.  1.
        -24    2    1    2    0    0  0.49210295627E+02 -0.65333219940E+02 -0.29903853289E+03  0.31658773384E+03  0.64137869023E+02 0.  0.
         25    2    1    2    0    0 -0.56753863227E+02  0.27468693913E+01  0.79807317372E+02  0.15888244103E+03  0.12508347564E+03 0.  0.
         24    2    1    2    0    0  0.75435676000E+01  0.62586350548E+02  0.28200614824E+03  0.29863137142E+03  0.75360942534E+02 0.  0.
        -11    1    5    5    0    0  0.18614607825E+02  0.24545610853E+02  0.23563426021E+03  0.23763942271E+03  0.00000000000E+00 0.  1.
         12    1    5    5    0    0 -0.11071040225E+02  0.38040739695E+02  0.46371888028E+02  0.60991948710E+02  0.00000000000E+00 0. -1.
         11    1    3    3    0    0  0.22575267591E+02  0.53271901411E+01 -0.35198257555E+02  0.42153754240E+02  0.00000000000E+00 0. -1.
        -12    1    3    3    0    0  0.26635028036E+02 -0.70660410081E+02 -0.26384027534E+03  0.27443397960E+03  0.00000000000E+00 0.  1.
          5    1    4    4  501    0 -0.86546710350E+00 -0.86247858080E+01 -0.31936902438E+02  0.33355270961E+02  0.41800000000E+01 0.  1.
         -5    1    4    4    0  501 -0.55888396124E+02  0.11371655199E+02  0.11174421981E+03  0.12552717006E+03  0.41800000000E+01 0.  1.
</event>
<event>
11    1  0.1003949E-008  0.1599799E+03  0.7561462E-02  0.1087096E+00
         22   -1    0    0    0    0  0.00000000000E+00  0.00000000000E+00  0.10355253837E+04  0.10355253837E+04  0.00000000000E+00 0. -1.
         22   -1    0    0    0    0 -0.00000000000E+00 -0.00000000000E+00 -0.44213936375E+03  0.44213936375E+03  0.00000000000E+00 0.  1.
         24    2    1    2    0    0  0.44393136258E+02 -0.95396294313E+02 -0.38516950791E+03  0.40740313220E+03  0.80935522380E+02 0.  0.
         25    2    1    2    0    0 -0.63006064518E+02  0.15442992541E+02  0.75350778225E+02  0.15979074672E+03  0.12508833988E+03 0.  0.
        -24    2    1    2    0    0  0.18612928260E+02  0.79953301772E+02  0.90320474964E+03  0.91047086853E+03  0.80245941353E+02 0.  0.
        -13    1    3    3    0    0  0.30429357698E+02 -0.10724781196E+03 -0.35516671297E+03  0.37225184081E+03  0.00000000000E+00 0.  1.
         14    1    3    3    0    0  0.13963778560E+02  0.11851517647E+02 -0.30002794940E+02  0.35151291390E+02  0.00000000000E+00 0. -1.
         13    1    5    5    0    0  0.34483145533E+02  0.25565116557E+02  0.62960064183E+03  0.63106230334E+03  0.00000000000E+00 0. -1.
        -14    1    5    5    0    0 -0.15870217273E+02  0.54388185215E+02  0.27360410781E+03  0.27940856519E+03  0.00000000000E+00 0.  1.
          5    1    4    4  501    0 -0.66624157754E+02  0.15699217710E+02  0.10731293843E+03  0.12735298578E+03  0.41800000000E+01 0.  1.
         -5    1    4    4    0  501  0.36180932352E+01 -0.25622516863E+00 -0.31962160205E+02  0.32437760943E+02  0.41800000000E+01 0.  1.
</event>
<event>
11    1  0.1003949E-008  0.2236342E+03  0.7561462E-02  0.1038965E+00
         22   -1    0    0    0    0  0.00000000000E+00  0.00000000000E+00  0.52492112176E+03  0.52492112176E+03  0.00000000000E+00 0.  1.
         22   -1    0    0    0    0 -0.00000000000E+00 -0.00000000000E+00 -0.43266270874E+03  0.43266270874E+03  0.00000000000E+00 0.  1.
        -24    2    1    2    0    0 -0.27986372498E+02  0.15902658034E+03 -0.13929914470E+03  0.22805704847E+03  0.80827441747E+02 0.  0.
         25    2    1    2    0    0  0.15219085876E+03 -0.19225779841E+03 -0.15380109594E+03  0.31531982687E+03  0.12508676015E+03 0.  0.
         24    2    1    2    0    0 -0.12420448626E+03  0.33231218074E+02  0.38535865365E+03  0.41420695517E+03  0.80839603534E+02 0.  0.
        -11    1    5    5    0    0 -0.40490010133E+02  0.47588003700E+02  0.11577522889E+03  0.13155973032E+03  0.00000000000E+00 0.  1.
         12    1    5    5    0    0 -0.83714476131E+02 -0.14356785626E+02  0.26958342476E+03  0.28264722484E+03  0.00000000000E+00 0. -1.
         13    1    3    3    0    0  0.24309133195E+01  0.11965794257E+03 -0.13131060067E+03  0.17766937386E+03  0.00000000000E+00 0. -1.
        -14    1    3    3    0    0 -0.30417285817E+02  0.39368637775E+02 -0.79885440349E+01  0.50387674609E+02  0.00000000000E+00 0.  1.
          5    1    4    4  501    0  0.90111490657E+02 -0.33477669355E+02 -0.19324261688E+02  0.98141400966E+02  0.41800000000E+01 0.  1.
         -5    1    4    4    0  501  0.62079368105E+02 -0.15878012906E+03 -0.13447683425E+03  0.21717842590E+03  0.41800000000E+01 0.  1.
</event>
<event>
11    1  0.1003949E-008  0.1384829E+03  0.7561462E-02  0.1109264E+00
         22   -1    0    0    0    0  0.00000000000E+00  0.00000000000E+00  0.15470759187E+04  0.15470759187E+04  0.00000000000E+00 0.  1.
         22   -1    0    0    0    0 -0.00000000000E+00 -0.00000000000E+00 -0.17095327440E+03  0.17095327440E+03  0.00000000000E+00 0.  1.
         24    2    1    2    0    0  0.22819075105E+02  0.55266137769E+02 -0.13364829394E+03  0.16785189964E+03  0.82081286353E+02 0.  0.
         25    2    1    2    0    0  0.19258131372E+02 -0.64798416193E+02  0.25405699008E+03  0.29113880261E+03  0.12508851990E+03 0.  0.
        -24    2    1    2    0    0 -0.42077206477E+02  0.95322784241E+01  0.12557139481E+04  0.12590384908E+04  0.80616662074E+02 0.  0.
        -11    1    3    3    0    0  0.49810878282E+02  0.49573885126E+02 -0.11423323079E+03  0.13411906911E+03  0.00000000000E+00 0.  1.
         12    1    3    3    0    0 -0.26991803177E+02  0.56922526434E+01 -0.19415063142E+02  0.33732830532E+02  0.00000000000E+00 0. -1.
         11    1    5    5    0    0 -0.98852496620E+01 -0.14386930616E+02  0.56069684676E+02  0.58724028073E+02  0.00000000000E+00 0. -1.
        -12    1    5    5    0    0 -0.32191956815E+02  0.23919209040E+02  0.11996442634E+04  0.12003144627E+04  0.00000000000E+00 0.  1.
          5    1    4    4  501    0  0.20199651281E+02 -0.82521405657E+02  0.25869853247E+03  0.27232372538E+03  0.41800000000E+01 0. -1.
         -5    1    4    4    0  501 -0.94151990889E+00  0.17722989464E+02 -0.46415423892E+01  0.18815077226E+02  0.41800000000E+01 0. -1.
</event>
<event>
11    1  0.1003949E-008  0.1592420E+03  0.7561462E-02  0.1087792E+00
         22   -1    0    0    0    0  0.00000000000E+00  0.00000000000E+00  0.57971862951E+03  0.57971862951E+03  0.00000000000E+00 0. -1.
         22   -1    0    0    0    0 -0.00000000000E+00 -0.00000000000E+00 -0.14144393210E+03  0.14144393210E+03  0.00000000000E+00 0.  1.
        -24    2    1    2    0    0 -0.18619578574E+02 -0.42722877236E+02 -0.73833523713E+02  0.11966670806E+03  0.81833971231E+02 0.  0.
         25    2    1    2    0    0  0.86630584191E+02  0.97956940877E+02  0.21454111234E+03  0.28067064226E+03  0.12509076770E+03 0.  0.
         24    2    1    2    0    0 -0.68011005617E+02 -0.55234063640E+02  0.29756710879E+03  0.32082521130E+03  0.81892205356E+02 0.  0.
        -13    1    5    5    0    0 -0.34736139011E+02 -0.76714342588E+01  0.28539182713E+02  0.45606306657E+02  0.00000000000E+00 0.  1.
         14    1    5    5    0    0 -0.33274866606E+02 -0.47562629382E+02  0.26902792608E+03  0.27521890464E+03  0.00000000000E+00 0. -1.
         11    1    3    3    0    0  0.25705103749E+02  0.34146296629E+01 -0.38959300806E+02  0.46799991173E+02  0.00000000000E+00 0. -1.
        -12    1    3    3    0    0 -0.44324682323E+02 -0.46137506899E+02 -0.34874222906E+02  0.72866716883E+02  0.00000000000E+00 0.  1.
          5    1    4    4  501    0  0.24057709716E+01 -0.26687679801E+02  0.15821713939E+02  0.31397755001E+02  0.41800000000E+01 0.  1.
         -5    1    4    4    0  501  0.84224813220E+02  0.12464462068E+03  0.19871939840E+03  0.24927288726E+03  0.41800000000E+01 0.  1.
</event>
<event>
11    1  0.1003949E-008  0.3938476E+03  0.7561462E-02  0.9668087E-01
         22   -1    0    0    0    0  0.00000000000E+00  0.00000000000E+00  0.91353562449E+03  0.91353562449E+03  0.00000000000E+00 0. -1.
         22   -1    0    0    0    0 -0.00000000000E+00 -0.00000000000E+00 -0.27781492660E+04  0.27781492660E+04  0.00000000000E+00 0.  1.
         24    2    1    2    0    0  0.35100269009E+03 -0.11524260410E+03 -0.25524667071E+04  0.25802989843E+04  0.79829891215E+02 0.  0.
         25    2    1    2    0    0 -0.44856399189E+03  0.82304970519E+02  0.67826061157E+02  0.47773990729E+03  0.12510508161E+03 0.  0.
        -24    2    1    2    0    0  0.97561301806E+02  0.32937633586E+02  0.62002700444E+03  0.63364599884E+03  0.80440476709E+02 0.  0.
        -11    1    3    3    0    0  0.35461473808E+03 -0.11651591492E+03 -0.25023542876E+04  0.25300404249E+04  0.00000000000E+00 0.  1.
         12    1    3    3    0    0 -0.36120479904E+01  0.12733108173E+01 -0.50112419471E+02  0.50258559433E+02  0.00000000000E+00 0. -1.
         13    1    5    5    0    0  0.57210635031E+02  0.26299342630E+01  0.50235629399E+03  0.50561034347E+03  0.00000000000E+00 0. -1.
        -14    1    5    5    0    0  0.40350666775E+02  0.30307699323E+02  0.11767071046E+03  0.12803565538E+03  0.00000000000E+00 0.  1.
          5    1    4    4  501    0 -0.37184205621E+03  0.63998521686E+02  0.59107620983E+01  0.37737876869E+03  0.41800000000E+01 0.  1.
         -5    1    4    4    0  501 -0.76721935680E+02  0.18306448833E+02  0.61915299058E+02  0.10036113860E+03  0.41800000000E+01 0.  1.
</event>
<event>
11    1  0.1003949E-008  0.1316729E+03  0.7561462E-02  0.1117230E+00
         22   -1    0    0    0    0  0.00000000000E+00  0.00000000000E+00  0.69741236269E+03  0.69741236269E+03  0.00000000000E+00 0.  1.
         22   -1    0    0    0    0 -0.00000000000E+00 -0.00000000000E+00 -0.29350164747E+03  0.29350164747E+03  0.00000000000E+00 0. -1.
        -24    2    1    2    0    0  0.18567023397E+01 -0.42135675069E+02 -0.26196828666E+03  0.27766484028E+03  0.81801698341E+02 0.  0.
         25    2    1    2    0    0 -0.81951891451E+01  0.13704885356E+02  0.17937756834E+03  0.21926887777E+03  0.12509014241E+03 0.  0.
         24    2    1    2    0    0  0.63384868054E+01  0.28430789712E+02  0.48650143355E+03  0.49398029212E+03  0.80525759468E+02 0.  0.
        -13    1    5    5    0    0  0.29696445820E+02  0.17744406290E+02  0.43553690837E+03  0.43690861905E+03  0.00000000000E+00 0.  1.
         14    1    5    5    0    0 -0.23357959015E+02  0.10686383422E+02  0.50964525178E+02  0.57071673067E+02  0.00000000000E+00 0. -1.
         13    1    3    3    0    0 -0.16739121580E+02 -0.24310474707E+02 -0.24510691197E+03  0.24687769374E+03  0.00000000000E+00 0. -1.
        -14    1    3    3    0    0  0.18595823920E+02 -0.17825200362E+02 -0.16861374692E+02  0.30787146534E+02  0.00000000000E+00 0.  1.
          5    1    4    4  501    0 -0.31407928304E+02  0.49210005537E+02  0.16370594210E+03  0.17385393433E+03  0.41800000000E+01 0. -1.
         -5    1    4    4    0  501  0.23212739159E+02 -0.35505120181E+02  0.15671626239E+02  0.45414943436E+02  0.41800000000E+01 0. -1.
</event>
<event>
11    1  0.1003949E-008  0.2042883E+03  0.7561462E-02  0.1051532E+00
         22   -1    0    0    0    0  0.00000000000E+00  0.00000000000E+00  0.19957245896E+03  0.19957245896E+03  0.00000000000E+00 0.  1.
         22   -1    0    0    0    0 -0.00000000000E+00 -0.00000000000E+00 -0.78631884082E+03  0.78631884082E+03  0.00000000000E+00 0. -1.
         24    2    1    2    0    0  0.15995305990E+03  0.26220396108E+02 -0.47624336077E+03  0.50941284372E+03  0.80132491099E+02 0.  0.
         25    2    1    2    0    0 -0.16283837925E+03  0.11160241581E+02 -0.24153888749E+03  0.31722023284E+03  0.12508698255E+03 0.  0.
        -24    2    1    2    0    0  0.28853193517E+01 -0.37380637690E+02  0.13103586639E+03  0.15925822322E+03  0.82384138276E+02 0.  0.
        -11    1    3    3    0    0  0.21231241391E+02  0.56716621455E+01 -0.13280912279E+02  0.25677149247E+02  0.00000000000E+00 0.  1.
         12    1    3    3    0    0  0.13872181851E+03  0.20548733963E+02 -0.46296244849E+03  0.48373569448E+03  0.00000000000E+00 0. -1.
         13    1    5    5    0    0 -0.23051618803E+02  0.21917500660E+01  0.37428543255E+01  0.23456126200E+02  0.00000000000E+00 0. -1.
        -14    1    5    5    0    0  0.25936938155E+02 -0.39572387756E+02  0.12729301207E+03  0.13580209702E+03  0.00000000000E+00 0.  1.
          5    1    4    4  501    0 -0.10959272972E+03  0.48034571576E+02 -0.82370174596E+02  0.14532792071E+03  0.41800000000E+01 0.  1.
         -5    1    4    4    0  501 -0.53245649532E+02 -0.36874329995E+02 -0.15916871289E+03  0.17189231213E+03  0.41800000000E+01 0.  1.
</event>
<event>
11    1  0.1003949E-008  0.1396453E+03  0.7561462E-02  0.1107955E+00
         22   -1    0    0    0    0  0.00000000000E+00  0.00000000000E+00  0.62942810077E+03  0.62942810077E+03  0.00000000000E+00 0. -1.
         22   -1    0    0    0    0 -0.00000000000E+00 -0.00000000000E+00 -0.96340053972E+03  0.96340053972E+03  0.00000000000E+00 0. -1.
        -24    2    1    2    0    0 -0.45368660446E+02  0.42549348428E+02 -0.89387967115E+03  0.89944840617E+03  0.78216407882E+02 0.  0.
         25    2    1    2    0    0  0.34384273391E+02 -0.49206627741E+02  0.11005349157E+02  0.13918300627E+03  0.12508885264E+03 0.  0.
         24    2    1    2    0    0  0.10984387055E+02  0.66572793132E+01  0.54890188304E+03  0.55419722805E+03  0.75341318287E+02 0.  0.
        -13    1    5    5    0    0  0.24851484694E+02 -0.16935620992E+02  0.99076557822E+02  0.10354021373E+03  0.00000000000E+00 0.  1.
         14    1    5    5    0    0 -0.13867097639E+02  0.23592900305E+02  0.44982532522E+03  0.45065701431E+03  0.00000000000E+00 0. -1.
         13    1    3    3    0    0 -0.60540480771E+02  0.69521538979E+01 -0.51223351103E+03  0.51584556999E+03  0.00000000000E+00 0. -1.
        -14    1    3    3    0    0  0.15171820325E+02  0.35597194530E+02 -0.38164616011E+03  0.38360283617E+03  0.00000000000E+00 0.  1.
          5    1    4    4  501    0 -0.31368556891E+02 -0.61121792296E+02 -0.87324004514E+01  0.69380019261E+02  0.41800000000E+01 0.  1.
         -5    1    4    4    0  501  0.65752830282E+02  0.11915164555E+02  0.19737749608E+02  0.69802987014E+02  0.41800000000E+01 0.  1.
</event>
<event>
11    1  0.1003949E-008  0.1840018E+03  0.7561462E-02  0.1066451E+00
         22   -1    0    0    0    0  0.00000000000E+00  0.00000000000E+00  0.22647835541E+03  0.22647835541E+03  0.00000000000E+00 0.  1.
         22   -1    0    0    0    0 -0.00000000000E+00 -0.00000000000E+00 -0.30526285972E+04  0.30526285972E+04  0.00000000000E+00 0.  1.
         24    2    1    2    0    0  0.10742209617E+03  0.88239017432E+00 -0.25719428778E+04  0.25754025067E+04  0.79168299254E+02 0.  0.
         25    2    1    2    0    0 -0.48356963029E+02 -0.12539030949E+03 -0.42810429068E+03  0.46581296665E+03  0.12508921062E+03 0.  0.
        -24    2    1    2    0    0 -0.59065133139E+02  0.12450791932E+03  0.17389692670E+03  0.23789147922E+03  0.85798035186E+02 0.  0.
        -13    1    3    3    0    0  0.88214706682E+02 -0.32764272087E+02 -0.17060267053E+04  0.17086200430E+04  0.00000000000E+00 0.  1.
         14    1    3    3    0    0  0.19207389486E+02  0.33646662262E+02 -0.86591617250E+03  0.86678246376E+03  0.00000000000E+00 0. -1.
         13    1    5    5    0    0 -0.32828859754E+01 -0.61061376794E+01  0.46765111405E+02  0.47276187477E+02  0.00000000000E+00 0. -1.
        -14    1    5    5    0    0 -0.55782247164E+02  0.13061405700E+03  0.12713181530E+03  0.19061529174E+03  0.00000000000E+00 0.  1.
          5    1    4    4  501    0 -0.26467664297E+02 -0.74167278830E+02 -0.76738585891E+02  0.11003456487E+03  0.41800000000E+01 0. -1.
         -5    1    4    4    0  501 -0.21889298732E+02 -0.51223030663E+02 -0.35136570479E+03  0.35577840178E+03  0.41800000000E+01 0. -1.
</event>
<event>
11    1  0.1003949E-008  0.1846509E+03  0.7561462E-02  0.1065942E+00
         22   -1    0    0    0    0  0.00000000000E+00  0.00000000000E+00  0.37583396366E+03  0.37583396366E+03  0.00000000000E+00 0. -1.
         22   -1    0    0    0    0 -0.00000000000E+00 -0.00000000000E+00 -0.21449722800E+04  0.21449722800E+04  0.00000000000E+00 0.  1.
         24    2    1    2    0    0 -0.27811951003E+02  0.13340231213E+03 -0.20756518024E+04  0.20816647827E+04  0.80175940541E+02 0.  0.
         25    2    1    2    0    0  0.57933144638E+02 -0.10672517163E+03  0.72905379548E+02  0.18896905557E+03  0.12509035970E+03 0.  0.
        -24    2    1    2    0    0 -0.30121193634E+02 -0.26677140500E+02  0.23360810653E+03  0.25017240533E+03  0.79965797805E+02 0.  0.
        -11    1    3    3    0    0 -0.32870831486E+02  0.10733521092E+03 -0.11129626929E+04  0.11186095363E+04  0.00000000000E+00 0.  1.
         12    1    3    3    0    0  0.50588804822E+01  0.26067101208E+02 -0.96268910950E+03  0.96305524638E+03  0.00000000000E+00 0. -1.
         11    1    5    5    0    0 -0.50941935735E+02 -0.69791101386E+01  0.89296477047E+02  0.10304197983E+03  0.00000000000E+00 0. -1.
        -12    1    5    5    0    0  0.20820742101E+02 -0.19698030361E+02  0.14431162948E+03  0.14713042549E+03  0.00000000000E+00 0.  1.
          5    1    4    4  501    0  0.33435651202E+01 -0.22139102178E+02  0.84527381488E+02  0.87542389128E+02  0.41800000000E+01 0. -1.
         -5    1    4    4    0  501  0.54589579517E+02 -0.84586069449E+02 -0.11622001940E+02  0.10142666644E+03  0.41800000000E+01 0. -1.
</event>
<event>
11    1  0.1003949E-008  0.3008186E+03  0.7561462E-02  0.9998453E-01
         22   -1    0    0    0    0  0.00000000000E+00  0.00000000000E+00  0.94909902240E+03  0.94909902240E+03  0.00000000000E+00 0.  1.
         22   -1    0    0    0    0 -0.00000000000E+00 -0.00000000000E+00 -0.25912981142E+03  0.25912981142E+03  0.00000000000E+00 0. -1.
        -24    2    1    2    0    0  0.37323920242E+01 -0.18726480370E+02 -0.98718812618E+02  0.12808457730E+03  0.79345089082E+02 0.  0.
         25    2    1    2    0    0  0.21264941749E+03  0.18351309588E+03  0.81494191963E+02  0.31809394452E+03  0.12508246518E+03 0.  0.
         24    2    1    2    0    0 -0.21638180952E+03 -0.16478661551E+03  0.70719383163E+03  0.76205031200E+03  0.81374728110E+02 0.  0.
        -13    1    5    5    0    0 -0.20250182306E+03 -0.11977139082E+03  0.55721603862E+03  0.60484864892E+03  0.00000000000E+00 0.  1.
         14    1    5    5    0    0 -0.13879986454E+02 -0.45015224695E+02  0.14997779301E+03  0.15720166308E+03  0.00000000000E+00 0. -1.
         11    1    3    3    0    0 -0.12098411340E+02 -0.46458428147E+02 -0.71520649774E+02  0.86139192282E+02  0.00000000000E+00 0. -1.
        -12    1    3    3    0    0  0.15830803364E+02  0.27731947777E+02 -0.27198162844E+02  0.41945385023E+02  0.00000000000E+00 0.  1.
          5    1    4    4  501    0  0.25611364198E+02  0.97208937643E+02  0.37802795245E+02  0.10748043200E+03  0.41800000000E+01 0.  1.
         -5    1    4    4    0  501  0.18703805329E+03  0.86304158240E+02  0.43691396718E+02  0.21061351252E+03  0.41800000000E+01 0.  1.
</event>
<event>
11    1  0.1003949E-008  0.1903978E+03  0.7561462E-02  0.1061529E+00
         22   -1    0    0    0    0  0.00000000000E+00  0.00000000000E+00  0.72567012465E+03  0.72567012465E+03  0.00000000000E+00 0.  1.
         22   -1    0    0    0    0 -0.00000000000E+00 -0.00000000000E+00 -0.24938348712E+04  0.24938348712E+04  0.00000000000E+00 0. -1.
        -24    2    1    2    0    0  0.81438905117E+02 -0.11487394051E+03 -0.22906231641E+04  0.22957524265E+04  0.60798079942E+02 0.  0.
         25    2    1    2    0    0 -0.18441062556E+03  0.19260693981E+03 -0.78528764668E+02  0.30482577426E+03  0.12508906302E+03 0.  0.
         24    2    1    2    0    0  0.10297172045E+03 -0.77732999297E+02  0.60098718224E+03  0.61892679504E+03  0.72382249221E+02 0.  0.
        -13    1    5    5    0    0  0.95238120735E+02 -0.73838025658E+02  0.59759890989E+03  0.60962842025E+03  0.00000000000E+00 0.  1.
         14    1    5    5    0    0  0.77335997113E+01 -0.38949736385E+01  0.33882723531E+01  0.92983747869E+01  0.00000000000E+00 0. -1.
         13    1    3    3    0    0  0.22370088267E+02 -0.82170335062E+02 -0.11677196593E+04  0.11708209033E+04  0.00000000000E+00 0. -1.
        -14    1    3    3    0    0  0.59068816850E+02 -0.32703605452E+02 -0.11229035048E+04  0.11249315232E+04  0.00000000000E+00 0.  1.
          5    1    4    4  501    0 -0.13825201348E+03  0.19209345648E+03 -0.95803257943E+02  0.25536102265E+03  0.41800000000E+01 0. -1.
         -5    1    4    4    0  501 -0.46158612080E+02  0.51348333282E+00  0.17274493276E+02  0.49464751614E+02  0.41800000000E+01 0. -1.
</event>
<event>
11    1  0.1003949E-008  0.1630560E+03  0.7561462E-02  0.1084238E+00
         22   -1    0    0    0    0  0.00000000000E+00  0.00000000000E+00  0.12349863137E+04  0.12349863137E+04  0.00000000000E+00 0. -1.
         22   -1    0    0    0    0 -0.00000000000E+00 -0.00000000000E+00 -0.18987934675E+04  0.18987934675E+04  0.00000000000E+00 0. -1.
        -24    2    1    2    0    0 -0.59242078307E+02 -0.64054449879E+02 -0.18135933899E+04  0.18175078252E+04  0.81247242711E+02 0.  0.
         25    2    1    2    0    0  0.92173415881E+02  0.15937615197E+03  0.76728086146E+02  0.23543854266E+03  0.12508961490E+03 0.  0.
         24    2    1    2    0    0 -0.32931337575E+02 -0.95321702091E+02  0.10730581500E+04  0.10808334133E+04  0.81094846793E+02 0.  0.
        -11    1    5    5    0    0  0.24140915927E+02 -0.52238582133E+02  0.43901049800E+03  0.44276615796E+03  0.00000000000E+00 0.  1.
         12    1    5    5    0    0 -0.57072253502E+02 -0.43083119958E+02  0.63404765200E+03  0.63806725535E+03  0.00000000000E+00 0. -1.
         13    1    3    3    0    0  0.73452599971E+01 -0.38940414124E+02 -0.10075271648E+04  0.10083061522E+04  0.00000000000E+00 0. -1.
        -14    1    3    3    0    0 -0.66587338304E+02 -0.25114035755E+02 -0.80606622505E+03  0.80920167299E+03  0.00000000000E+00 0.  1.
          5    1    4    4  501    0  0.16392654772E+02  0.10740013968E+03  0.91710959445E+02  0.14223881895E+03  0.41800000000E+01 0.  1.
         -5    1    4    4    0  501  0.75780761109E+02  0.51976012290E+02 -0.14982873299E+02  0.93199723712E+02  0.41800000000E+01 0.  1.
</event>
<event>
11    1  0.1003949E-008  0.1492226E+03  0.7561462E-02  0.1097676E+00
         22   -1    0    0    0    0  0.00000000000E+00  0.00000000000E+00  0.13760245304E+03  0.13760245304E+03  0.00000000000E+00 0. -1.
         22   -1    0    0    0    0 -0.00000000000E+00 -0.00000000000E+00 -0.52261714780E+03  0.52261714780E+03  0.00000000000E+00 0. -1.
        -24    2    1    2    0    0  0.13352880016E+02  0.59569154699E+02 -0.35641782781E+03  0.37042436339E+03  0.80335281250E+02 0.  0.
         25    2    1    2    0    0 -0.21928618174E+02 -0.12443862452E+03 -0.50271641085E+02  0.18477103651E+03  0.12508901817E+03 0.  0.
         24    2    1    2    0    0  0.85757381580E+01  0.64869469817E+02  0.21674774140E+02  0.10502420094E+03  0.79238220259E+02 0.  0.
        -13    1    5    5    0    0 -0.33485360739E+02  0.44667498695E+02  0.79637748388E+01  0.56390393980E+02  0.00000000000E+00 0.  1.
         14    1    5    5    0    0  0.42061098897E+02  0.20201971122E+02  0.13710999301E+02  0.48633806960E+02  0.00000000000E+00 0. -1.
         11    1    3    3    0    0  0.27621996982E+02  0.12276678819E+02 -0.26316982453E+03  0.26490007192E+03  0.00000000000E+00 0. -1.
        -12    1    3    3    0    0 -0.14269116966E+02  0.47292475880E+02 -0.93248003277E+02  0.10552429146E+03  0.00000000000E+00 0.  1.
          5    1    4    4  501    0 -0.35649067165E+02  0.12896018079E+02 -0.21294467576E+02  0.43681689772E+02  0.41800000000E+01 0. -1.
         -5    1    4    4    0  501  0.13720448991E+02 -0.13733464260E+03 -0.28977173509E+02  0.14108934673E+03  0.41800000000E+01 0. -1.
</event>
<event>
11    1  0.1003949E-008  0.1067972E+04  0.7561462E-02  0.8616922E-01
         22   -1    0    0    0    0  0.00000000000E+00  0.00000000000E+00  0.68737241738E+03  0.68737241738E+03  0.00000000000E+00 0. -1.
         22   -1    0    0    0    0 -0.00000000000E+00 -0.00000000000E+00 -0.41482761387E+03  0.41482761387E+03  0.00000000000E+00 0.  1.
         24    2    1    2    0    0 -0.20069700340E+03 -0.14833898249E+03 -0.60303711210E+02  0.27393283159E+03  0.95493024538E+02 0.  0.
         25    2    1    2    0    0  0.19272910505E+03  0.36064236708E+03  0.40630173924E+03  0.58986132531E+03  0.12509138628E+03 0.  0.
        -24    2    1    2    0    0  0.79678983586E+01 -0.21230338458E+03 -0.73453224523E+02  0.23840587435E+03  0.79408880005E+02 0.  0.
        -13    1    3    3    0    0 -0.73423847654E+02 -0.19415538334E+02  0.15564299152E+02  0.77525943665E+02  0.00000000000E+00 0.  1.
         14    1    3    3    0    0 -0.12727315575E+03 -0.12892344416E+03 -0.75868010363E+02  0.19640688793E+03  0.00000000000E+00 0. -1.
         11    1    5    5    0    0  0.25465509866E+02 -0.34074572602E+02 -0.35353699243E+02  0.55312319974E+02  0.00000000000E+00 0. -1.
        -12    1    5    5    0    0 -0.17497611507E+02 -0.17822881198E+03 -0.38099525281E+02  0.18309355438E+03  0.00000000000E+00 0.  1.
          5    1    4    4  501    0  0.17378142449E+03  0.28193680733E+03  0.38121616599E+03  0.50500651921E+03  0.41800000000E+01 0.  1.
         -5    1    4    4    0  501  0.18947680552E+02  0.78705559743E+02  0.25085573246E+02  0.84854806098E+02  0.41800000000E+01 0.  1.
</event>
<event>
11    1  0.1003949E-008  0.1587730E+03  0.7561462E-02  0.1088237E+00
         22   -1    0    0    0    0  0.00000000000E+00  0.00000000000E+00  0.81670997115E+03  0.81670997115E+03  0.00000000000E+00 0.  1.
         22   -1    0    0    0    0 -0.00000000000E+00 -0.00000000000E+00 -0.16039610760E+03  0.16039610760E+03  0.00000000000E+00 0.  1.
        -24    2    1    2    0    0  0.49083544757E+02 -0.25955402775E+02 -0.99931482049E+02  0.13977371971E+03  0.80420857487E+02 0.  0.
         25    2    1    2    0    0  0.55806207581E+02  0.77537407549E+01  0.10515969522E+03  0.17286000045E+03  0.12509022726E+03 0.  0.
         24    2    1    2    0    0 -0.10488975234E+03  0.18201662020E+02  0.65108565038E+03  0.66447235858E+03  0.79232761787E+02 0.  0.
        -13    1    5    5    0    0 -0.13621827900E+02  0.26285620767E+02  0.30603824868E+03  0.30746690506E+03  0.00000000000E+00 0.  1.
         14    1    5    5    0    0 -0.91267924438E+02 -0.80839587477E+01  0.34504740170E+03  0.35700545351E+03  0.00000000000E+00 0. -1.
         13    1    3    3    0    0  0.99282311807E+01 -0.27318414941E+02  0.33993152612E+01  0.29264670056E+02  0.00000000000E+00 0. -1.
        -14    1    3    3    0    0  0.39155313577E+02  0.13630121662E+01 -0.10333079731E+03  0.11050904966E+03  0.00000000000E+00 0.  1.
          5    1    4    4  501    0 -0.42008007920E+01  0.30787266634E+02 -0.16330849937E+02  0.35350694106E+02  0.41800000000E+01 0.  1.
         -5    1    4    4    0  501  0.60007008373E+02 -0.23033525879E+02  0.12149054516E+03  0.13750930635E+03  0.41800000000E+01 0.  1.
</event>
<event>
11    1  0.1003949E-008  0.1306241E+03  0.7561462E-02  0.1118505E+00
         22   -1    0    0    0    0  0.00000000000E+00  0.00000000000E+00  0.17146628420E+03  0.17146628420E+03  0.00000000000E+00 0. -1.
         22   -1    0    0    0    0 -0.00000000000E+00 -0.00000000000E+00 -0.74591055690E+03  0.74591055690E+03  0.00000000000E+00 0. -1.
        -24    2    1    2    0    0 -0.29713507048E+02 -0.27208384565E+02 -0.62021021308E+03  0.62822934890E+03  0.91587213731E+02 0.  0.
         25    2    1    2    0    0 -0.20112306903E+02  0.34107670742E+02 -0.62139932554E+02  0.14517832421E+03  0.12509011356E+03 0.  0.
         24    2    1    2    0    0  0.49825813951E+02 -0.68992861764E+01  0.10790587293E+03  0.14396916799E+03  0.80952035387E+02 0.  0.
        -13    1    5    5    0    0  0.43336107714E+02 -0.39275874545E+02  0.48400477281E+02  0.75915866287E+02  0.00000000000E+00 0.  1.
         14    1    5    5    0    0  0.64897062372E+01  0.32376588368E+02  0.59505395646E+02  0.68053301701E+02  0.00000000000E+00 0. -1.
         11    1    3    3    0    0 -0.48892037515E+02 -0.40398244111E+02 -0.56154436632E+03  0.56511461209E+03  0.00000000000E+00 0. -1.
        -12    1    3    3    0    0  0.19178530467E+02  0.13189859546E+02 -0.58665846764E+02  0.63114736808E+02  0.00000000000E+00 0.  1.
          5    1    4    4  501    0  0.22361422370E+02 -0.33938842066E+02 -0.48980445458E+02  0.63784282142E+02  0.41800000000E+01 0.  1.
         -5    1    4    4    0  501 -0.42473729272E+02  0.68046512808E+02 -0.13159487096E+02  0.81394042068E+02  0.41800000000E+01 0.  1.
</event>
<event>
11    1  0.1003949E-008  0.2755978E+03  0.7561462E-02  0.1011083E+00
         22   -1    0    0    0    0  0.00000000000E+00  0.00000000000E+00  0.21280357080E+04  0.21280357080E+04  0.00000000000E+00 0.  1.
         22   -1    0    0    0    0 -0.00000000000E+00 -0.00000000000E+00 -0.13676779098E+03  0.13676779098E+03  0.00000000000E+00 0. -1.
         24    2    1    2    0    0  0.12906347754E+03 -0.21766882220E+02 -0.42757148366E+01  0.15339599657E+03  0.79880358220E+02 0.  0.
         25    2    1    2    0    0 -0.10468960060E+02  0.24424496672E+03  0.35106094003E+03  0.44571196925E+03  0.12510065158E+03 0.  0.
        -24    2    1    2    0    0 -0.11859451748E+03 -0.22247808450E+03  0.16444826919E+04  0.16656955332E+04  0.81591223959E+02 0.  0.
        -13    1    3    3    0    0  0.10609659505E+03  0.13950778721E+02  0.12501081744E+02  0.10773759211E+03  0.00000000000E+00 0.  1.
         14    1    3    3    0    0  0.22966882488E+02 -0.35717660941E+02 -0.16776796580E+02  0.45658404459E+02  0.00000000000E+00 0. -1.
         11    1    5    5    0    0 -0.10510280253E+02 -0.10008915627E+03  0.55616014455E+03  0.56519236688E+03  0.00000000000E+00 0. -1.
        -12    1    5    5    0    0 -0.10808423723E+03 -0.12238892823E+03  0.10883225473E+04  0.11005031663E+04  0.00000000000E+00 0.  1.
          5    1    4    4  501    0 -0.13857925008E+01  0.25513109635E+03  0.30678680884E+03  0.39903560646E+03  0.41800000000E+01 0.  1.
         -5    1    4    4    0  501 -0.90831675597E+01 -0.10886129623E+02  0.44274131190E+02  0.46676362795E+02  0.41800000000E+01 0.  1.
</event>
<event>
11    1  0.1003949E-008  0.2977702E+03  0.7561462E-02  0.1001139E+00
         22   -1    0    0    0    0  0.00000000000E+00  0.00000000000E+00  0.40957013069E+03  0.40957013069E+03  0.00000000000E+00 0.  1.
         22   -1    0    0    0    0 -0.00000000000E+00 -0.00000000000E+00 -0.24693623727E+04  0.24693623727E+04  0.00000000000E+00 0. -1.
        -24    2    1    2    0    0 -0.23573689834E+03 -0.12587743664E+03 -0.22406020328E+04  0.22580633246E+04  0.84471853421E+02 0.  0.
         25    2    1    2    0    0  0.31047344589E+03  0.97802128374E+02 -0.60712144058E+02  0.35396606478E+03  0.12508794371E+03 0.  0.
         24    2    1    2    0    0 -0.74736547545E+02  0.28075308270E+02  0.24152193493E+03  0.26690311398E+03  0.80812454048E+02 0.  0.
        -11    1    5    5    0    0 -0.27458459279E+02  0.14482359299E+02  0.20038799550E+03  0.20277833824E+03  0.00000000000E+00 0.  1.
         12    1    5    5    0    0 -0.47278088266E+02  0.13592948971E+02  0.41133939426E+02  0.64124775746E+02  0.00000000000E+00 0. -1.
         13    1    3    3    0    0 -0.23358013450E+03 -0.12312604106E+03 -0.22384257199E+04  0.22539452977E+04  0.00000000000E+00 0. -1.
        -14    1    3    3    0    0 -0.21567638468E+01 -0.27513955871E+01 -0.21763129207E+01  0.41180269422E+01  0.00000000000E+00 0.  1.
          5    1    4    4  501    0  0.29530663685E+03  0.72581491498E+02 -0.84778608719E+02  0.31571976114E+03  0.41800000000E+01 0. -1.
         -5    1    4    4    0  501  0.15166809038E+02  0.25220636876E+02  0.24066464661E+02  0.38246303640E+02  0.41800000000E+01 0. -1.
</event>
<event>
11    1  0.1003949E-008  0.2277431E+03  0.7561462E-02  0.1036473E+00
         22   -1    0    0    0    0  0.00000000000E+00  0.00000000000E+00  0.14114126430E+04  0.14114126430E+04  0.00000000000E+00 0. -1.
         22   -1    0    0    0    0 -0.00000000000E+00 -0.00000000000E+00 -0.50395855716E+03  0.50395855716E+03  0.00000000000E+00 0.  1.
        -24    2    1    2    0    0  0.18583542768E+03 -0.43417489087E+02 -0.42823666066E+03  0.47566831177E+03  0.80335675408E+02 0.  0.
         25    2    1    2    0    0 -0.15571900317E+03  0.13339750021E+03  0.24902294635E+03  0.34598155535E+03  0.12508999890E+03 0.  0.
         24    2    1    2    0    0 -0.30116424511E+02 -0.89980011125E+02  0.10866678001E+04  0.10937213330E+04  0.79850140973E+02 0.  0.
        -11    1    5    5    0    0 -0.30395930481E+02  0.30849409138E+01  0.23258929201E+03  0.23458731468E+03  0.00000000000E+00 0.  1.
         12    1    5    5    0    0  0.27950596965E+00 -0.93064952038E+02  0.85407850814E+03  0.85913401835E+03  0.00000000000E+00 0. -1.
         13    1    3    3    0    0  0.38960146850E+02 -0.85487144748E+01 -0.18612165876E+03  0.19034769612E+03  0.00000000000E+00 0. -1.
        -14    1    3    3    0    0  0.14687528083E+03 -0.34868774613E+02 -0.24211500191E+03  0.28532061564E+03  0.00000000000E+00 0.  1.
          5    1    4    4  501    0 -0.24604667403E+02  0.85116340337E+02  0.47195371147E+02  0.10047415841E+03  0.41800000000E+01 0. -1.
         -5    1    4    4    0  501 -0.13111433577E+03  0.48281159875E+02  0.20182757520E+03  0.24550739694E+03  0.41800000000E+01 0. -1.
</event>
<event>
11    1  0.1003949E-008  0.1535172E+03  0.7561462E-02  0.1093338E+00
         22   -1    0    0    0    0  0.00000000000E+00  0.00000000000E+00  0.62799764897E+03  0.62799764897E+03  0.00000000000E+00 0. -1.
         22   -1    0    0    0    0 -0.00000000000E+00 -0.00000000000E+00 -0.83426861113E+03  0.83426861113E+03  0.00000000000E+00 0.  1.
        -24    2    1    2    0    0  0.32690811104E+02  0.78566516791E+02 -0.67981196810E+03  0.68963655499E+03  0.78821819992E+02 0.  0.
         25    2    1    2    0    0 -0.79440596563E+02 -0.11482744575E+03 -0.84580481662E+02  0.20566831042E+03  0.12509774320E+03 0.  0.
         24    2    1    2    0    0  0.46749785459E+02  0.36260928962E+02  0.55812148760E+03  0.56696139469E+03  0.80282194422E+02 0.  0.
        -13    1    5    5    0    0  0.43641757874E+02 -0.16469091201E+02  0.24139195846E+03  0.24585750264E+03  0.00000000000E+00 0.  1.
         14    1    5    5    0    0  0.31080275848E+01  0.52730020164E+02  0.31672952914E+03  0.32110389205E+03  0.00000000000E+00 0. -1.
         11    1    3    3    0    0  0.31186081749E+02  0.69659908897E+02 -0.29482655540E+03  0.30454518937E+03  0.00000000000E+00 0. -1.
        -12    1    3    3    0    0  0.15047293551E+01  0.89066078932E+01 -0.38498541271E+03  0.38509136561E+03  0.00000000000E+00 0.  1.
          5    1    4    4  501    0  0.33809470583E+02 -0.28107931092E+02 -0.13107257019E+02  0.46069606878E+02  0.41800000000E+01 0.  1.
         -5    1    4    4    0  501 -0.11325006715E+03 -0.86719514661E+02 -0.71473224642E+02  0.15959870354E+03  0.41800000000E+01 0.  1.
</event>
<event>
11    1  0.1003949E-008  0.1396664E+03  0.7561462E-02  0.1107931E+00
         22   -1    0    0    0    0  0.00000000000E+00  0.00000000000E+00  0.50021233213E+03  0.50021233213E+03  0.00000000000E+00 0. -1.
         22   -1    0    0    0    0 -0.00000000000E+00 -0.00000000000E+00 -0.19442872008E+04  0.19442872008E+04  0.00000000000E+00 0.  1.
         24    2    1    2    0    0  0.60208612674E+02  0.17838190407E+02 -0.18046657862E+04  0.18074775286E+04  0.78823464742E+02 0.  0.
         25    2    1    2    0    0  0.35355961415E-01 -0.39877418381E+02 -0.10012755094E+03  0.16511431867E+03  0.12508797715E+03 0.  0.
        -24    2    1    2    0    0 -0.60243968636E+02  0.22039227974E+02  0.46071846840E+03  0.47190768569E+03  0.79500272732E+02 0.  0.
        -13    1    3    3    0    0  0.34628337724E+02  0.33346227407E+02 -0.15911875609E+04  0.15919136115E+04  0.00000000000E+00 0.  1.
         14    1    3    3    0    0  0.25580274950E+02 -0.15508036999E+02 -0.21347822527E+03  0.21556391707E+03  0.00000000000E+00 0. -1.
         11    1    5    5    0    0 -0.61761114988E+02  0.34419779919E+02  0.44982315929E+03  0.45534605654E+03  0.00000000000E+00 0. -1.
        -12    1    5    5    0    0  0.15171463528E+01 -0.12380551945E+02  0.10895309107E+02  0.16561629149E+02  0.00000000000E+00 0.  1.
          5    1    4    4  501    0  0.42762111523E+02 -0.59304033493E+02 -0.26862631520E+02  0.78004102089E+02  0.41800000000E+01 0.  1.
         -5    1    4    4    0  501 -0.42726755561E+02  0.19426615112E+02 -0.73264919421E+02  0.87110216584E+02  0.41800000000E+01 0.  1.
</event>
<event>
11    1  0.1003949E-008  0.1554649E+03  0.7561462E-02  0.1091422E+00
         22   -1    0    0    0    0  0.00000000000E+00  0.00000000000E+00  0.15834757899E+03  0.15834757899E+03  0.00000000000E+00 0. -1.
         22   -1    0    0    0    0 -0.00000000000E+00 -0.00000000000E+00 -0.65916566408E+03  0.65916566408E+03  0.00000000000E+00 0.  1.
         24    2    1    2    0    0 -0.72074143518E+02 -0.54933018087E+02 -0.38487237794E+03  0.40376153348E+03  0.81757629449E+02 0.  0.
         25    2    1    2    0    0  0.55780290448E+02  0.84136931510E+02 -0.22357403707E+03  0.27536006259E+03  0.12508936794E+03 0.  0.
        -24    2    1    2    0    0  0.16293853070E+02 -0.29203913422E+02  0.10762832992E+03  0.13839164700E+03  0.80312093436E+02 0.  0.
        -13    1    3    3    0    0 -0.24748185299E+01 -0.29600065673E+02 -0.23197675118E+03  0.23387069441E+03  0.00000000000E+00 0.  1.
         14    1    3    3    0    0 -0.69599324988E+02 -0.25332952415E+02 -0.15289562676E+03  0.16989083907E+03  0.00000000000E+00 0. -1.
         13    1    5    5    0    0  0.28795489117E+02 -0.67693255580E+01  0.10873336447E+03  0.11268517432E+03  0.00000000000E+00 0. -1.
        -14    1    5    5    0    0 -0.12501636046E+02 -0.22434587864E+02 -0.11050345530E+01  0.25706472684E+02  0.00000000000E+00 0.  1.
          5    1    4    4  501    0  0.74142371581E+02  0.41842263923E+00 -0.91265884093E+02  0.11766137999E+03  0.41800000000E+01 0. -1.
         -5    1    4    4    0  501 -0.18362081133E+02  0.83718508871E+02 -0.13230815297E+03  0.15769868260E+03  0.41800000000E+01 0. -1.
</event>
<event>
11    1  0.1003949E-008  0.1573688E+03  0.7561462E-02  0.1089578E+00
         22   -1    0    0    0    0  0.00000000000E+00  0.00000000000E+00  0.58638845266E+03  0.58638845266E+03  0.00000000000E+00 0.  1.
         22   -1    0    0    0    0 -0.00000000000E+00 -0.00000000000E+00 -0.26196029425E+03  0.26196029425E+03  0.00000000000E+00 0.  1.
         24    2    1    2    0    0  0.21234689865E+02 -0.36108055694E+02 -0.16250797126E+03  0.18810210633E+03  0.84963862573E+02 0.  0.
         25    2    1    2    0    0  0.29689431381E+02  0.11470311082E+03  0.16066214035E+02  0.17304394273E+03  0.12509123437E+03 0.  0.
        -24    2    1    2    0    0 -0.50924121246E+02 -0.78595055125E+02  0.47086991563E+03  0.48720269784E+03  0.82930950362E+02 0.  0.
        -13    1    3    3    0    0 -0.11421287887E+02 -0.11204510460E+02 -0.14069240220E+03  0.14159921930E+03  0.00000000000E+00 0.  1.
         14    1    3    3    0    0  0.32655977753E+02 -0.24903545233E+02 -0.21815569061E+02  0.46502887024E+02  0.00000000000E+00 0. -1.
         13    1    5    5    0    0 -0.67499392425E+01  0.55868924778E+01  0.19895229043E+03  0.19914514535E+03  0.00000000000E+00 0. -1.
        -14    1    5    5    0    0 -0.44174182003E+02 -0.84181947603E+02  0.27191762520E+03  0.28805755250E+03  0.00000000000E+00 0.  1.
          5    1    4    4  501    0 -0.12332658165E+02  0.59605209790E+02  0.64202309537E+02  0.88567965097E+02  0.41800000000E+01 0.  1.
         -5    1    4    4    0  501  0.42022089545E+02  0.55097901029E+02 -0.48136095502E+02  0.84475977637E+02  0.41800000000E+01 0.  1.
</event>
<event>
11    1  0.1003949E-008  0.1596446E+03  0.7561462E-02  0.1087412E+00
         22   -1    0    0    0    0  0.00000000000E+00  0.00000000000E+00  0.17157844367E+04  0.17157844367E+04  0.00000000000E+00 0.  1.
         22   -1    0    0    0    0 -0.00000000000E+00 -0.00000000000E+00 -0.52979358977E+03  0.52979358977E+03  0.00000000000E+00 0. -1.
         24    2    1    2    0    0  0.15717020053E+02 -0.37348419849E+02 -0.47345998933E+03  0.48042529857E+03  0.70726068909E+02 0.  0.
         25    2    1    2    0    0 -0.79097697295E+02 -0.40142570430E+02  0.66741209250E+02  0.16724099073E+03  0.12508912139E+03 0.  0.
        -24    2    1    2    0    0  0.63380677241E+02  0.77490990279E+02  0.15927096270E+04  0.15979117371E+04  0.81092539849E+02 0.  0.
        -11    1    3    3    0    0 -0.24411235569E+02 -0.17320820207E+02 -0.10301574534E+03  0.10727610648E+03  0.00000000000E+00 0.  1.
         12    1    3    3    0    0  0.40128255623E+02 -0.20027599642E+02 -0.37044424399E+03  0.37314919208E+03  0.00000000000E+00 0. -1.
         11    1    5    5    0    0  0.23629506701E+02 -0.14868699158E+02  0.39822663893E+03  0.39920406781E+03  0.00000000000E+00 0. -1.
        -12    1    5    5    0    0  0.39751170540E+02  0.92359689437E+02  0.11944829881E+04  0.11987076693E+04  0.00000000000E+00 0.  1.
          5    1    4    4  501    0 -0.82410988320E+02  0.33052965122E+01 -0.55067846257E+01  0.82766497195E+02  0.41800000000E+01 0.  1.
         -5    1    4    4    0  501  0.33132910256E+01 -0.43447866942E+02  0.72247993876E+02  0.84474493537E+02  0.41800000000E+01 0.  1.
</event>
<event>
11    1  0.1003949E-008  0.1552610E+03  0.7561462E-02  0.1091621E+00
         22   -1    0    0    0    0  0.00000000000E+00  0.00000000000E+00  0.13807599224E+04  0.13807599224E+04  0.00000000000E+00 0. -1.
         22   -1    0    0    0    0 -0.00000000000E+00 -0.00000000000E+00 -0.60912892495E+02  0.60912892495E+02  0.00000000000E+00 0. -1.
         24    2    1    2    0    0 -0.52593485482E+02  0.28241945547E+02  0.43808281188E+02  0.10879524324E+03  0.79709204283E+02 0.  0.
         25    2    1    2    0    0  0.13277576818E+03 -0.54938176101E+02  0.34081181710E+03  0.39044406650E+03  0.12508503739E+03 0.  0.
        -24    2    1    2    0    0 -0.80182282697E+02  0.26696230553E+02  0.93522693157E+03  0.94243350511E+03  0.79935041380E+02 0.  0.
        -11    1    3    3    0    0  0.67075611016E+01  0.35733822168E+02  0.30738881301E+02  0.47610673659E+02  0.00000000000E+00 0.  1.
         12    1    3    3    0    0 -0.59301046584E+02 -0.74918766212E+01  0.13069399887E+02  0.61184569580E+02  0.00000000000E+00 0. -1.
         11    1    5    5    0    0 -0.65266624314E+02 -0.54570293351E+01  0.34617219081E+03  0.35231335074E+03  0.00000000000E+00 0. -1.
        -12    1    5    5    0    0 -0.14915658384E+02  0.32153259889E+02  0.58905474076E+03  0.59012015437E+03  0.00000000000E+00 0.  1.
          5    1    4    4  501    0  0.53211699065E+01 -0.49223895480E+02  0.40408019031E+02  0.64043634636E+02  0.41800000000E+01 0. -1.
         -5    1    4    4    0  501  0.12745459827E+03 -0.57142806211E+01  0.30040379807E+03  0.32640043186E+03  0.41800000000E+01 0. -1.
</event>
<event>
11    1  0.1003949E-008  0.1522222E+03  0.7561462E-02  0.1094630E+00
         22   -1    0    0    0    0  0.00000000000E+00  0.00000000000E+00  0.25332492239E+04  0.25332492239E+04  0.00000000000E+00 0.  1.
         22   -1    0    0    0    0 -0.00000000000E+00 -0.00000000000E+00 -0.16986474078E+03  0.16986474078E+03  0.00000000000E+00 0.  1.
         24    2    1    2    0    0  0.67115178144E+02 -0.18426032929E+02 -0.14026755544E+03  0.17816457374E+03  0.84992131409E+02 0.  0.
         25    2    1    2    0    0 -0.49711619888E+02  0.10160886542E+03  0.81136450323E+03  0.82870668714E+03  0.12508720768E+03 0.  0.
        -24    2    1    2    0    0 -0.17403558256E+02 -0.83182832487E+02  0.16922875353E+04  0.16962427038E+04  0.78612597535E+02 0.  0.
        -11    1    3    3    0    0  0.78791107103E+02 -0.16516119461E+02 -0.14465410038E+03  0.16554645728E+03  0.00000000000E+00 0.  1.
         12    1    3    3    0    0 -0.11675928959E+02 -0.19099134686E+01  0.43865449445E+01  0.12618116463E+02  0.00000000000E+00 0. -1.
         13    1    5    5    0    0 -0.22922240691E+02  0.44314741720E+01  0.19665925644E+03  0.19804022376E+03  0.00000000000E+00 0. -1.
        -14    1    5    5    0    0  0.55186824355E+01 -0.87614306659E+02  0.14956282789E+04  0.14982024801E+04  0.00000000000E+00 0.  1.
          5    1    4    4  501    0 -0.45080733017E+02  0.59728199297E+02  0.16811212721E+03  0.18406219057E+03  0.41800000000E+01 0. -1.
         -5    1    4    4    0  501 -0.46308868714E+01  0.41880666119E+02  0.64325237602E+03  0.64464449657E+03  0.41800000000E+01 0. -1.
</event>
<event>
11    1  0.1003949E-008  0.1439926E+03  0.7561462E-02  0.1103180E+00
         22   -1    0    0    0    0  0.00000000000E+00  0.00000000000E+00  0.26878639674E+03  0.26878639674E+03  0.00000000000E+00 0. -1.
         22   -1    0    0    0    0 -0.00000000000E+00 -0.00000000000E+00 -0.11068002090E+04  0.11068002090E+04  0.00000000000E+00 0. -1.
        -24    2    1    2    0    0  0.30814520646E+02  0.74566055685E+02 -0.84352267428E+03  0.85129263252E+03  0.81602774551E+02 0.  0.
         25    2    1    2    0    0  0.19937404128E+02 -0.38166202692E+02 -0.23168156753E+03  0.26679035877E+03  0.12508632095E+03 0.  0.
         24    2    1    2    0    0 -0.50751924774E+02 -0.36399852993E+02  0.23719042956E+03  0.25750361444E+03  0.78409848920E+02 0.  0.
        -11    1    5    5    0    0  0.31577981185E+01 -0.16244841991E+02  0.36114404860E+01  0.16938390793E+02  0.00000000000E+00 0.  1.
         12    1    5    5    0    0 -0.53909722892E+02 -0.20155011003E+02  0.23357898907E+03  0.24056522364E+03  0.00000000000E+00 0. -1.
         13    1    3    3    0    0  0.33405617839E+02  0.52881517293E+01 -0.48185256600E+03  0.48303808878E+03  0.00000000000E+00 0. -1.
        -14    1    3    3    0    0 -0.25910971935E+01  0.69277903956E+02 -0.36167010829E+03  0.36825454375E+03  0.00000000000E+00 0.  1.
          5    1    4    4  501    0  0.41538426592E+02 -0.53490867164E+02 -0.23013864080E+03  0.23993328269E+03  0.41800000000E+01 0.  1.
         -5    1    4    4    0  501 -0.21601022464E+02  0.15324664472E+02 -0.15429267272E+01  0.26857076080E+02  0.41800000000E+01 0.  1.
</event>
<event>
11    1  0.1060433E-008  0.1524618E+03  0.7561462E-02  0.1094389E+00
         22   -1    0    0    0    0  0.00000000000E+00  0.00000000000E+00  0.27309729255E+03  0.27309729255E+03  0.00000000000E+00 0.  1.
         22   -1    0    0    0    0 -0.00000000000E+00 -0.00000000000E+00 -0.13021902959E+04  0.13021902959E+04  0.00000000000E+00 0.  1.
         24    2    1    2    0    0  0.53182363790E+01 -0.38395422335E+02 -0.11502565858E+04  0.11537035444E+04  0.80244396111E+02 0.  0.
         25    2    1    2    0    0  0.33727766056E+02 -0.43760810976E+02 -0.10002883808E+03  0.16942786537E+03  0.12508981707E+03 0.  0.
        -24    2    1    2    0    0 -0.39046002435E+02  0.82156233312E+02  0.22119242050E+03  0.25215617870E+03  0.79890015608E+02 0.  0.
        -11    1    3    3    0    0 -0.26365461886E+02 -0.41132286795E+02 -0.91549788515E+03  0.91680062189E+03  0.00000000000E+00 0.  1.
         12    1    3    3    0    0  0.31683698265E+02  0.27368644597E+01 -0.23475870064E+03  0.23690292250E+03  0.00000000000E+00 0. -1.
         13    1    5    5    0    0  0.66323165841E+01  0.13357692031E+02 -0.11648204590E+01  0.14959022908E+02  0.00000000000E+00 0. -1.
        -14    1    5    5    0    0 -0.45678319019E+02  0.68798541281E+02  0.22235724096E+03  0.23719715580E+03  0.00000000000E+00 0.  1.
          5    1    4    4  501    0  0.34321558847E+00  0.21808828153E+02 -0.92749560794E+02  0.95371359484E+02  0.41800000000E+01 0.  1.
         -5    1    4    4    0  501  0.33384550468E+02 -0.65569639130E+02 -0.72792772815E+01  0.74056505881E+02  0.41800000000E+01 0.  1.
</event>
<event>
11    1  0.1003949E-008  0.1980394E+03  0.7561462E-02  0.1055919E+00
         22   -1    0    0    0    0  0.00000000000E+00  0.00000000000E+00  0.10787438965E+04  0.10787438965E+04  0.00000000000E+00 0. -1.
         22   -1    0    0    0    0 -0.00000000000E+00 -0.00000000000E+00 -0.24534985967E+04  0.24534985967E+04  0.00000000000E+00 0.  1.
        -24    2    1    2    0    0 -0.26297662210E+02 -0.31422228353E+02 -0.23743167279E+04  0.23761016455E+04  0.82463214152E+02 0.  0.
         25    2    1    2    0    0  0.49155070021E+02  0.17956967230E+03  0.10890558139E+03  0.24933810781E+03  0.12509028032E+03 0.  0.
         24    2    1    2    0    0 -0.22857407811E+02 -0.14814744394E+03  0.89065644632E+03  0.90680273997E+03  0.80945522438E+02 0.  0.
        -11    1    5    5    0    0  0.29765460803E+02 -0.47137767718E+02  0.25496138407E+03  0.26098517040E+03  0.00000000000E+00 0.  1.
         12    1    5    5    0    0 -0.52622868613E+02 -0.10100967622E+03  0.63569506225E+03  0.64581756957E+03  0.00000000000E+00 0. -1.
         11    1    3    3    0    0 -0.37514367926E+02  0.17546109419E+02 -0.11881891013E+04  0.11889106502E+04  0.00000000000E+00 0. -1.
        -12    1    3    3    0    0  0.11216705716E+02 -0.48968337773E+02 -0.11861276266E+04  0.11871909953E+04  0.00000000000E+00 0.  1.
          5    1    4    4  501    0  0.78811952514E+02  0.57586233036E+02  0.36085866253E+02  0.10414970109E+03  0.41800000000E+01 0. -1.
         -5    1    4    4    0  501 -0.29656882493E+02  0.12198343926E+03  0.72819715136E+02  0.14518840672E+03  0.41800000000E+01 0. -1.
</event>
<event>
11    1  0.1003949E-008  0.1595822E+03  0.7561462E-02  0.1087471E+00
         22   -1    0    0    0    0  0.00000000000E+00  0.00000000000E+00  0.11656645445E+04  0.11656645445E+04  0.00000000000E+00 0. -1.
         22   -1    0    0    0    0 -0.00000000000E+00 -0.00000000000E+00 -0.18467451336E+04  0.18467451336E+04  0.00000000000E+00 0. -1.
        -24    2    1    2    0    0  0.51035968723E+02 -0.83875021456E+02 -0.17819781167E+04  0.17866415752E+04  0.83680468546E+02 0.  0.
         25    2    1    2    0    0 -0.72208958481E+02  0.15700514143E+03  0.13321058040E+03  0.25152127097E+03  0.12511252097E+03 0.  0.
         24    2    1    2    0    0  0.21172989758E+02 -0.73130119972E+02  0.96768694718E+03  0.97424683191E+03  0.83321976734E+02 0.  0.
        -11    1    5    5    0    0  0.10020333246E+02  0.33101472113E+01  0.50834132224E+03  0.50845084723E+03  0.00000000000E+00 0.  1.
         12    1    5    5    0    0  0.11152656511E+02 -0.76440267184E+02  0.45934562494E+03  0.46579598468E+03  0.00000000000E+00 0. -1.
         11    1    3    3    0    0  0.12014329382E+02  0.70473810165E+01 -0.70261825323E+03  0.70275630161E+03  0.00000000000E+00 0. -1.
        -12    1    3    3    0    0  0.39021639341E+02 -0.90922402472E+02 -0.10793598634E+04  0.10838852736E+04  0.00000000000E+00 0.  1.
          5    1    4    4  501    0  0.29692275908E+02  0.23949062310E+02  0.16391186129E+01  0.38410258317E+02  0.41800000000E+01 0.  1.
         -5    1    4    4    0  501 -0.10190123439E+03  0.13305607912E+03  0.13157146178E+03  0.21311101266E+03  0.41800000000E+01 0.  1.
</event>
<event>
11    1  0.1003949E-008  0.2091693E+03  0.7561462E-02  0.1048222E+00
         22   -1    0    0    0    0  0.00000000000E+00  0.00000000000E+00  0.23128554074E+03  0.23128554074E+03  0.00000000000E+00 0.  1.
         22   -1    0    0    0    0 -0.00000000000E+00 -0.00000000000E+00 -0.63020039282E+03  0.63020039282E+03  0.00000000000E+00 0. -1.
        -24    2    1    2    0    0  0.46724588831E+02  0.12256020169E+02 -0.38114550005E+03  0.39256037649E+03  0.80612404465E+02 0.  0.
         25    2    1    2    0    0  0.87398476980E+02  0.10299262638E+03 -0.14724542927E+03  0.23574243562E+03  0.12508918676E+03 0.  0.
         24    2    1    2    0    0 -0.13412306581E+03 -0.11524864655E+03  0.12947607724E+03  0.23318312144E+03  0.79618253159E+02 0.  0.
        -11    1    5    5    0    0 -0.65023799399E+02 -0.71366379455E+02  0.11483591122E+03  0.15002846767E+03  0.00000000000E+00 0.  1.
         12    1    5    5    0    0 -0.69099266412E+02 -0.43882267093E+02  0.14640166018E+02  0.83154653778E+02  0.00000000000E+00 0. -1.
         11    1    3    3    0    0 -0.16991828669E+02 -0.16435475784E+02 -0.80395467405E+02  0.83799035108E+02  0.00000000000E+00 0. -1.
        -12    1    3    3    0    0  0.63716417500E+02  0.28691495952E+02 -0.30075003264E+03  0.30876134138E+03  0.00000000000E+00 0.  1.
          5    1    4    4  501    0 -0.10697165584E+02 -0.14305825955E+02 -0.52969140932E+02  0.56056117408E+02  0.41800000000E+01 0.  1.
         -5    1    4    4    0  501  0.98095642563E+02  0.11729845233E+03 -0.94276288335E+02  0.17968631821E+03  0.41800000000E+01 0.  1.
</event>
<event>
11    1  0.1003949E-008  0.1717137E+03  0.7561462E-02  0.1076550E+00
         22   -1    0    0    0    0  0.00000000000E+00  0.00000000000E+00  0.14891697719E+04  0.14891697719E+04  0.00000000000E+00 0.  1.
         22   -1    0    0    0    0 -0.00000000000E+00 -0.00000000000E+00 -0.12036722554E+03  0.12036722554E+03  0.00000000000E+00 0.  1.
         24    2    1    2    0    0 -0.29358545498E+02 -0.20323943347E+02 -0.81163151681E+02  0.11840559313E+03  0.78469359791E+02 0.  0.
         25    2    1    2    0    0  0.10130736552E+03  0.10315864083E+03  0.55944248929E+03  0.59120925460E+03  0.12509035299E+03 0.  0.
        -24    2    1    2    0    0 -0.71948820022E+02 -0.82834697480E+02  0.89052320872E+03  0.89992214969E+03  0.69210334689E+02 0.  0.
        -13    1    3    3    0    0  0.14101970865E+02 -0.66984206657E+01 -0.69716109489E+02  0.71442776710E+02  0.00000000000E+00 0.  1.
         14    1    3    3    0    0 -0.43460516363E+02 -0.13625522682E+02 -0.11447042192E+02  0.46962816417E+02  0.00000000000E+00 0. -1.
         11    1    5    5    0    0  0.55064433948E+01  0.82202230272E+01  0.53737422927E+02  0.54640677231E+02  0.00000000000E+00 0. -1.
        -12    1    5    5    0    0 -0.77455263417E+02 -0.91054920507E+02  0.83678578579E+03  0.84528147246E+03  0.00000000000E+00 0.  1.
          5    1    4    4  501    0 -0.35761392072E+01  0.63449745745E+02  0.10239957569E+03  0.12058940463E+03  0.41800000000E+01 0.  1.
         -5    1    4    4    0  501  0.10488350473E+03  0.39708895082E+02  0.45704291360E+03  0.47061984997E+03  0.41800000000E+01 0.  1.
</event>
<event>
11    1  0.1003949E-008  0.1268760E+03  0.7561462E-02  0.1123168E+00
         22   -1    0    0    0    0  0.00000000000E+00  0.00000000000E+00  0.10223575333E+04  0.10223575333E+04  0.00000000000E+00 0. -1.
         22   -1    0    0    0    0 -0.00000000000E+00 -0.00000000000E+00 -0.42282285026E+03  0.42282285026E+03  0.00000000000E+00 0. -1.
        -24    2    1    2    0    0  0.18134798500E+01  0.91155209996E+00 -0.38888379385E+03  0.39746626325E+03  0.82126157041E+02 0.  0.
         25    2    1    2    0    0 -0.15100911686E+02  0.15586295761E+02  0.11811445994E+03  0.17340569715E+03  0.12509012754E+03 0.  0.
         24    2    1    2    0    0  0.13287431836E+02 -0.16497847861E+02  0.87030401694E+03  0.87430842314E+03  0.80854202393E+02 0.  0.
        -13    1    5    5    0    0  0.12961300971E+02  0.16824061325E+02  0.66393432333E+02  0.69707476064E+02  0.00000000000E+00 0.  1.
         14    1    5    5    0    0  0.32613086430E+00 -0.33321909186E+02  0.80391058461E+03  0.80460094708E+03  0.00000000000E+00 0. -1.
         11    1    3    3    0    0 -0.69386380581E+01 -0.39302104870E+02 -0.22374151755E+03  0.22727311064E+03  0.00000000000E+00 0. -1.
        -12    1    3    3    0    0  0.87521179081E+01  0.40213656970E+02 -0.16514227629E+03  0.17019315261E+03  0.00000000000E+00 0.  1.
          5    1    4    4  501    0 -0.16279909385E+02 -0.41110626345E+02  0.24048712234E+01  0.44478925950E+02  0.41800000000E+01 0. -1.
         -5    1    4    4    0  501  0.11789976997E+01  0.56696922106E+02  0.11570958871E+03  0.12892677120E+03  0.41800000000E+01 0. -1.
</event>
<event>
11    1  0.1003949E-008  0.1600960E+03  0.7561462E-02  0.1086987E+00
         22   -1    0    0    0    0  0.00000000000E+00  0.00000000000E+00  0.37088244513E+03  0.37088244513E+03  0.00000000000E+00 0. -1.
         22   -1    0    0    0    0 -0.00000000000E+00 -0.00000000000E+00 -0.14624209290E+04  0.14624209290E+04  0.00000000000E+00 0. -1.
        -24    2    1    2    0    0  0.49423891791E+02  0.65864424971E+01 -0.13199870962E+04  0.13234370426E+04  0.81446726086E+02 0.  0.
         25    2    1    2    0    0 -0.10139672607E+03  0.76357597173E+02 -0.65215738257E+02  0.18977060432E+03  0.12509201031E+03 0.  0.
         24    2    1    2    0    0  0.51972834279E+02 -0.82944039670E+02  0.29366435056E+03  0.32009572728E+03  0.81496224544E+02 0.  0.
        -13    1    5    5    0    0 -0.15650964338E+02  0.34113683927E+01  0.22778581880E+02  0.27846973112E+02  0.00000000000E+00 0.  1.
         14    1    5    5    0    0  0.67623798617E+02 -0.86355408063E+02  0.27088576868E+03  0.29224875417E+03  0.00000000000E+00 0. -1.
         13    1    3    3    0    0  0.42320909829E+02  0.98472451510E+01 -0.13101625513E+04  0.13108828852E+04  0.00000000000E+00 0. -1.
        -14    1    3    3    0    0  0.71029819618E+01 -0.32608026539E+01 -0.98245448684E+01  0.12554157422E+02  0.00000000000E+00 0.  1.
          5    1    4    4  501    0 -0.10178389848E+03  0.10320079538E+03 -0.35074451636E+02  0.14919133927E+03  0.41800000000E+01 0.  1.
         -5    1    4    4    0  501  0.38717241280E+00 -0.26843198203E+02 -0.30141286621E+02  0.40579265043E+02  0.41800000000E+01 0.  1.
</event>
<event>
11    1  0.1003949E-008  0.2954666E+03  0.7561462E-02  0.1002128E+00
         22   -1    0    0    0    0  0.00000000000E+00  0.00000000000E+00  0.70513386259E+03  0.70513386259E+03  0.00000000000E+00 0. -1.
         22   -1    0    0    0    0 -0.00000000000E+00 -0.00000000000E+00 -0.12665252087E+04  0.12665252087E+04  0.00000000000E+00 0.  1.
        -24    2    1    2    0    0 -0.39071292779E+02 -0.65150783726E+01 -0.10903837842E+04  0.10940411415E+04  0.80126215120E+02 0.  0.
         25    2    1    2    0    0  0.28311863058E+02  0.27283615641E+03  0.25965422919E+02  0.30259419383E+03  0.12509161889E+03 0.  0.
         24    2    1    2    0    0  0.10759429721E+02 -0.26632107804E+03  0.50302701514E+03  0.57502373596E+03  0.81076735443E+02 0.  0.
        -11    1    5    5    0    0 -0.13731027713E+02 -0.58569906030E+01  0.46654624022E+02  0.48984685399E+02  0.00000000000E+00 0.  1.
         12    1    5    5    0    0  0.24490457434E+02 -0.26046408743E+03  0.45637239112E+03  0.52603905057E+03  0.00000000000E+00 0. -1.
         13    1    3    3    0    0 -0.16747467449E+02  0.22138518433E+02 -0.12815527917E+03  0.13112729404E+03  0.00000000000E+00 0. -1.
        -14    1    3    3    0    0 -0.22323825330E+02 -0.28653596806E+02 -0.96222850503E+03  0.96291384749E+03  0.00000000000E+00 0.  1.
          5    1    4    4  501    0  0.70759755039E+02  0.97337551455E+02  0.22188113310E+01  0.12043229376E+03  0.41800000000E+01 0.  1.
         -5    1    4    4    0  501 -0.42447891980E+02  0.17549860496E+03  0.23746611588E+02  0.18216190007E+03  0.41800000000E+01 0.  1.
</event>
<event>
11    1  0.1003949E-008  0.1403458E+03  0.7561462E-02  0.1107173E+00
         22   -1    0    0    0    0  0.00000000000E+00  0.00000000000E+00  0.15425043935E+03  0.15425043935E+03  0.00000000000E+00 0. -1.
         22   -1    0    0    0    0 -0.00000000000E+00 -0.00000000000E+00 -0.89862824986E+03  0.89862824986E+03  0.00000000000E+00 0.  1.
         24    2    1    2    0    0  0.15666289671E+02 -0.64232911751E+02 -0.79025697342E+03  0.79668706357E+03  0.76373383062E+02 0.  0.
         25    2    1    2    0    0  0.15153517652E+02  0.30097578712E+02 -0.37339330809E+02  0.13482718354E+03  0.12509456605E+03 0.  0.
        -24    2    1    2    0    0 -0.30819807323E+02  0.34135333039E+02  0.83218493721E+02  0.12136444210E+03  0.75424986732E+02 0.  0.
        -11    1    3    3    0    0  0.20005049543E+01 -0.50542387435E+02 -0.75309708475E+03  0.75479384868E+03  0.00000000000E+00 0.  1.
         12    1    3    3    0    0  0.13665784716E+02 -0.13690524316E+02 -0.37159888669E+02  0.41893214890E+02  0.00000000000E+00 0. -1.
         13    1    5    5    0    0 -0.19935917678E+02 -0.14872431910E+02  0.62110674208E+02  0.66905649202E+02  0.00000000000E+00 0. -1.
        -14    1    5    5    0    0 -0.10883889645E+02  0.49007764949E+02  0.21107819514E+02  0.54458792897E+02  0.00000000000E+00 0.  1.
          5    1    4    4  501    0 -0.11859366336E+02  0.29678244895E+02 -0.78815757002E+02  0.85151856948E+02  0.41800000000E+01 0.  1.
         -5    1    4    4    0  501  0.27012883989E+02  0.41933381654E+00  0.41476426193E+02  0.49675326591E+02  0.41800000000E+01 0.  1.
</event>
<event>
11    1  0.1003949E-008  0.1301051E+03  0.7561462E-02  0.1119140E+00
         22   -1    0    0    0    0  0.00000000000E+00  0.00000000000E+00  0.12918293821E+04  0.12918293821E+04  0.00000000000E+00 0. -1.
         22   -1    0    0    0    0 -0.00000000000E+00 -0.00000000000E+00 -0.30163767256E+02  0.30163767256E+02  0.00000000000E+00 0.  1.
        -24    2    1    2    0    0 -0.15852487906E+02  0.25535590139E+01  0.89319202030E+02  0.12186436237E+03  0.81333762534E+02 0.  0.
         25    2    1    2    0    0  0.25278579993E+02 -0.35514389352E+02  0.38458736276E+03  0.40676158047E+03  0.12508902947E+03 0.  0.
         24    2    1    2    0    0 -0.94260920869E+01  0.32960830338E+02  0.78775905008E+03  0.79336720654E+03  0.87703682282E+02 0.  0.
        -13    1    5    5    0    0  0.37123858123E+02  0.44484487978E+01  0.24002008137E+03  0.24291481840E+03  0.00000000000E+00 0.  1.
         14    1    5    5    0    0 -0.46549950210E+02  0.28512381540E+02  0.54773896871E+03  0.55045238814E+03  0.00000000000E+00 0. -1.
         13    1    3    3    0    0 -0.65320280462E+01 -0.39176633298E+02  0.49207364600E+02  0.63236387609E+02  0.00000000000E+00 0. -1.
        -14    1    3    3    0    0 -0.93204598596E+01  0.41730192312E+02  0.40111837430E+02  0.58627974760E+02  0.00000000000E+00 0.  1.
          5    1    4    4  501    0 -0.69999596196E+01  0.37404225194E+02  0.51113746780E+02  0.63860496451E+02  0.41800000000E+01 0.  1.
         -5    1    4    4    0  501  0.32278539612E+02 -0.72918614546E+02  0.33347361598E+03  0.34290108401E+03  0.41800000000E+01 0.  1.
</event>
<event>
11    1  0.1003949E-008  0.1646712E+03  0.7561462E-02  0.1082764E+00
         22   -1    0    0    0    0  0.00000000000E+00  0.00000000000E+00  0.42772213540E+02  0.42772213540E+02  0.00000000000E+00 0.  1.
         22   -1    0    0    0    0 -0.00000000000E+00 -0.00000000000E+00 -0.99539542339E+03  0.99539542339E+03  0.00000000000E+00 0. -1.
         24    2    1    2    0    0  0.37213001068E+02 -0.64096039644E+02 -0.30858318152E+03  0.32652855661E+03  0.76838848396E+02 0.  0.
         25    2    1    2    0    0  0.76341855438E+02  0.69466035528E+01 -0.43744716979E+03  0.46139478783E+03  0.12509512256E+03 0.  0.
        -24    2    1    2    0    0 -0.11355485651E+03  0.57149436091E+02 -0.20659285854E+03  0.25024429248E+03  0.61488480530E+02 0.  0.
        -13    1    3    3    0    0  0.13060840703E+02 -0.34267658251E+02 -0.36461638765E+02  0.51713722195E+02  0.00000000000E+00 0.  1.
         14    1    3    3    0    0  0.24152160365E+02 -0.29828381393E+02 -0.27212154275E+03  0.27481483442E+03  0.00000000000E+00 0. -1.
         13    1    5    5    0    0 -0.11078452082E+03  0.32149223653E+02 -0.15933005155E+03  0.19670497697E+03  0.00000000000E+00 0. -1.
        -14    1    5    5    0    0 -0.27703356878E+01  0.25000212438E+02 -0.47262806988E+02  0.53539315518E+02  0.00000000000E+00 0.  1.
          5    1    4    4  501    0  0.84254601439E+01  0.52103399838E+01  0.62970793159E+01  0.12460402453E+02  0.41800000000E+01 0.  1.
         -5    1    4    4    0  501  0.67916395294E+02  0.17362635690E+01 -0.44374424911E+03  0.44893438538E+03  0.41800000000E+01 0.  1.
</event>
<event>
11    1  0.1003949E-008  0.1365073E+03  0.7561462E-02  0.1111522E+00
         22   -1    0    0    0    0  0.00000000000E+00  0.00000000000E+00  0.25652552977E+02  0.25652552977E+02  0.00000000000E+00 0.  1.
         22   -1    0    0    0    0 -0.00000000000E+00 -0.00000000000E+00 -0.18510751943E+04  0.18510751943E+04  0.00000000000E+00 0.  1.
         24    2    1    2    0    0  0.60347098744E+01  0.47228903502E+02 -0.10195067014E+04  0.10238545001E+04  0.81345780837E+02 0.  0.
         25    2    1    2    0    0 -0.42648312745E+02 -0.76824677972E+02 -0.64826073515E+03  0.66604095898E+03  0.12509064148E+03 0.  0.
        -24    2    1    2    0    0  0.36613602870E+02  0.29595774471E+02 -0.15765520470E+03  0.18683228815E+03  0.88513696931E+02 0.  0.
        -11    1    3    3    0    0  0.15746794422E+02  0.15340707890E+02 -0.88519785995E+03  0.88547080704E+03  0.00000000000E+00 0.  1.
         12    1    3    3    0    0 -0.97120845481E+01  0.31888195612E+02 -0.13430884148E+03  0.13838369307E+03  0.00000000000E+00 0. -1.
         13    1    5    5    0    0  0.61150129809E+01  0.15816702506E+02 -0.15193712063E+03  0.15288050919E+03  0.00000000000E+00 0. -1.
        -14    1    5    5    0    0  0.30498589889E+02  0.13779071964E+02 -0.57180840648E+01  0.33951778964E+02  0.00000000000E+00 0.  1.
          5    1    4    4  501    0  0.19488161392E+02 -0.33117438280E+02 -0.47792324674E+03  0.47948373833E+03  0.41800000000E+01 0.  1.
         -5    1    4    4    0  501 -0.62136474137E+02 -0.43707239692E+02 -0.17033748841E+03  0.18655722065E+03  0.41800000000E+01 0.  1.
</event>
<event>
11    1  0.1003949E-008  0.1354806E+03  0.7561462E-02  0.1112713E+00
         22   -1    0    0    0    0  0.00000000000E+00  0.00000000000E+00  0.18854213283E+04  0.18854213283E+04  0.00000000000E+00 0.  1.
         22   -1    0    0    0    0 -0.00000000000E+00 -0.00000000000E+00 -0.73327623478E+03  0.73327623478E+03  0.00000000000E+00 0. -1.
        -24    2    1    2    0    0 -0.24225305278E+02 -0.29435470824E+01 -0.70870714653E+03  0.71372169969E+03  0.80853665214E+02 0.  0.
         25    2    1    2    0    0 -0.84272663156E+01 -0.38948820191E+02  0.18768322578E+03  0.22903973710E+03  0.12508468539E+03 0.  0.
         24    2    1    2    0    0  0.32652571594E+02  0.41892367273E+02  0.16731690143E+04  0.16759361263E+04  0.80288157681E+02 0.  0.
        -13    1    5    5    0    0  0.70423969197E+01 -0.17697598616E+02  0.85084665891E+03  0.85105983182E+03  0.00000000000E+00 0.  1.
         14    1    5    5    0    0  0.25610174674E+02  0.59589965889E+02  0.82232235534E+03  0.82487629447E+03  0.00000000000E+00 0. -1.
         11    1    3    3    0    0 -0.14849390916E+02 -0.41082896442E+02 -0.30572294877E+03  0.30882815641E+03  0.00000000000E+00 0. -1.
        -12    1    3    3    0    0 -0.93759143625E+01  0.38139349359E+02 -0.40298419776E+03  0.40489354328E+03  0.00000000000E+00 0.  1.
          5    1    4    4  501    0  0.24522840505E+02 -0.45330088772E+02  0.18824095129E+03  0.19521351079E+03  0.41800000000E+01 0.  1.
         -5    1    4    4    0  501 -0.32950106820E+02  0.63812685805E+01 -0.55772551110E+00  0.33826226303E+02  0.41800000000E+01 0.  1.
</event>
<event>
11    1  0.1003949E-008  0.2953764E+03  0.7561462E-02  0.1002167E+00
         22   -1    0    0    0    0  0.00000000000E+00  0.00000000000E+00  0.35368374210E+03  0.35368374210E+03  0.00000000000E+00 0.  1.
         22   -1    0    0    0    0 -0.00000000000E+00 -0.00000000000E+00 -0.12250100305E+04  0.12250100305E+04  0.00000000000E+00 0.  1.
        -24    2    1    2    0    0 -0.24964042256E+03  0.96652526098E+02 -0.85811616720E+03  0.90226626877E+03  0.77839655495E+02 0.  0.
         25    2    1    2    0    0  0.23559760449E+03 -0.12994624225E+03 -0.27302196248E+03  0.40321263170E+03  0.12508867755E+03 0.  0.
         24    2    1    2    0    0  0.14042818069E+02  0.33293716151E+02  0.25981184131E+03  0.27321487210E+03  0.76410085574E+02 0.  0.
        -13    1    5    5    0    0  0.24274493981E+02  0.28256175203E+02  0.25912580386E+03  0.26178969560E+03  0.00000000000E+00 0.  1.
         14    1    5    5    0    0 -0.10231675911E+02  0.50375409487E+01  0.68603745156E+00  0.11425176504E+02  0.00000000000E+00 0. -1.
         13    1    3    3    0    0 -0.18701543227E+02  0.13771259556E+02 -0.17274868103E+03  0.17430290332E+03  0.00000000000E+00 0. -1.
        -14    1    3    3    0    0 -0.23093887934E+03  0.82881266541E+02 -0.68536748617E+03  0.72796336545E+03  0.00000000000E+00 0.  1.
          5    1    4    4  501    0  0.20134322046E+03 -0.85979454141E+02 -0.14258037962E+03  0.26130096826E+03  0.41800000000E+01 0.  1.
         -5    1    4    4    0  501  0.34254384030E+02 -0.43966788108E+02 -0.13044158286E+03  0.14191166345E+03  0.41800000000E+01 0.  1.
</event>
<event>
11    1  0.1003949E-008  0.1707293E+03  0.7561462E-02  0.1077399E+00
         22   -1    0    0    0    0  0.00000000000E+00  0.00000000000E+00  0.17744195690E+03  0.17744195690E+03  0.00000000000E+00 0.  1.
         22   -1    0    0    0    0 -0.00000000000E+00 -0.00000000000E+00 -0.16343398330E+04  0.16343398330E+04  0.00000000000E+00 0. -1.
         24    2    1    2    0    0 -0.19398807473E+02  0.24614924313E+02 -0.99228665647E+03  0.99604861629E+03  0.80609113450E+02 0.  0.
         25    2    1    2    0    0 -0.87337060182E+02 -0.71354621597E+02 -0.60113933988E+03  0.62428856345E+03  0.12509380638E+03 0.  0.
        -24    2    1    2    0    0  0.10673586766E+03  0.46739697284E+02  0.13652812023E+03  0.19144461018E+03  0.66588035018E+02 0.  0.
        -13    1    3    3    0    0  0.15894751473E+02 -0.12596835585E+02 -0.87919886662E+02  0.90228764049E+02  0.00000000000E+00 0.  1.
         14    1    3    3    0    0 -0.35293558946E+02  0.37211759898E+02 -0.90436676981E+03  0.90581985224E+03  0.00000000000E+00 0. -1.
         13    1    5    5    0    0  0.33959312900E+02  0.38274313476E+02  0.22476350413E+02  0.55886888736E+02  0.00000000000E+00 0. -1.
        -14    1    5    5    0    0  0.72776554755E+02  0.84653838089E+01  0.11405176982E+03  0.13555772145E+03  0.00000000000E+00 0.  1.
          5    1    4    4  501    0  0.25991333051E+02 -0.10993341959E+02 -0.43343175917E+02  0.51889365575E+02  0.41800000000E+01 0. -1.
         -5    1    4    4    0  501 -0.11332839323E+03 -0.60361279638E+02 -0.55779616397E+03  0.57239919788E+03  0.41800000000E+01 0. -1.
</event>
<event>
11    1  0.1003949E-008  0.1528342E+03  0.7561462E-02  0.1094017E+00
         22   -1    0    0    0    0  0.00000000000E+00  0.00000000000E+00  0.14543424371E+03  0.14543424371E+03  0.00000000000E+00 0. -1.
         22   -1    0    0    0    0 -0.00000000000E+00 -0.00000000000E+00 -0.29202918872E+03  0.29202918872E+03  0.00000000000E+00 0. -1.
         24    2    1    2    0    0 -0.43449776962E+01 -0.78213961695E+02 -0.12463062881E+03  0.16824180723E+03  0.81462932840E+02 0.  0.
         25    2    1    2    0    0  0.23399549299E+02  0.11935768291E+03 -0.24013526526E+02  0.17612316207E+03  0.12509565694E+03 0.  0.
        -24    2    1    2    0    0 -0.19054571603E+02 -0.41143721219E+02  0.20492103302E+01  0.93098463131E+02  0.81284943744E+02 0.  0.
        -13    1    3    3    0    0  0.68881442220E+01  0.16274737592E+02 -0.23205238255E+02  0.29168419515E+02  0.00000000000E+00 0.  1.
         14    1    3    3    0    0 -0.11233121918E+02 -0.94488699287E+02 -0.10142539056E+03  0.13907338772E+03  0.00000000000E+00 0. -1.
         13    1    5    5    0    0  0.31740393262E+02 -0.10758893846E+02  0.47415399229E+01  0.33848021539E+02  0.00000000000E+00 0. -1.
        -14    1    5    5    0    0 -0.50794964866E+02 -0.30384827373E+02 -0.26923295928E+01  0.59250441592E+02  0.00000000000E+00 0.  1.
          5    1    4    4  501    0 -0.11872544223E+02  0.12859505924E+03  0.50504217643E+01  0.12930825854E+03  0.41800000000E+01 0. -1.
         -5    1    4    4    0  501  0.35272093523E+02 -0.92373763215E+01 -0.29063948290E+02  0.46814903535E+02  0.41800000000E+01 0. -1.
</event>
<event>
11    1  0.1003949E-008  0.1475728E+03  0.7561462E-02  0.1099385E+00
         22   -1    0    0    0    0  0.00000000000E+00  0.00000000000E+00  0.68329422524E+03  0.68329422524E+03  0.00000000000E+00 0.  1.
         22   -1    0    0    0    0 -0.00000000000E+00 -0.00000000000E+00 -0.30056812684E+03  0.30056812684E+03  0.00000000000E+00 0. -1.
         24    2    1    2    0    0  0.45661435227E+02  0.37548742483E+01 -0.23648413510E+03  0.25447684637E+03  0.82064934278E+02 0.  0.
         25    2    1    2    0    0 -0.49856174612E+01 -0.72886154741E+02  0.56544628807E+02  0.15550601195E+03  0.12509027449E+03 0.  0.
        -24    2    1    2    0    0 -0.40675817766E+02  0.69131280493E+02  0.56266560469E+03  0.57387949376E+03  0.79444537635E+02 0.  0.
        -11    1    3    3    0    0  0.60896549970E+02  0.19739467160E+02 -0.12089955285E+03  0.13680182105E+03  0.00000000000E+00 0.  1.
         12    1    3    3    0    0 -0.15235114743E+02 -0.15984592912E+02 -0.11558458225E+03  0.11767502533E+03  0.00000000000E+00 0. -1.
         11    1    5    5    0    0  0.12714274958E+02 -0.10538506528E+02  0.10301847426E+03  0.10433369037E+03  0.00000000000E+00 0. -1.
        -12    1    5    5    0    0 -0.53390092724E+02  0.79669787021E+02  0.45964713043E+03  0.46954580339E+03  0.00000000000E+00 0.  1.
          5    1    4    4  501    0  0.36234292054E+02  0.21079958851E+02  0.14818663110E+02  0.44658188075E+02  0.41800000000E+01 0. -1.
         -5    1    4    4    0  501 -0.41219909516E+02 -0.93966113592E+02  0.41725965698E+02  0.11084782387E+03  0.41800000000E+01 0. -1.
</event>
<event>
11    1  0.1003949E-008  0.1429082E+03  0.7561462E-02  0.1104354E+00
         22   -1    0    0    0    0  0.00000000000E+00  0.00000000000E+00  0.60581260202E+03  0.60581260202E+03  0.00000000000E+00 0. -1.
         22   -1    0    0    0    0 -0.00000000000E+00 -0.00000000000E+00 -0.37025640175E+03  0.37025640175E+03  0.00000000000E+00 0.  1.
        -24    2    1    2    0    0  0.66339193149E+02  0.61780056103E+01 -0.31021713653E+03  0.32622446536E+03  0.75820008620E+02 0.  0.
         25    2    1    2    0    0 -0.11846216522E+03 -0.58097945193E+01  0.11193116148E+03  0.20552689056E+03  0.12508269079E+03 0.  0.
         24    2    1    2    0    0  0.52122972066E+02 -0.36821109099E+00  0.43384217531E+03  0.44431764784E+03  0.80512106597E+02 0.  0.
        -11    1    5    5    0    0  0.82470898589E+01 -0.26598074624E+02  0.51262231535E+02  0.58337710332E+02  0.00000000000E+00 0.  1.
         12    1    5    5    0    0  0.43875882207E+02  0.26229863533E+02  0.38257994378E+03  0.38597993751E+03  0.00000000000E+00 0. -1.
         13    1    3    3    0    0 -0.62163678180E+01  0.11853092993E+02 -0.85025808601E+01  0.15856636580E+02  0.00000000000E+00 0. -1.
        -14    1    3    3    0    0  0.72555560967E+02 -0.56750873823E+01 -0.30171455567E+03  0.31036782879E+03  0.00000000000E+00 0.  1.
          5    1    4    4  501    0  0.71262480782E+00  0.28107980433E+02  0.68496422799E+02  0.74160627926E+02  0.41800000000E+01 0.  1.
         -5    1    4    4    0  501 -0.11917479002E+03 -0.33917774953E+02  0.43434738682E+02  0.13136626264E+03  0.41800000000E+01 0.  1.
</event>
<event>
11    1  0.1003949E-008  0.4856758E+03  0.7561462E-02  0.9426111E-01
         22   -1    0    0    0    0  0.00000000000E+00  0.00000000000E+00  0.20647748100E+04  0.20647748100E+04  0.00000000000E+00 0.  1.
         22   -1    0    0    0    0 -0.00000000000E+00 -0.00000000000E+00 -0.19208206683E+03  0.19208206683E+03  0.00000000000E+00 0.  1.
         24    2    1    2    0    0 -0.81686094369E+02  0.33391164449E+02  0.39197110610E+02  0.12510133022E+03  0.79538301883E+02 0.  0.
         25    2    1    2    0    0  0.35795699625E+03  0.33804794666E+03  0.47924398688E+03  0.69837773406E+03  0.12508810919E+03 0.  0.
        -24    2    1    2    0    0 -0.27627090188E+03 -0.37143911111E+03  0.13542516456E+04  0.14333778125E+04  0.79257865076E+02 0.  0.
        -11    1    3    3    0    0 -0.83407401739E+02 -0.18722284565E+01  0.29471260328E+02  0.88480817636E+02  0.00000000000E+00 0.  1.
         12    1    3    3    0    0  0.17213073699E+01  0.35263392906E+02  0.97258502813E+01  0.36620512585E+02  0.00000000000E+00 0. -1.
         13    1    5    5    0    0 -0.82747284809E+02 -0.12683742902E+03  0.55894776870E+03  0.57910055662E+03  0.00000000000E+00 0. -1.
        -14    1    5    5    0    0 -0.19352361708E+03 -0.24460168209E+03  0.79530387694E+03  0.85427725588E+03  0.00000000000E+00 0.  1.
          5    1    4    4  501    0  0.10391948104E+03  0.11738047640E+03  0.23515924783E+03  0.28265664510E+03  0.41800000000E+01 0. -1.
         -5    1    4    4    0  501  0.25403751522E+03  0.22066747026E+03  0.24408473905E+03  0.41572108896E+03  0.41800000000E+01 0. -1.
</event>
<event>
11    1  0.1003949E-008  0.1768642E+03  0.7561462E-02  0.1072208E+00
         22   -1    0    0    0    0  0.00000000000E+00  0.00000000000E+00  0.21451940507E+03  0.21451940507E+03  0.00000000000E+00 0.  1.
         22   -1    0    0    0    0 -0.00000000000E+00 -0.00000000000E+00 -0.21789757966E+04  0.21789757966E+04  0.00000000000E+00 0. -1.
         24    2    1    2    0    0  0.23442342288E+02 -0.12245909944E+03 -0.17798338895E+04  0.17859806527E+04  0.79827582386E+02 0.  0.
         25    2    1    2    0    0 -0.45414292319E+02  0.12084334511E+03 -0.36601076823E+03  0.40776861341E+03  0.12508312285E+03 0.  0.
        -24    2    1    2    0    0  0.21971950031E+02  0.16157543231E+01  0.18138826620E+03  0.19974593563E+03  0.80692988761E+02 0.  0.
        -13    1    3    3    0    0  0.47629473986E+02 -0.40855475825E+02 -0.71167874865E+03  0.71443990508E+03  0.00000000000E+00 0.  1.
         14    1    3    3    0    0 -0.24187131698E+02 -0.81603623611E+02 -0.10681551409E+04  0.10715407476E+04  0.00000000000E+00 0. -1.
         13    1    5    5    0    0  0.33801958151E+02 -0.20812939483E+02  0.40932167367E+02  0.57019234914E+02  0.00000000000E+00 0. -1.
        -14    1    5    5    0    0 -0.11830008120E+02  0.22428693806E+02  0.14045609883E+03  0.14272670071E+03  0.00000000000E+00 0.  1.
          5    1    4    4  501    0 -0.75804862763E+02  0.38852617405E+02 -0.23684879790E+03  0.25173543367E+03  0.41800000000E+01 0. -1.
         -5    1    4    4    0  501  0.30390570444E+02  0.81990727708E+02 -0.12916197033E+03  0.15603317975E+03  0.41800000000E+01 0. -1.
</event>
<event>
11    1  0.1003949E-008  0.1868578E+03  0.7561462E-02  0.1064227E+00
         22   -1    0    0    0    0  0.00000000000E+00  0.00000000000E+00  0.24338140743E+03  0.24338140743E+03  0.00000000000E+00 0. -1.
         22   -1    0    0    0    0 -0.00000000000E+00 -0.00000000000E+00 -0.38451986452E+04  0.38451986452E+04  0.00000000000E+00 0. -1.
        -24    2    1    2    0    0  0.29766665984E+02  0.94845312593E+01 -0.35798731863E+04  0.35809478058E+04  0.81970405223E+02 0.  0.
         25    2    1    2    0    0 -0.28738611334E+02  0.13042602957E+03 -0.19751341156E+03  0.26925181129E+03  0.12509249845E+03 0.  0.
         24    2    1    2    0    0 -0.10280546503E+01 -0.13991056083E+03  0.17556936011E+03  0.23838043548E+03  0.80153664159E+02 0.  0.
        -13    1    5    5    0    0 -0.20453200238E+01 -0.71186323280E+01  0.65446911587E+02  0.65864683226E+02  0.00000000000E+00 0.  1.
         14    1    5    5    0    0  0.10172653735E+01 -0.13279192851E+03  0.11012244853E+03  0.17251575225E+03  0.00000000000E+00 0. -1.
         11    1    3    3    0    0  0.15877948212E+02  0.35389009718E+02 -0.30590389974E+04  0.30592848967E+04  0.00000000000E+00 0. -1.
        -12    1    3    3    0    0  0.13888717772E+02 -0.25904478459E+02 -0.52083418887E+03  0.52166290915E+03  0.00000000000E+00 0.  1.
          5    1    4    4  501    0  0.22746016787E+02 -0.11002186155E+02 -0.60417016101E+02  0.65621015037E+02  0.41800000000E+01 0.  1.
         -5    1    4    4    0  501 -0.51484628120E+02  0.14142821573E+03 -0.13709639546E+03  0.20363079626E+03  0.41800000000E+01 0.  1.
</event>
<event>
11    1  0.1003949E-008  0.1712841E+03  0.7561462E-02  0.1076920E+00
         22   -1    0    0    0    0  0.00000000000E+00  0.00000000000E+00  0.25942131295E+03  0.25942131295E+03  0.00000000000E+00 0.  1.
         22   -1    0    0    0    0 -0.00000000000E+00 -0.00000000000E+00 -0.13996869005E+04  0.13996869005E+04  0.00000000000E+00 0.  1.
        -24    2    1    2    0    0  0.44781678700E+02 -0.15070721988E+02 -0.99480393222E+03  0.99942549068E+03  0.83569865693E+02 0.  0.
         25    2    1    2    0    0 -0.11987329039E+03 -0.73394184234E+02 -0.35781727573E+03  0.40427660163E+03  0.12510018299E+03 0.  0.
         24    2    1    2    0    0  0.75091611691E+02  0.88464906222E+02  0.21235562042E+03  0.25540612111E+03  0.81685906989E+02 0.  0.
        -11    1    5    5    0    0  0.85044377034E+02  0.42875270918E+02  0.14314537893E+03  0.17193438990E+03  0.00000000000E+00 0.  1.
         12    1    5    5    0    0 -0.99527653429E+01  0.45589635304E+02  0.69210241488E+02  0.83471731214E+02  0.00000000000E+00 0. -1.
         11    1    3    3    0    0 -0.23461228447E+02 -0.11826051685E+02 -0.35943480617E+03  0.36039376330E+03  0.00000000000E+00 0. -1.
        -12    1    3    3    0    0  0.68242907147E+02 -0.32446703031E+01 -0.63536912605E+03  0.63903172738E+03  0.00000000000E+00 0.  1.
          5    1    4    4  501    0 -0.11438214200E+03 -0.88950210889E+02 -0.35905625168E+03  0.38721347948E+03  0.41800000000E+01 0.  1.
         -5    1    4    4    0  501 -0.54911483940E+01  0.15556026656E+02  0.12389759446E+01  0.17063122147E+02  0.41800000000E+01 0.  1.
</event>
<event>
11    1  0.1003949E-008  0.1368924E+03  0.7561462E-02  0.1111079E+00
         22   -1    0    0    0    0  0.00000000000E+00  0.00000000000E+00  0.56732814228E+03  0.56732814228E+03  0.00000000000E+00 0. -1.
         22   -1    0    0    0    0 -0.00000000000E+00 -0.00000000000E+00 -0.28824720237E+03  0.28824720237E+03  0.00000000000E+00 0.  1.
        -24    2    1    2    0    0  0.81602545382E+01  0.36074032812E+02 -0.22358178195E+03  0.23627839980E+03  0.66863617866E+02 0.  0.
         25    2    1    2    0    0 -0.44928021398E+02  0.83874052926E+01  0.31287745447E+02  0.13680216674E+03  0.12508810549E+03 0.  0.
         24    2    1    2    0    0  0.36767766860E+02 -0.44461438105E+02  0.47137497641E+03  0.48249477811E+03  0.85312099712E+02 0.  0.
        -11    1    5    5    0    0  0.44576042769E+02  0.11799554408E+02  0.22057935795E+03  0.22534752323E+03  0.00000000000E+00 0.  1.
         12    1    5    5    0    0 -0.78082759089E+01 -0.56260992513E+02  0.25079561846E+03  0.25714725487E+03  0.00000000000E+00 0. -1.
         13    1    3    3    0    0 -0.10732948934E+02  0.20420363943E+02 -0.18060986794E+02  0.29298237155E+02  0.00000000000E+00 0. -1.
        -14    1    3    3    0    0  0.18893203473E+02  0.15653668869E+02 -0.20552079516E+03  0.20698016265E+03  0.00000000000E+00 0.  1.
          5    1    4    4  501    0 -0.23195882570E+02  0.55738160446E+02 -0.19840641641E+02  0.63686065657E+02  0.41800000000E+01 0. -1.
         -5    1    4    4    0  501 -0.21732138828E+02 -0.47350755153E+02  0.51128387088E+02  0.73116101085E+02  0.41800000000E+01 0. -1.
</event>
<event>
11    1  0.1003949E-008  0.1424279E+03  0.7561462E-02  0.1104877E+00
         22   -1    0    0    0    0  0.00000000000E+00  0.00000000000E+00  0.20513296005E+03  0.20513296005E+03  0.00000000000E+00 0.  1.
         22   -1    0    0    0    0 -0.00000000000E+00 -0.00000000000E+00 -0.51946108393E+03  0.51946108393E+03  0.00000000000E+00 0. -1.
         24    2    1    2    0    0 -0.63604570511E+02 -0.11378591199E+02 -0.27172603386E+03  0.29083373546E+03  0.81081505164E+02 0.  0.
         25    2    1    2    0    0  0.79594687161E+02 -0.20981656322E+02 -0.20250714309E+03  0.25185645100E+03  0.12508790821E+03 0.  0.
        -24    2    1    2    0    0 -0.15990116651E+02  0.32360247520E+02  0.15990505306E+03  0.18190385752E+03  0.78844897972E+02 0.  0.
        -13    1    3    3    0    0 -0.16607280681E+02  0.25385165101E+02 -0.33259876048E+02  0.45015860911E+02  0.00000000000E+00 0.  1.
         14    1    3    3    0    0 -0.46997289830E+02 -0.36763756300E+02 -0.23846615781E+03  0.24581787455E+03  0.00000000000E+00 0. -1.
         11    1    5    5    0    0  0.22628631572E+02  0.11022717413E+02  0.11935054825E+03  0.12197585267E+03  0.00000000000E+00 0. -1.
        -12    1    5    5    0    0 -0.38618748223E+02  0.21337530107E+02  0.40554504811E+02  0.59928004854E+02  0.00000000000E+00 0.  1.
          5    1    4    4  501    0  0.98533305388E+01 -0.64776626666E+02 -0.10841991990E+03  0.12674955983E+03  0.41800000000E+01 0. -1.
         -5    1    4    4    0  501  0.69741356623E+02  0.43794970344E+02 -0.94087223189E+02  0.12510689117E+03  0.41800000000E+01 0. -1.
</event>
<event>
11    1  0.1003949E-008  0.1974399E+03  0.7561462E-02  0.1056349E+00
         22   -1    0    0    0    0  0.00000000000E+00  0.00000000000E+00  0.31675825762E+04  0.31675825762E+04  0.00000000000E+00 0.  1.
         22   -1    0    0    0    0 -0.00000000000E+00 -0.00000000000E+00 -0.66329278754E+03  0.66329278754E+03  0.00000000000E+00 0.  1.
         24    2    1    2    0    0 -0.44753538512E+02  0.36551794887E+02 -0.60347427140E+03  0.61155293677E+03  0.80479098609E+02 0.  0.
         25    2    1    2    0    0 -0.73769021482E+02  0.63932105739E+02  0.64973807917E+02  0.17145910691E+03  0.12508975559E+03 0.  0.
        -24    2    1    2    0    0  0.11852255999E+03 -0.10048390063E+03  0.30427902521E+04  0.30478633200E+04  0.82180822804E+02 0.  0.
        -13    1    3    3    0    0  0.21923460532E+02  0.13605199329E+02 -0.10541981401E+03  0.10853145515E+03  0.00000000000E+00 0.  1.
         14    1    3    3    0    0 -0.66676999043E+02  0.22946595558E+02 -0.49805445739E+03  0.50302148163E+03  0.00000000000E+00 0. -1.
         13    1    5    5    0    0  0.43219005311E+02 -0.76487738516E+02  0.20717957179E+04  0.20736575786E+04  0.00000000000E+00 0. -1.
        -14    1    5    5    0    0  0.75303554682E+02 -0.23996162109E+02  0.97099453420E+03  0.97420574140E+03  0.00000000000E+00 0.  1.
          5    1    4    4  501    0 -0.91509018539E+02  0.55834071230E+00  0.47750868151E+02  0.10330454989E+03  0.41800000000E+01 0. -1.
         -5    1    4    4    0  501  0.17739997057E+02  0.63373765026E+02  0.17222939766E+02  0.68154557026E+02  0.41800000000E+01 0. -1.
</event>
<event>
11    1  0.1003949E-008  0.1360851E+03  0.7561462E-02  0.1112010E+00
         22   -1    0    0    0    0  0.00000000000E+00  0.00000000000E+00  0.13799063519E+04  0.13799063519E+04  0.00000000000E+00 0. -1.
         22   -1    0    0    0    0 -0.00000000000E+00 -0.00000000000E+00 -0.51181814584E+03  0.51181814584E+03  0.00000000000E+00 0. -1.
         24    2    1    2    0    0 -0.54122600396E+02  0.11626684323E+02 -0.46265358740E+03  0.47234992357E+03  0.77470463354E+02 0.  0.
         25    2    1    2    0    0  0.91312571357E+01 -0.35859573547E+02  0.57233873316E+02  0.14245548077E+03  0.12509420000E+03 0.  0.
        -24    2    1    2    0    0  0.44991343261E+02  0.24232889223E+02  0.12735079201E+04  0.12769190934E+04  0.78028805658E+02 0.  0.
        -11    1    3    3    0    0 -0.69508683212E+02 -0.17227955591E+01 -0.27745481169E+03  0.28603425948E+03  0.00000000000E+00 0.  1.
         12    1    3    3    0    0  0.15386082815E+02  0.13349479882E+02 -0.18519877572E+03  0.18631566409E+03  0.00000000000E+00 0. -1.
         13    1    5    5    0    0  0.39215175493E+02 -0.20925314485E+02  0.79793817673E+03  0.79917522025E+03  0.00000000000E+00 0. -1.
        -14    1    5    5    0    0  0.57761677682E+01  0.45158203709E+02  0.47556974340E+03  0.47774387314E+03  0.00000000000E+00 0.  1.
          5    1    4    4  501    0 -0.74198070518E+01  0.40403055882E+02 -0.62610928166E+01  0.41762832094E+02  0.41800000000E+01 0. -1.
         -5    1    4    4    0  501  0.16551064187E+02 -0.76262629429E+02  0.63494966133E+02  0.10069264868E+03  0.41800000000E+01 0. -1.
</event>
<event>
11    1  0.1003949E-008  0.1320742E+03  0.7561462E-02  0.1116746E+00
         22   -1    0    0    0    0  0.00000000000E+00  0.00000000000E+00  0.35146329317E+03  0.35146329317E+03  0.00000000000E+00 0.  1.
         22   -1    0    0    0    0 -0.00000000000E+00 -0.00000000000E+00 -0.32156978931E+03  0.32156978931E+03  0.00000000000E+00 0.  1.
        -24    2    1    2    0    0 -0.22317209139E+02  0.36087711892E+02 -0.24740979009E+03  0.26365475884E+03  0.80634030374E+02 0.  0.
         25    2    1    2    0    0  0.28109113473E+02 -0.31814472239E+02  0.12273399558E+02  0.13266735378E+03  0.12509079709E+03 0.  0.
         24    2    1    2    0    0 -0.57919043338E+01 -0.42732396529E+01  0.26502989440E+03  0.27671096986E+03  0.79223160638E+02 0.  0.
        -13    1    5    5    0    0  0.29831740220E+02 -0.10081614031E+02  0.19885353148E+03  0.20133131562E+03  0.00000000000E+00 0.  1.
         14    1    5    5    0    0 -0.35623644553E+02  0.58083743776E+01  0.66176362915E+02  0.75379654236E+02  0.00000000000E+00 0. -1.
         11    1    3    3    0    0  0.17044211154E+02  0.39822364035E+01 -0.85983636226E+01  0.19501158878E+02  0.00000000000E+00 0. -1.
        -12    1    3    3    0    0 -0.39361420292E+02  0.32105475489E+02 -0.23881142647E+03  0.24415359996E+03  0.00000000000E+00 0.  1.
          5    1    4    4  501    0 -0.45799280696E+02  0.99404554936E+01  0.62278141296E+01  0.47462035739E+02  0.41800000000E+01 0. -1.
         -5    1    4    4    0  501  0.73908394168E+02 -0.41754927733E+02  0.60455854281E+01  0.85205318036E+02  0.41800000000E+01 0. -1.
</event>
<event>
11    1  0.1003949E-008  0.1416199E+03  0.7561462E-02  0.1105763E+00
         22   -1    0    0    0    0  0.00000000000E+00  0.00000000000E+00  0.41621579679E+03  0.41621579679E+03  0.00000000000E+00 0.  1.
         22   -1    0    0    0    0 -0.00000000000E+00 -0.00000000000E+00 -0.19908149110E+03  0.19908149110E+03  0.00000000000E+00 0.  1.
         24    2    1    2    0    0 -0.60198535473E+02  0.56596686389E+02 -0.98704491877E+02  0.15142439641E+03  0.79747868493E+02 0.  0.
         25    2    1    2    0    0  0.24200808719E+02 -0.15879346840E+02 -0.55413792300E+01  0.12851170300E+03  0.12508684233E+03 0.  0.
        -24    2    1    2    0    0  0.35997726755E+02 -0.40717339549E+02  0.32138017680E+03  0.33536118848E+03  0.78918759677E+02 0.  0.
        -11    1    3    3    0    0 -0.43128687604E+02  0.22573605725E+02 -0.10219804364E+03  0.11319934405E+03  0.00000000000E+00 0.  1.
         12    1    3    3    0    0 -0.17069847869E+02  0.34023080663E+02  0.34935517636E+01  0.38225052361E+02  0.00000000000E+00 0. -1.
         13    1    5    5    0    0  0.15323950968E+02  0.39934075902E+01  0.72923749371E+01  0.17434147805E+02  0.00000000000E+00 0. -1.
        -14    1    5    5    0    0  0.20673775787E+02 -0.44710747139E+02  0.31408780186E+03  0.31792704068E+03  0.00000000000E+00 0.  1.
          5    1    4    4  501    0  0.53768698552E+02  0.10674038934E+02  0.39951840110E+02  0.67960503083E+02  0.41800000000E+01 0. -1.
         -5    1    4    4    0  501 -0.29567889833E+02 -0.26553385774E+02 -0.45493219340E+02  0.60551199915E+02  0.41800000000E+01 0. -1.
</event>
<event>
11    1  0.1003949E-008  0.1638525E+03  0.7561462E-02  0.1083509E+00
         22   -1    0    0    0    0  0.00000000000E+00  0.00000000000E+00  0.57953724446E+03  0.57953724446E+03  0.00000000000E+00 0.  1.
         22   -1    0    0    0    0 -0.00000000000E+00 -0.00000000000E+00 -0.46460883638E+03  0.46460883638E+03  0.00000000000E+00 0.  1.
        -24    2    1    2    0    0 -0.68442950408E+02 -0.39534238366E+02 -0.40314017057E+03  0.41897930221E+03  0.82305923775E+02 0.  0.
         25    2    1    2    0    0  0.21315982156E+02  0.13196302831E+03  0.15404623432E+03  0.23926245638E+03  0.12509064229E+03 0.  0.
         24    2    1    2    0    0  0.47126968251E+02 -0.92428789947E+02  0.36402234432E+03  0.38590432225E+03  0.75138847599E+02 0.  0.
        -13    1    5    5    0    0  0.64786122735E+02 -0.88481372040E+02  0.30191443751E+03  0.32121413803E+03  0.00000000000E+00 0.  1.
         14    1    5    5    0    0 -0.17659154483E+02 -0.39474179069E+01  0.62107906816E+02  0.64690184218E+02  0.00000000000E+00 0. -1.
         11    1    3    3    0    0 -0.28450147515E+02 -0.23791051652E+01 -0.28348948269E+02  0.40233492304E+02  0.00000000000E+00 0. -1.
        -12    1    3    3    0    0 -0.39992802892E+02 -0.37155133201E+02 -0.37479122230E+03  0.37874580990E+03  0.00000000000E+00 0.  1.
          5    1    4    4  501    0  0.84691697711E+01 -0.11360582804E+02 -0.12335470559E+02  0.19246451937E+02  0.41800000000E+01 0. -1.
         -5    1    4    4    0  501  0.12846812385E+02  0.14332361112E+03  0.16638170488E+03  0.22001600444E+03  0.41800000000E+01 0. -1.
</event>
<event>
11    1  0.1003949E-008  0.2092414E+03  0.7561462E-02  0.1048174E+00
         22   -1    0    0    0    0  0.00000000000E+00  0.00000000000E+00  0.14242039446E+03  0.14242039446E+03  0.00000000000E+00 0.  1.
         22   -1    0    0    0    0 -0.00000000000E+00 -0.00000000000E+00 -0.96028305868E+03  0.96028305868E+03  0.00000000000E+00 0.  1.
        -24    2    1    2    0    0  0.64073228360E+02  0.14608645587E+03 -0.60710675850E+03  0.63497830704E+03  0.95771619079E+02 0.  0.
         25    2    1    2    0    0 -0.13211575618E+03 -0.15183322265E+03 -0.26199036403E+03  0.35326260990E+03  0.12509044800E+03 0.  0.
         24    2    1    2    0    0  0.68042527815E+02  0.57467667747E+01  0.51234458305E+02  0.11446253620E+03  0.76248879049E+02 0.  0.
        -11    1    5    5    0    0  0.56842495714E+02  0.35846801155E+02  0.47139005976E+02  0.82086225132E+02  0.00000000000E+00 0.  1.
         12    1    5    5    0    0  0.11200032101E+02 -0.30100034380E+02  0.40954523289E+01  0.32376311070E+02  0.00000000000E+00 0. -1.
         11    1    3    3    0    0 -0.84378563220E+01 -0.75804618243E+01 -0.14032655325E+02  0.18043731218E+02  0.00000000000E+00 0. -1.
        -12    1    3    3    0    0  0.72511084682E+02  0.15366691770E+03 -0.59307410317E+03  0.61693457583E+03  0.00000000000E+00 0.  1.
          5    1    4    4  501    0  0.11474413668E+02 -0.48319756246E+02 -0.10663906263E+03  0.11771076030E+03  0.41800000000E+01 0.  1.
         -5    1    4    4    0  501 -0.14359016984E+03 -0.10351346640E+03 -0.15535130140E+03  0.23555184960E+03  0.41800000000E+01 0.  1.
</event>
<event>
11    1  0.1003949E-008  0.1270161E+03  0.7561462E-02  0.1122991E+00
         22   -1    0    0    0    0  0.00000000000E+00  0.00000000000E+00  0.45554040753E+03  0.45554040753E+03  0.00000000000E+00 0.  1.
         22   -1    0    0    0    0 -0.00000000000E+00 -0.00000000000E+00 -0.22964362860E+03  0.22964362860E+03  0.00000000000E+00 0. -1.
        -24    2    1    2    0    0  0.11413745602E+02 -0.17295775859E+02 -0.18168460794E+03  0.20049065208E+03  0.82205762305E+02 0.  0.
         25    2    1    2    0    0 -0.17326270872E+02  0.35701890128E+02  0.91505724731E+02  0.15998839625E+03  0.12509262431E+03 0.  0.
         24    2    1    2    0    0  0.59125252694E+01 -0.18406114269E+02  0.31607566214E+03  0.32470498780E+03  0.71803634342E+02 0.  0.
        -11    1    5    5    0    0 -0.11132340225E+02 -0.40703233114E+02  0.23859386180E+03  0.24229674590E+03  0.00000000000E+00 0.  1.
         12    1    5    5    0    0  0.17044865494E+02  0.22297118845E+02  0.77481800342E+02  0.82408241898E+02  0.00000000000E+00 0. -1.
         13    1    3    3    0    0 -0.50173473401E+01 -0.42782378601E+02 -0.15226468419E+03  0.15824044914E+03  0.00000000000E+00 0. -1.
        -14    1    3    3    0    0  0.16431092942E+02  0.25486602742E+02 -0.29419923756E+02  0.42250202939E+02  0.00000000000E+00 0.  1.
          5    1    4    4  501    0 -0.31296291267E+02 -0.36622429236E+02  0.87856060759E+01  0.49145899568E+02  0.41800000000E+01 0. -1.
         -5    1    4    4    0  501  0.13970020395E+02  0.72324319364E+02  0.82720118655E+02  0.11084249669E+03  0.41800000000E+01 0. -1.
</event>
<event>
11    1  0.1691318E-008  0.1830102E+03  0.7561462E-02  0.1067234E+00
         22   -1    0    0    0    0  0.00000000000E+00  0.00000000000E+00  0.69923829931E+03  0.69923829931E+03  0.00000000000E+00 0. -1.
         22   -1    0    0    0    0 -0.00000000000E+00 -0.00000000000E+00 -0.88406357142E+03  0.88406357142E+03  0.00000000000E+00 0.  1.
        -24    2    1    2    0    0  0.99967813777E+01 -0.17331476325E+02 -0.63647126999E+03  0.64196940744E+03  0.81416993648E+02 0.  0.
         25    2    1    2    0    0 -0.90936546013E+02 -0.89312108711E+02 -0.20163825313E+03  0.26935381918E+03  0.12508951442E+03 0.  0.
         24    2    1    2    0    0  0.80939764636E+02  0.10664358504E+03  0.65328425102E+03  0.67197864411E+03  0.82770077796E+02 0.  0.
        -11    1    5    5    0    0  0.48583156182E+02  0.41206519248E+02  0.14364112034E+03  0.15713392933E+03  0.00000000000E+00 0.  1.
         12    1    5    5    0    0  0.32356608454E+02  0.65437065788E+02  0.50964313068E+03  0.51484471478E+03  0.00000000000E+00 0. -1.
         11    1    3    3    0    0  0.23205102953E+02  0.13759827005E+01 -0.50971877133E+02  0.56022338311E+02  0.00000000000E+00 0. -1.
        -12    1    3    3    0    0 -0.13208321576E+02 -0.18707459026E+02 -0.58549939286E+03  0.58594706913E+03  0.00000000000E+00 0.  1.
          5    1    4    4  501    0 -0.23270806041E+02  0.98987700088E+01 -0.12324251348E+03  0.12587972668E+03  0.41800000000E+01 0.  1.
         -5    1    4    4    0  501 -0.67665739972E+02 -0.99210878720E+02 -0.78395739654E+02  0.14347409250E+03  0.41800000000E+01 0.  1.
</event>
<event>
11    1  0.1003949E-008  0.1596721E+03  0.7561462E-02  0.1087386E+00
         22   -1    0    0    0    0  0.00000000000E+00  0.00000000000E+00  0.30831441804E+03  0.30831441804E+03  0.00000000000E+00 0. -1.
         22   -1    0    0    0    0 -0.00000000000E+00 -0.00000000000E+00 -0.10906087587E+04  0.10906087587E+04  0.00000000000E+00 0. -1.
         24    2    1    2    0    0  0.12030613614E+01 -0.76598827080E+02 -0.10052958635E+04  0.10114438729E+04  0.80809079402E+02 0.  0.
         25    2    1    2    0    0  0.59879742066E+02  0.13144762929E+03  0.10360492586E+03  0.21737178471E+03  0.12510974930E+03 0.  0.
        -24    2    1    2    0    0 -0.61082803427E+02 -0.54848802206E+02  0.11939659694E+03  0.17010751911E+03  0.89115210384E+02 0.  0.
        -11    1    3    3    0    0  0.33633017179E+02 -0.20658205815E+02 -0.57078813424E+03  0.57215123482E+03  0.00000000000E+00 0.  1.
         12    1    3    3    0    0 -0.32429955818E+02 -0.55940621265E+02 -0.43450772922E+03  0.43929263810E+03  0.00000000000E+00 0. -1.
         11    1    5    5    0    0  0.12229052456E+02 -0.30028387569E+02  0.72976610918E+02  0.79855115836E+02  0.00000000000E+00 0. -1.
        -12    1    5    5    0    0 -0.73311855884E+02 -0.24820414637E+02  0.46419986017E+02  0.90252403279E+02  0.00000000000E+00 0.  1.
          5    1    4    4  501    0 -0.33377730687E+02  0.33802603995E+02  0.57342659185E+02  0.74581109572E+02  0.41800000000E+01 0. -1.
         -5    1    4    4    0  501  0.93257472753E+02  0.97645025292E+02  0.46262266677E+02  0.14279067514E+03  0.41800000000E+01 0. -1.
</event>
<event>
11    1  0.1003949E-008  0.1802200E+03  0.7561462E-02  0.1069465E+00
         22   -1    0    0    0    0  0.00000000000E+00  0.00000000000E+00  0.14609145409E+04  0.14609145409E+04  0.00000000000E+00 0.  1.
         22   -1    0    0    0    0 -0.00000000000E+00 -0.00000000000E+00 -0.25221553405E+03  0.25221553405E+03  0.00000000000E+00 0.  1.
         24    2    1    2    0    0 -0.73307674179E+02  0.10910664144E+03 -0.19784030363E+03  0.25009933081E+03  0.78298245400E+02 0.  0.
         25    2    1    2    0    0  0.18868609653E+02 -0.11982845169E+03  0.26369012714E+03  0.31605979627E+03  0.12508568823E+03 0.  0.
        -24    2    1    2    0    0  0.54439064526E+02  0.10721810249E+02  0.11428491833E+04  0.11469709478E+04  0.79746664008E+02 0.  0.
        -11    1    3    3    0    0 -0.23498243297E+02  0.49977167706E+02 -0.14836774211E+03  0.15831257571E+03  0.00000000000E+00 0.  1.
         12    1    3    3    0    0 -0.49809430882E+02  0.59129473731E+02 -0.49472561525E+02  0.91786755103E+02  0.00000000000E+00 0. -1.
         13    1    5    5    0    0  0.70030502231E+01 -0.31838514169E+02  0.31943170909E+03  0.32109087572E+03  0.00000000000E+00 0. -1.
        -14    1    5    5    0    0  0.47436014303E+02  0.42560324418E+02  0.82341747422E+03  0.82588007211E+03  0.00000000000E+00 0.  1.
          5    1    4    4  501    0 -0.17039342524E+02 -0.61702776176E+02  0.26875539347E+02  0.69550979839E+02  0.41800000000E+01 0.  1.
         -5    1    4    4    0  501  0.35907952177E+02 -0.58125675511E+02  0.23681458780E+03  0.24650881643E+03  0.41800000000E+01 0.  1.
</event>
<event>
11    1  0.1003949E-008  0.1276239E+03  0.7561462E-02  0.1122223E+00
         22   -1    0    0    0    0  0.00000000000E+00  0.00000000000E+00  0.96952986291E+02  0.96952986291E+02  0.00000000000E+00 0.  1.
         22   -1    0    0    0    0 -0.00000000000E+00 -0.00000000000E+00 -0.14878930376E+04  0.14878930376E+04  0.00000000000E+00 0.  1.
         24    2    1    2    0    0  0.77360191380E+01 -0.68403009879E+01 -0.12138823465E+04  0.12163788697E+04  0.77204713498E+02 0.  0.
         25    2    1    2    0    0  0.16749886747E+02  0.14708528972E+02 -0.23440029999E+03  0.26662372015E+03  0.12509119866E+03 0.  0.
        -24    2    1    2    0    0 -0.24485905885E+02 -0.78682279840E+01  0.57342595249E+02  0.10184343397E+03  0.80140147334E+02 0.  0.
        -11    1    3    3    0    0 -0.78702405557E+01 -0.37919168881E+02 -0.43500077890E+03  0.43672128606E+03  0.00000000000E+00 0.  1.
         12    1    3    3    0    0  0.15606259694E+02  0.31078867893E+02 -0.77888156763E+03  0.77965758367E+03  0.00000000000E+00 0. -1.
         11    1    5    5    0    0 -0.30451094895E+02 -0.37674469176E+02  0.17016214567E+02  0.51343805529E+02  0.00000000000E+00 0. -1.
        -12    1    5    5    0    0  0.59651890103E+01  0.29806241192E+02  0.40326380683E+02  0.50499628443E+02  0.00000000000E+00 0.  1.
          5    1    4    4  501    0 -0.16338350394E+02  0.64099603218E+02 -0.10517665974E+03  0.12431935884E+03  0.41800000000E+01 0.  1.
         -5    1    4    4    0  501  0.33088237141E+02 -0.49391074246E+02 -0.12922364024E+03  0.14230436132E+03  0.41800000000E+01 0.  1.
</event>
<event>
11    1  0.1003949E-008  0.1291474E+03  0.7561462E-02  0.1120321E+00
         22   -1    0    0    0    0  0.00000000000E+00  0.00000000000E+00  0.17794982037E+03  0.17794982037E+03  0.00000000000E+00 0.  1.
         22   -1    0    0    0    0 -0.00000000000E+00 -0.00000000000E+00 -0.36095723971E+03  0.36095723971E+03  0.00000000000E+00 0. -1.
         24    2    1    2    0    0  0.28621947693E+02 -0.31881740245E+02 -0.25516769633E+03  0.27081277566E+03  0.79958395178E+02 0.  0.
         25    2    1    2    0    0 -0.68483020446E+01 -0.33628651969E+01 -0.24760819229E+02  0.12774312644E+03  0.12508796936E+03 0.  0.
        -24    2    1    2    0    0 -0.21773645648E+02  0.35244605442E+02  0.96921096223E+02  0.14035115798E+03  0.92674024387E+02 0.  0.
        -11    1    3    3    0    0  0.38533672533E+02  0.74879412719E+01 -0.61680519392E+02  0.73112240123E+02  0.00000000000E+00 0.  1.
         12    1    3    3    0    0 -0.99117248400E+01 -0.39369681517E+02 -0.19348717694E+03  0.19770053554E+03  0.00000000000E+00 0. -1.
         11    1    5    5    0    0 -0.28669987171E+02  0.18349975446E+02 -0.70743425281E+01  0.34766882021E+02  0.00000000000E+00 0. -1.
        -12    1    5    5    0    0  0.68963415228E+01  0.16894629995E+02  0.10399543875E+03  0.10558427596E+03  0.00000000000E+00 0.  1.
          5    1    4    4  501    0  0.19192312775E+01 -0.63808071612E+02 -0.15516693744E+02  0.65828516892E+02  0.41800000000E+01 0. -1.
         -5    1    4    4    0  501 -0.87675333220E+01  0.60445206415E+02 -0.92441254848E+01  0.61914609545E+02  0.41800000000E+01 0. -1.
</event>
<event>
11    1  0.1003949E-008  0.1380404E+03  0.7561462E-02  0.1109767E+00
         22   -1    0    0    0    0  0.00000000000E+00  0.00000000000E+00  0.15192605973E+04  0.15192605973E+04  0.00000000000E+00 0.  1.
         22   -1    0    0    0    0 -0.00000000000E+00 -0.00000000000E+00 -0.59168683254E+03  0.59168683254E+03  0.00000000000E+00 0. -1.
        -24    2    1    2    0    0 -0.53655659568E+02 -0.21201651108E+02 -0.54553241569E+03  0.55443020028E+03  0.80366601267E+02 0.  0.
         25    2    1    2    0    0  0.85980252404E+02  0.11239374214E+01  0.10281046908E+03  0.18333115804E+03  0.12508578624E+03 0.  0.
         24    2    1    2    0    0 -0.32324592836E+02  0.20077713687E+02  0.13702957114E+04  0.13731860715E+04  0.80508735615E+02 0.  0.
        -11    1    5    5    0    0 -0.36937506085E+02  0.19141453601E+02  0.13665166327E+04  0.13671497657E+04  0.00000000000E+00 0.  1.
         12    1    5    5    0    0  0.46129132491E+01  0.93626008563E+00  0.37790787079E+01  0.60363057802E+01  0.00000000000E+00 0. -1.
         13    1    3    3    0    0  0.62859872261E+01  0.21760335780E+02 -0.18885548799E+03  0.19020888831E+03  0.00000000000E+00 0. -1.
        -14    1    3    3    0    0 -0.59941646794E+02 -0.42961986889E+02 -0.35667692770E+03  0.36422131197E+03  0.00000000000E+00 0.  1.
          5    1    4    4  501    0  0.94450571802E+02  0.30797386722E+02  0.29555936797E+02  0.10373242185E+03  0.41800000000E+01 0.  1.
         -5    1    4    4    0  501 -0.84703193979E+01 -0.29673449301E+02  0.73254532283E+02  0.79598736197E+02  0.41800000000E+01 0.  1.
</event>
<event>
11    1  0.1003949E-008  0.1446955E+03  0.7561462E-02  0.1102426E+00
         22   -1    0    0    0    0  0.00000000000E+00  0.00000000000E+00  0.73680581693E+02  0.73680581693E+02  0.00000000000E+00 0. -1.
         22   -1    0    0    0    0 -0.00000000000E+00 -0.00000000000E+00 -0.11860123474E+04  0.11860123474E+04  0.00000000000E+00 0. -1.
        -24    2    1    2    0    0  0.43236787890E+02  0.49827124868E+02 -0.82518216086E+03  0.83161052044E+03  0.79361810166E+02 0.  0.
         25    2    1    2    0    0 -0.79255925811E+02 -0.10501286653E+03 -0.26769265260E+03  0.32344429803E+03  0.12509058222E+03 0.  0.
         24    2    1    2    0    0  0.36019137921E+02  0.55185741662E+02 -0.19456952233E+02  0.10463811060E+03  0.78915884466E+02 0.  0.
        -11    1    5    5    0    0  0.49189235254E+02  0.54598364564E+02 -0.37332205756E+02  0.82427276217E+02  0.00000000000E+00 0.  1.
         12    1    5    5    0    0 -0.13170097333E+02  0.58737709767E+00  0.17875253523E+02  0.22210834386E+02  0.00000000000E+00 0. -1.
         11    1    3    3    0    0  0.46427152722E+02  0.87777779460E+01 -0.64744249070E+03  0.64916431561E+03  0.00000000000E+00 0. -1.
        -12    1    3    3    0    0 -0.31903648320E+01  0.41049346922E+02 -0.17773967016E+03  0.18244620483E+03  0.00000000000E+00 0.  1.
          5    1    4    4  501    0 -0.35985333078E+01 -0.27727022927E+02  0.61995530094E+01  0.28942081817E+02  0.41800000000E+01 0.  1.
         -5    1    4    4    0  501 -0.75657392503E+02 -0.77285843603E+02 -0.27389220561E+03  0.29450221621E+03  0.41800000000E+01 0.  1.
</event>
<event>
11    1  0.1003949E-008  0.1823970E+03  0.7561462E-02  0.1067720E+00
         22   -1    0    0    0    0  0.00000000000E+00  0.00000000000E+00  0.19032225512E+03  0.19032225512E+03  0.00000000000E+00 0. -1.
         22   -1    0    0    0    0 -0.00000000000E+00 -0.00000000000E+00 -0.91479811891E+03  0.91479811891E+03  0.00000000000E+00 0.  1.
        -24    2    1    2    0    0 -0.56040700998E+02 -0.78537936464E+01 -0.57723485585E+03  0.58576123049E+03  0.81938379877E+02 0.  0.
         25    2    1    2    0    0  0.15377032801E+03  0.89126828655E+02 -0.25470284496E+03  0.33484049272E+03  0.12512278359E+03 0.  0.
         24    2    1    2    0    0 -0.97729627010E+02 -0.81273035009E+02  0.10746183701E+03  0.18451865082E+03  0.79641069008E+02 0.  0.
        -11    1    5    5    0    0 -0.53960429830E+02 -0.22262408842E+02  0.52048409611E+01  0.58604037440E+02  0.00000000000E+00 0.  1.
         12    1    5    5    0    0 -0.43769197180E+02 -0.59010626167E+02  0.10225699605E+03  0.12591461338E+03  0.00000000000E+00 0. -1.
         13    1    3    3    0    0  0.98421608823E+01  0.13749150613E+02 -0.32536459012E+02  0.36667812021E+02  0.00000000000E+00 0. -1.
        -14    1    3    3    0    0 -0.65882861880E+02 -0.21602944259E+02 -0.54469839684E+03  0.54909341847E+03  0.00000000000E+00 0.  1.
          5    1    4    4  501    0  0.10465938292E+03 -0.10309070405E+02 -0.14103873383E+03  0.17598085182E+03  0.41800000000E+01 0. -1.
         -5    1    4    4    0  501  0.49110945083E+02  0.99435899060E+02 -0.11366411112E+03  0.15885964090E+03  0.41800000000E+01 0. -1.
</event>
<event>
11    1  0.1003949E-008  0.7991093E+03  0.7561462E-02  0.8897780E-01
         22   -1    0    0    0    0  0.00000000000E+00  0.00000000000E+00  0.10513331290E+04  0.10513331290E+04  0.00000000000E+00 0. -1.
         22   -1    0    0    0    0 -0.00000000000E+00 -0.00000000000E+00 -0.27541326359E+04  0.27541326359E+04  0.00000000000E+00 0.  1.
        -24    2    1    2    0    0  0.81034026382E+03  0.12541929532E+03 -0.20303318611E+04  0.21911705962E+04  0.81238984952E+02 0.  0.
         25    2    1    2    0    0 -0.86126378476E+02 -0.47727789708E+03 -0.30576571471E+03  0.58681492202E+03  0.12508851385E+03 0.  0.
         24    2    1    2    0    0 -0.72421388534E+03  0.35185860176E+03  0.63329806894E+03  0.10274802467E+04  0.79743250286E+02 0.  0.
        -11    1    5    5    0    0 -0.12970725561E+03  0.97633294339E+02  0.13575627204E+03  0.21162702502E+03  0.00000000000E+00 0.  1.
         12    1    5    5    0    0 -0.59450662973E+03  0.25422530742E+03  0.49754179691E+03  0.81585322172E+03  0.00000000000E+00 0. -1.
         11    1    3    3    0    0  0.46678587270E+03  0.58845974662E+02 -0.12639018196E+04  0.13486288256E+04  0.00000000000E+00 0. -1.
        -12    1    3    3    0    0  0.34355439111E+03  0.66573320654E+02 -0.76643004149E+03  0.84254177058E+03  0.00000000000E+00 0.  1.
          5    1    4    4  501    0 -0.96642257074E+02 -0.28682786230E+03 -0.23542885227E+03  0.38347642082E+03  0.41800000000E+01 0. -1.
         -5    1    4    4    0  501  0.10515878599E+02 -0.19045003478E+03 -0.70336862442E+02  0.20333850120E+03  0.41800000000E+01 0. -1.
</event>
<event>
11    1  0.1003949E-008  0.1757912E+03  0.7561462E-02  0.1073099E+00
         22   -1    0    0    0    0  0.00000000000E+00  0.00000000000E+00  0.27056104732E+03  0.27056104732E+03  0.00000000000E+00 0. -1.
         22   -1    0    0    0    0 -0.00000000000E+00 -0.00000000000E+00 -0.16372196481E+04  0.16372196481E+04  0.00000000000E+00 0. -1.
         24    2    1    2    0    0  0.82851221956E+02  0.89817296177E+02 -0.14190352304E+04  0.14265834067E+04  0.80918226610E+02 0.  0.
         25    2    1    2    0    0 -0.10464701984E+03 -0.91400249297E+02 -0.16409488951E+03  0.24875915632E+03  0.12509588624E+03 0.  0.
        -24    2    1    2    0    0  0.21795797889E+02  0.15829531204E+01  0.21647151911E+03  0.23243813245E+03  0.81792446367E+02 0.  0.
        -13    1    3    3    0    0  0.73839968325E+02  0.47453702936E+02 -0.59807858502E+03  0.60448506078E+03  0.00000000000E+00 0.  1.
         14    1    3    3    0    0  0.90112536304E+01  0.42363593240E+02 -0.82095664538E+03  0.82209834589E+03  0.00000000000E+00 0. -1.
         11    1    5    5    0    0  0.37362997798E+02 -0.30181569450E+02  0.14390470289E+03  0.15170855036E+03  0.00000000000E+00 0. -1.
        -12    1    5    5    0    0 -0.15567199910E+02  0.31764522571E+02  0.72566816227E+02  0.80729582090E+02  0.00000000000E+00 0.  1.
          5    1    4    4  501    0 -0.10564028419E+03 -0.10189286137E+03 -0.86658068729E+02  0.17049668067E+03  0.41800000000E+01 0. -1.
         -5    1    4    4    0  501  0.99326434468E+00  0.10492612076E+02 -0.77436820786E+02  0.78262475655E+02  0.41800000000E+01 0. -1.
</event>
<event>
11    1  0.1003949E-008  0.2246238E+03  0.7561462E-02  0.1038359E+00
         22   -1    0    0    0    0  0.00000000000E+00  0.00000000000E+00  0.12802604336E+04  0.12802604336E+04  0.00000000000E+00 0. -1.
         22   -1    0    0    0    0 -0.00000000000E+00 -0.00000000000E+00 -0.47305246256E+03  0.47305246256E+03  0.00000000000E+00 0. -1.
         24    2    1    2    0    0  0.36181358294E+02  0.17931149110E+03 -0.37569515579E+03  0.42554229174E+03  0.80484100639E+02 0.  0.
         25    2    1    2    0    0  0.93939460268E+02 -0.25883282514E+03  0.29257517676E+03  0.42079288221E+03  0.12508941639E+03 0.  0.
        -24    2    1    2    0    0 -0.13012081856E+03  0.79521334048E+02  0.89032795011E+03  0.90697772225E+03  0.81667985888E+02 0.  0.
        -11    1    3    3    0    0 -0.50536845939E+01  0.96015862393E+01 -0.90301377994E+02  0.90950915629E+02  0.00000000000E+00 0.  1.
         12    1    3    3    0    0  0.41235042888E+02  0.16970990486E+03 -0.28539377779E+03  0.33459137612E+03  0.00000000000E+00 0. -1.
         13    1    5    5    0    0 -0.96940276854E+02  0.88323102886E+02  0.79305934238E+03  0.80382927809E+03  0.00000000000E+00 0. -1.
        -14    1    5    5    0    0 -0.33180541707E+02 -0.88017688381E+01  0.97268607725E+02  0.10314844415E+03  0.00000000000E+00 0.  1.
          5    1    4    4  501    0  0.47017442885E+02 -0.16559717975E+02  0.83467503676E+02  0.97309612910E+02  0.41800000000E+01 0. -1.
         -5    1    4    4    0  501  0.46922017383E+02 -0.24227310717E+03  0.20910767308E+03  0.32348326929E+03  0.41800000000E+01 0. -1.
</event>
<event>
11    1  0.1003949E-008  0.1410371E+03  0.7561462E-02  0.1106406E+00
         22   -1    0    0    0    0  0.00000000000E+00  0.00000000000E+00  0.67413245398E+03  0.67413245398E+03  0.00000000000E+00 0. -1.
         22   -1    0    0    0    0 -0.00000000000E+00 -0.00000000000E+00 -0.50776311424E+03  0.50776311424E+03  0.00000000000E+00 0.  1.
         24    2    1    2    0    0 -0.49045929390E+02  0.53983042773E+02 -0.41053782945E+03  0.42483997306E+03  0.81412659991E+02 0.  0.
         25    2    1    2    0    0  0.11577669918E+02 -0.95996967182E+01 -0.39949576672E+02  0.13217389909E+03  0.12509106406E+03 0.  0.
        -24    2    1    2    0    0  0.37468259472E+02 -0.44383346055E+02  0.61685674587E+03  0.62488169607E+03  0.81185819498E+02 0.  0.
        -11    1    3    3    0    0 -0.44059415899E+02  0.51072022141E+02 -0.41306589820E+03  0.41853676043E+03  0.00000000000E+00 0.  1.
         12    1    3    3    0    0 -0.49865134907E+01  0.29110206318E+01  0.25280687501E+01  0.63032126346E+01  0.00000000000E+00 0. -1.
         13    1    5    5    0    0  0.37061145842E+02 -0.23036989741E+02  0.58443321973E+03  0.58606008203E+03  0.00000000000E+00 0. -1.
        -14    1    5    5    0    0  0.40711362971E+00 -0.21346356313E+02  0.32423526134E+02  0.38821614036E+02  0.00000000000E+00 0.  1.
          5    1    4    4  501    0 -0.52080548829E+02 -0.19377558242E+02  0.10076859939E+01  0.55734739264E+02  0.41800000000E+01 0. -1.
         -5    1    4    4    0  501  0.63658218747E+02  0.97778615236E+01 -0.40957262666E+02  0.76439159827E+02  0.41800000000E+01 0. -1.
</event>
<event>
11    1  0.1003949E-008  0.1286703E+03  0.7561462E-02  0.1120914E+00
         22   -1    0    0    0    0  0.00000000000E+00  0.00000000000E+00  0.26790475626E+03  0.26790475626E+03  0.00000000000E+00 0. -1.
         22   -1    0    0    0    0 -0.00000000000E+00 -0.00000000000E+00 -0.21564576525E+03  0.21564576525E+03  0.00000000000E+00 0. -1.
        -24    2    1    2    0    0 -0.27193054550E+02  0.18883856610E+02 -0.15125617761E+03  0.16923155011E+03  0.68299517059E+02 0.  0.
         25    2    1    2    0    0 -0.49695936381E+01 -0.28900196747E+02  0.47877415765E+02  0.13710869167E+03  0.12508648271E+03 0.  0.
         24    2    1    2    0    0  0.32162648188E+02  0.10016340137E+02  0.15563775286E+03  0.17721027974E+03  0.77753521601E+02 0.  0.
        -11    1    5    5    0    0  0.16430213546E+01  0.20084411711E+00 -0.91675231572E+01  0.93157575306E+01  0.00000000000E+00 0.  1.
         12    1    5    5    0    0  0.30519626834E+02  0.98154960195E+01  0.16480527602E+03  0.16789452221E+03  0.00000000000E+00 0. -1.
         11    1    3    3    0    0 -0.18311649968E+02  0.33194242605E+02 -0.14706898116E+03  0.15187646126E+03  0.00000000000E+00 0. -1.
        -12    1    3    3    0    0 -0.88814045820E+01 -0.14310385995E+02 -0.41871964501E+01  0.17355088844E+02  0.00000000000E+00 0.  1.
          5    1    4    4  501    0 -0.13323458489E+02 -0.25499859537E+02  0.89610140800E+02  0.94208317662E+02  0.41800000000E+01 0. -1.
         -5    1    4    4    0  501  0.83538648506E+01 -0.34003372094E+01 -0.41732725035E+02  0.42900374007E+02  0.41800000000E+01 0. -1.
</event>
<event>
11    1  0.1003949E-008  0.1406782E+03  0.7561462E-02  0.1106803E+00
         22   -1    0    0    0    0  0.00000000000E+00  0.00000000000E+00  0.13445739868E+04  0.13445739868E+04  0.00000000000E+00 0. -1.
         22   -1    0    0    0    0 -0.00000000000E+00 -0.00000000000E+00 -0.13672415861E+04  0.13672415861E+04  0.00000000000E+00 0. -1.
        -24    2    1    2    0    0 -0.27300582952E+02 -0.59020367139E+02 -0.13078046803E+04  0.13118182344E+04  0.79279712633E+02 0.  0.
         25    2    1    2    0    0 -0.15990761470E+00  0.45756595968E+02  0.22575538778E+02  0.13505737816E+03  0.12504858576E+03 0.  0.
         24    2    1    2    0    0  0.27460490567E+02  0.13263771172E+02  0.12625615422E+04  0.12649399603E+04  0.71284284073E+02 0.  0.
        -11    1    5    5    0    0 -0.83642648729E+00 -0.10713437674E+01 -0.52361036460E+00  0.14565557148E+01  0.00000000000E+00 0.  1.
         12    1    5    5    0    0  0.28296917054E+02  0.14335114939E+02  0.12630851526E+04  0.12634834046E+04  0.00000000000E+00 0. -1.
         11    1    3    3    0    0 -0.32543591749E+02 -0.42337952505E+02 -0.12561369117E+04  0.12572714618E+04  0.00000000000E+00 0. -1.
        -12    1    3    3    0    0  0.52430087971E+01 -0.16682414634E+02 -0.51667768561E+02  0.54546772657E+02  0.00000000000E+00 0.  1.
          5    1    4    4  501    0  0.14541081374E+02  0.42797906704E+02 -0.46065553415E+02  0.64673112475E+02  0.41800000000E+01 0.  1.
         -5    1    4    4    0  501 -0.14700988988E+02  0.29586892635E+01  0.68641092192E+02  0.70384265690E+02  0.41800000000E+01 0.  1.
</event>
<event>
11    1  0.1003949E-008  0.1933852E+03  0.7561462E-02  0.1059302E+00
         22   -1    0    0    0    0  0.00000000000E+00  0.00000000000E+00  0.13336203891E+04  0.13336203891E+04  0.00000000000E+00 0.  1.
         22   -1    0    0    0    0 -0.00000000000E+00 -0.00000000000E+00 -0.39721050504E+03  0.39721050504E+03  0.00000000000E+00 0.  1.
        -24    2    1    2    0    0  0.24758729463E+02 -0.88964929202E+01 -0.33997282585E+03  0.35037980759E+03  0.80575089078E+02 0.  0.
         25    2    1    2    0    0  0.12530458443E+03  0.19379594687E+02  0.12795422778E+03  0.21930165505E+03  0.12507647232E+03 0.  0.
         24    2    1    2    0    0 -0.15006331389E+03 -0.10483101767E+02  0.11484284821E+04  0.11611494315E+04  0.82165260919E+02 0.  0.
        -11    1    5    5    0    0 -0.10280517899E+03  0.10786418125E+02  0.96562222456E+03  0.97113929599E+03  0.00000000000E+00 0.  1.
         12    1    5    5    0    0 -0.47258134902E+02 -0.21269519891E+02  0.18280625758E+03  0.19001013552E+03  0.00000000000E+00 0. -1.
         11    1    3    3    0    0 -0.22299113990E+02  0.17911456569E+02 -0.83861319116E+02  0.88604692907E+02  0.00000000000E+00 0. -1.
        -12    1    3    3    0    0  0.47057843453E+02 -0.26807949489E+02 -0.25611150674E+03  0.26177511469E+03  0.00000000000E+00 0.  1.
          5    1    4    4  501    0  0.44670727760E+02 -0.32755954840E+02 -0.44079939152E+01  0.55725481661E+02  0.41800000000E+01 0.  1.
         -5    1    4    4    0  501  0.80633856672E+02  0.52135549527E+02  0.13236222170E+03  0.16357617338E+03  0.41800000000E+01 0.  1.
</event>
<event>
11    1  0.1003949E-008  0.1402647E+03  0.7561462E-02  0.1107263E+00
         22   -1    0    0    0    0  0.00000000000E+00  0.00000000000E+00  0.99167032726E+03  0.99167032726E+03  0.00000000000E+00 0. -1.
         22   -1    0    0    0    0 -0.00000000000E+00 -0.00000000000E+00 -0.76389572191E+02  0.76389572191E+02  0.00000000000E+00 0.  1.
         24    2    1    2    0    0 -0.20198659843E+02 -0.59356302640E+02 -0.17005051080E+01  0.10179538481E+03  0.80176381368E+02 0.  0.
         25    2    1    2    0    0 -0.19188762135E+02  0.75057036747E+02  0.22806602925E+03  0.27140978652E+03  0.12508953259E+03 0.  0.
        -24    2    1    2    0    0  0.39387421978E+02 -0.15700734108E+02  0.68891523093E+03  0.69485472812E+03  0.80131240627E+02 0.  0.
        -11    1    3    3    0    0 -0.50598493136E+02 -0.27134081522E+02  0.87266527281E+00  0.57421489291E+02  0.00000000000E+00 0.  1.
         12    1    3    3    0    0  0.30399833293E+02 -0.32222221118E+02 -0.25731703808E+01  0.44373895522E+02  0.00000000000E+00 0. -1.
         11    1    5    5    0    0  0.62053904445E+01 -0.44516112646E+02  0.27997740294E+03  0.28356222829E+03  0.00000000000E+00 0. -1.
        -12    1    5    5    0    0  0.33182031534E+02  0.28815378538E+02  0.40893782798E+03  0.41129249983E+03  0.00000000000E+00 0.  1.
          5    1    4    4  501    0  0.98256890632E+01 -0.10467570534E+01 -0.13038729662E+02  0.16885518561E+02  0.41800000000E+01 0.  1.
         -5    1    4    4    0  501 -0.29014451199E+02  0.76103793801E+02  0.24110475891E+03  0.25452426796E+03  0.41800000000E+01 0.  1.
</event>
<event>
11    1  0.1003949E-008  0.2652664E+03  0.7561462E-02  0.1016067E+00
         22   -1    0    0    0    0  0.00000000000E+00  0.00000000000E+00  0.69673466988E+02  0.69673466988E+02  0.00000000000E+00 0. -1.
         22   -1    0    0    0    0 -0.00000000000E+00 -0.00000000000E+00 -0.15514962334E+04  0.15514962334E+04  0.00000000000E+00 0.  1.
        -24    2    1    2    0    0 -0.17068675501E+03 -0.15247449233E+03 -0.77199602713E+03  0.80938935220E+03  0.82163364082E+02 0.  0.
         25    2    1    2    0    0  0.15535067746E+03  0.18672665757E+03 -0.64933861751E+03  0.70447840505E+03  0.12509398607E+03 0.  0.
         24    2    1    2    0    0  0.15336077552E+02 -0.34252165241E+02 -0.60488121750E+02  0.10730194312E+03  0.80290024454E+02 0.  0.
        -11    1    5    5    0    0 -0.32919602695E+02 -0.17710790548E+02 -0.29457651366E+02  0.47593335326E+02  0.00000000000E+00 0.  1.
         12    1    5    5    0    0  0.48255680247E+02 -0.16541374693E+02 -0.31030470384E+02  0.59708607797E+02  0.00000000000E+00 0. -1.
         13    1    3    3    0    0 -0.11455602441E+03 -0.10422188425E+03 -0.37792750041E+03  0.40842928330E+03  0.00000000000E+00 0. -1.
        -14    1    3    3    0    0 -0.56130730602E+02 -0.48252608084E+02 -0.39406852671E+03  0.40096006890E+03  0.00000000000E+00 0.  1.
          5    1    4    4  501    0  0.77861211721E+02  0.15533711912E+03 -0.53668603323E+03  0.56412885011E+03  0.41800000000E+01 0. -1.
         -5    1    4    4    0  501  0.77489465738E+02  0.31389538456E+02 -0.11265258429E+03  0.14034955494E+03  0.41800000000E+01 0. -1.
</event>
<event>
11    1  0.1003949E-008  0.2275040E+03  0.7561462E-02  0.1036616E+00
         22   -1    0    0    0    0  0.00000000000E+00  0.00000000000E+00  0.98489820150E+03  0.98489820150E+03  0.00000000000E+00 0. -1.
         22   -1    0    0    0    0 -0.00000000000E+00 -0.00000000000E+00 -0.10703888941E+04  0.10703888941E+04  0.00000000000E+00 0.  1.
         24    2    1    2    0    0 -0.32441154174E+02  0.12260805506E+02 -0.78951983208E+03  0.79452161039E+03  0.81977242530E+02 0.  0.
         25    2    1    2    0    0  0.62309773939E+02 -0.19919768118E+03 -0.21140766497E+03  0.32234245995E+03  0.12509690868E+03 0.  0.
        -24    2    1    2    0    0 -0.29868619765E+02  0.18693687568E+03  0.91543680442E+03  0.93842302529E+03  0.82314649784E+02 0.  0.
        -11    1    3    3    0    0 -0.53102986060E+02 -0.32229831416E+01 -0.67656030566E+03  0.67864877657E+03  0.00000000000E+00 0.  1.
         12    1    3    3    0    0  0.20661831886E+02  0.15483788647E+02 -0.11295952642E+03  0.11587283381E+03  0.00000000000E+00 0. -1.
         11    1    5    5    0    0 -0.57168550343E+02  0.12311411592E+03  0.65314944634E+03  0.66710533497E+03  0.00000000000E+00 0. -1.
        -12    1    5    5    0    0  0.27299930577E+02  0.63822759755E+02  0.26228735808E+03  0.27131769032E+03  0.00000000000E+00 0.  1.
          5    1    4    4  501    0  0.10113974362E+02 -0.15741855641E+03 -0.19940363454E+03  0.25428758572E+03  0.41800000000E+01 0.  1.
         -5    1    4    4    0  501  0.52195799577E+02 -0.41779124771E+02 -0.12004030422E+02  0.68054874230E+02  0.41800000000E+01 0.  1.
</event>
<event>
11    1  0.1003949E-008  0.1576202E+03  0.7561462E-02  0.1089337E+00
         22   -1    0    0    0    0  0.00000000000E+00  0.00000000000E+00  0.87397075434E+03  0.87397075434E+03  0.00000000000E+00 0. -1.
         22   -1    0    0    0    0 -0.00000000000E+00 -0.00000000000E+00 -0.17559732173E+04  0.17559732173E+04  0.00000000000E+00 0. -1.
         24    2    1    2    0    0 -0.14196904574E+02  0.24273484064E+02 -0.16914809843E+04  0.16936317669E+04  0.80559838274E+02 0.  0.
         25    2    1    2    0    0 -0.47494644918E+02 -0.96660989086E+02  0.58833603265E+02  0.17523857179E+03  0.12509227020E+03 0.  0.
        -24    2    1    2    0    0  0.61691549492E+02  0.72387505023E+02  0.75064491813E+03  0.76107363288E+03  0.81972455147E+02 0.  0.
        -13    1    3    3    0    0  0.27025923146E+02 -0.12578095260E+02 -0.53532652111E+03  0.53615584787E+03  0.00000000000E+00 0.  1.
         14    1    3    3    0    0 -0.41222827720E+02  0.36851579323E+02 -0.11561544632E+04  0.11574759191E+04  0.00000000000E+00 0. -1.
         13    1    5    5    0    0  0.80075363567E+02  0.43609064554E+02  0.52494776897E+03  0.53280763368E+03  0.00000000000E+00 0. -1.
        -14    1    5    5    0    0 -0.18383814076E+02  0.28778440469E+02  0.22569714915E+03  0.22826599920E+03  0.00000000000E+00 0.  1.
          5    1    4    4  501    0 -0.21653568668E+02 -0.27894566270E+01  0.73409703742E+02  0.76701467443E+02  0.41800000000E+01 0. -1.
         -5    1    4    4    0  501 -0.25841076249E+02 -0.93871532459E+02 -0.14576100477E+02  0.98537104347E+02  0.41800000000E+01 0. -1.
</event>
<event>
11    1  0.1003949E-008  0.1279991E+03  0.7561462E-02  0.1121752E+00
         22   -1    0    0    0    0  0.00000000000E+00  0.00000000000E+00  0.44630019496E+03  0.44630019496E+03  0.00000000000E+00 0. -1.
         22   -1    0    0    0    0 -0.00000000000E+00 -0.00000000000E+00 -0.29326532507E+03  0.29326532507E+03  0.00000000000E+00 0.  1.
         24    2    1    2    0    0 -0.21224115039E+01 -0.22441110659E+02 -0.14922238235E+03  0.17067409934E+03  0.79713365965E+02 0.  0.
         25    2    1    2    0    0 -0.20433575582E+02  0.65150922713E+01 -0.97299588731E+02  0.15992660563E+03  0.12509728926E+03 0.  0.
        -24    2    1    2    0    0  0.22555987086E+02  0.15926018387E+02  0.39955684097E+03  0.40896481507E+03  0.82729318785E+02 0.  0.
        -13    1    3    3    0    0 -0.17179209709E+02  0.22757492208E+02 -0.91451496731E+02  0.95793553813E+02  0.00000000000E+00 0.  1.
         14    1    3    3    0    0  0.15056798205E+02 -0.45198602866E+02 -0.57770885616E+02  0.74880545525E+02  0.00000000000E+00 0. -1.
         11    1    5    5    0    0  0.35939361847E+02 -0.20732913314E+02  0.28355268161E+03  0.28657218056E+03  0.00000000000E+00 0. -1.
        -12    1    5    5    0    0 -0.13383374761E+02  0.36658931701E+02  0.11600415936E+03  0.12239263451E+03  0.00000000000E+00 0.  1.
          5    1    4    4  501    0  0.40653675590E+02  0.13533386397E+02  0.19540369747E+01  0.43094832020E+02  0.41800000000E+01 0. -1.
         -5    1    4    4    0  501 -0.61087251172E+02 -0.70182941255E+01 -0.99253625706E+02  0.11683177361E+03  0.41800000000E+01 0. -1.
</event>
<event>
11    1  0.1003949E-008  0.3707162E+03  0.7561462E-02  0.9740345E-01
         22   -1    0    0    0    0  0.00000000000E+00  0.00000000000E+00  0.34022296150E+03  0.34022296150E+03  0.00000000000E+00 0. -1.
         22   -1    0    0    0    0 -0.00000000000E+00 -0.00000000000E+00 -0.18468956768E+04  0.18468956768E+04  0.00000000000E+00 0.  1.
         24    2    1    2    0    0  0.14915554213E+03  0.34726029985E+03 -0.15852332090E+04  0.16314288248E+04  0.75885387730E+02 0.  0.
         25    2    1    2    0    0 -0.16926404070E+03 -0.17430449741E+03 -0.99585261903E+02  0.29085504003E+03  0.12508819542E+03 0.  0.
        -24    2    1    2    0    0  0.20108498569E+02 -0.17295580244E+03  0.17814575558E+03  0.26483477344E+03  0.89908206948E+02 0.  0.
        -13    1    3    3    0    0  0.13488295870E+03  0.23195728191E+03 -0.10513961717E+04  0.10850951585E+04  0.00000000000E+00 0.  1.
         14    1    3    3    0    0  0.14272583428E+02  0.11530301794E+03 -0.53383703728E+03  0.54633366632E+03  0.00000000000E+00 0. -1.
         11    1    5    5    0    0  0.15529012689E+02 -0.18289796066E+03  0.17458670633E+03  0.25332455916E+03  0.00000000000E+00 0. -1.
        -12    1    5    5    0    0  0.45794858804E+01  0.99421582205E+01  0.35590492547E+01  0.11510214273E+02  0.00000000000E+00 0.  1.
          5    1    4    4  501    0 -0.14149118527E+03 -0.58863378661E+02 -0.69345796898E+02  0.16825862475E+03  0.41800000000E+01 0.  1.
         -5    1    4    4    0  501 -0.27772855437E+02 -0.11544111875E+03 -0.30239465005E+02  0.12259641528E+03  0.41800000000E+01 0.  1.
</event>
<event>
11    1  0.1003949E-008  0.1405119E+03  0.7561462E-02  0.1106988E+00
         22   -1    0    0    0    0  0.00000000000E+00  0.00000000000E+00  0.33405883321E+03  0.33405883321E+03  0.00000000000E+00 0.  1.
         22   -1    0    0    0    0 -0.00000000000E+00 -0.00000000000E+00 -0.34246966694E+03  0.34246966694E+03  0.00000000000E+00 0. -1.
         24    2    1    2    0    0 -0.26737796884E+02 -0.19900007230E+02 -0.26231261637E+03  0.27669156752E+03  0.81482481288E+02 0.  0.
         25    2    1    2    0    0 -0.14574908608E+02 -0.34933859822E+02  0.62211394462E+01  0.13084096611E+03  0.12509137985E+03 0.  0.
        -24    2    1    2    0    0  0.41312705493E+02  0.54833867052E+02  0.24768064319E+03  0.26899596652E+03  0.79370248705E+02 0.  0.
        -13    1    3    3    0    0  0.77070459399E+01 -0.21401178163E+02 -0.15601226522E+02  0.27582734688E+02  0.00000000000E+00 0.  1.
         14    1    3    3    0    0 -0.34444842824E+02  0.15011709330E+01 -0.24671138985E+03  0.24910883283E+03  0.00000000000E+00 0. -1.
         11    1    5    5    0    0  0.40488026725E+02  0.71791775962E+01  0.45734970584E+02  0.61502101048E+02  0.00000000000E+00 0. -1.
        -12    1    5    5    0    0  0.82467876791E+00  0.47654689456E+02  0.20194567261E+03  0.20749386547E+03  0.00000000000E+00 0.  1.
          5    1    4    4  501    0  0.11783523821E+01 -0.15223341958E+02  0.64914596370E+02  0.66817032833E+02  0.41800000000E+01 0.  1.
         -5    1    4    4    0  501 -0.15753260990E+02 -0.19710517864E+02 -0.58693456924E+02  0.64023933275E+02  0.41800000000E+01 0.  1.
</event>
<event>
11    1  0.1003949E-008  0.1294549E+03  0.7561462E-02  0.1119940E+00
         22   -1    0    0    0    0  0.00000000000E+00  0.00000000000E+00  0.67862946565E+03  0.67862946565E+03  0.00000000000E+00 0.  1.
         22   -1    0    0    0    0 -0.00000000000E+00 -0.00000000000E+00 -0.61208791615E+03  0.61208791615E+03  0.00000000000E+00 0. -1.
        -24    2    1    2    0    0  0.12234152321E+02  0.36497300951E+02 -0.38106883308E+03  0.39272885269E+03  0.86837599767E+02 0.  0.
         25    2    1    2    0    0 -0.35397650995E+02 -0.14630457071E+01 -0.20301712837E+03  0.24107622561E+03  0.12508660178E+03 0.  0.
         24    2    1    2    0    0  0.23163498674E+02 -0.35034255244E+02  0.65062751094E+03  0.65691230350E+03  0.80334735887E+02 0.  0.
        -13    1    5    5    0    0  0.40386837723E+02  0.75870903361E+00  0.17376345124E+03  0.17839677488E+03  0.00000000000E+00 0.  1.
         14    1    5    5    0    0 -0.17223339049E+02 -0.35792964277E+02  0.47686405970E+03  0.47851552862E+03  0.00000000000E+00 0. -1.
         11    1    3    3    0    0 -0.22584315092E+02  0.25379546426E+02 -0.31819129353E+03  0.31999979991E+03  0.00000000000E+00 0. -1.
        -12    1    3    3    0    0  0.34818467413E+02  0.11117754525E+02 -0.62877539547E+02  0.72729052779E+02  0.00000000000E+00 0.  1.
          5    1    4    4  501    0 -0.83403035331E+01 -0.13077000220E+02 -0.20992988587E+03  0.21054357739E+03  0.41800000000E+01 0. -1.
         -5    1    4    4    0  501 -0.27057347462E+02  0.11613954512E+02  0.69127575022E+01  0.30532648221E+02  0.41800000000E+01 0. -1.
</event>
<event>
11    1  0.1003949E-008  0.1442169E+03  0.7561462E-02  0.1102939E+00
         22   -1    0    0    0    0  0.00000000000E+00  0.00000000000E+00  0.69399896372E+03  0.69399896372E+03  0.00000000000E+00 0. -1.
         22   -1    0    0    0    0 -0.00000000000E+00 -0.00000000000E+00 -0.33361894599E+03  0.33361894599E+03  0.00000000000E+00 0.  1.
        -24    2    1    2    0    0  0.59120041936E+02 -0.28459647546E+02 -0.21216199158E+03  0.23673740063E+03  0.82016798827E+02 0.  0.
         25    2    1    2    0    0 -0.11225639220E+03  0.51120291217E+01 -0.37978282596E+02  0.17238650306E+03  0.12508847291E+03 0.  0.
         24    2    1    2    0    0  0.53136350264E+02  0.23347618425E+02  0.61052029190E+03  0.61849400602E+03  0.80194922902E+02 0.  0.
        -11    1    5    5    0    0  0.24342895342E+02 -0.14070020929E+01  0.40953204671E+02  0.47662576319E+02  0.00000000000E+00 0.  1.
         12    1    5    5    0    0  0.28793454921E+02  0.24754620518E+02  0.56956708723E+03  0.57083142970E+03  0.00000000000E+00 0. -1.
         13    1    3    3    0    0 -0.49974265705E+01 -0.23333906596E+02 -0.12435407308E+02  0.26908824283E+02  0.00000000000E+00 0. -1.
        -14    1    3    3    0    0  0.64117468506E+02 -0.51257409506E+01 -0.19972658427E+03  0.20982857635E+03  0.00000000000E+00 0.  1.
          5    1    4    4  501    0 -0.72555222798E+02  0.62515248927E+02 -0.76382674701E+01  0.96167729689E+02  0.41800000000E+01 0. -1.
         -5    1    4    4    0  501 -0.39701169401E+02 -0.57403219805E+02 -0.30340015126E+02  0.76218773367E+02  0.41800000000E+01 0. -1.
</event>
<event>
11    1  0.1003949E-008  0.1909389E+03  0.7561462E-02  0.1061123E+00
         22   -1    0    0    0    0  0.00000000000E+00  0.00000000000E+00  0.37945774042E+04  0.37945774042E+04  0.00000000000E+00 0. -1.
         22   -1    0    0    0    0 -0.00000000000E+00 -0.00000000000E+00 -0.15045402344E+03  0.15045402344E+03  0.00000000000E+00 0. -1.
        -24    2    1    2    0    0 -0.10804449142E+02  0.10931614259E+02 -0.12409036229E+03  0.14820649992E+03  0.79564516548E+02 0.  0.
         25    2    1    2    0    0  0.21214175625E+01  0.13486078373E+03  0.68862670502E+03  0.71277372389E+03  0.12509081177E+03 0.  0.
         24    2    1    2    0    0  0.86830315794E+01 -0.14579239798E+03  0.30795870380E+04  0.30840512038E+04  0.78642767217E+02 0.  0.
        -13    1    5    5    0    0  0.15417919048E+01 -0.72873015327E+01  0.20321322319E+02  0.21643429181E+02  0.00000000000E+00 0.  1.
         14    1    5    5    0    0  0.71412396746E+01 -0.13850509645E+03  0.30592657157E+04  0.30624077747E+04  0.00000000000E+00 0. -1.
         13    1    3    3    0    0 -0.18091971893E+02  0.94377214656E+01 -0.13415110586E+03  0.13569417540E+03  0.00000000000E+00 0. -1.
        -14    1    3    3    0    0  0.72875227511E+01  0.14938927932E+01  0.10060743575E+02  0.12512324517E+02  0.00000000000E+00 0.  1.
          5    1    4    4  501    0 -0.35949389280E+01 -0.18602745794E+02  0.25266805478E+02  0.31857018003E+02  0.41800000000E+01 0. -1.
         -5    1    4    4    0  501  0.57163564904E+01  0.15346352952E+03  0.66335989955E+03  0.68091670588E+03  0.41800000000E+01 0. -1.
</event>
<event>
11    1  0.1003949E-008  0.1509259E+03  0.7561462E-02  0.1095936E+00
         22   -1    0    0    0    0  0.00000000000E+00  0.00000000000E+00  0.42328144252E+03  0.42328144252E+03  0.00000000000E+00 0.  1.
         22   -1    0    0    0    0 -0.00000000000E+00 -0.00000000000E+00 -0.26534300123E+03  0.26534300123E+03  0.00000000000E+00 0. -1.
         24    2    1    2    0    0  0.27607497127E+02 -0.79010389364E+02 -0.19821367239E+03  0.22943515598E+03  0.79668157704E+02 0.  0.
         25    2    1    2    0    0  0.19055606424E+02  0.10260984531E+03  0.11514087501E+03  0.19949132977E+03  0.12508985996E+03 0.  0.
        -24    2    1    2    0    0 -0.46663103550E+02 -0.23599455950E+02  0.24101123867E+03  0.25969795800E+03  0.81377101624E+02 0.  0.
        -13    1    3    3    0    0  0.42158180035E+02 -0.18746772552E+02 -0.46325555182E+02  0.65382036431E+02  0.00000000000E+00 0.  1.
         14    1    3    3    0    0 -0.14550682909E+02 -0.60263616811E+02 -0.15188811721E+03  0.16405311955E+03  0.00000000000E+00 0. -1.
         11    1    5    5    0    0  0.11068146451E+02  0.18918398710E+02  0.32468195480E+02  0.39173886625E+02  0.00000000000E+00 0. -1.
        -12    1    5    5    0    0 -0.57731250001E+02 -0.42517854660E+02  0.20854304319E+03  0.22052407137E+03  0.00000000000E+00 0.  1.
          5    1    4    4  501    0  0.41680485239E+02  0.10114815213E+03  0.13158510317E+03  0.17117337207E+03  0.41800000000E+01 0. -1.
         -5    1    4    4    0  501 -0.22624878815E+02  0.14616931828E+01 -0.16444228163E+02  0.28317957699E+02  0.41800000000E+01 0. -1.
</event>
<event>
11    1  0.1003949E-008  0.1337139E+03  0.7561462E-02  0.1114788E+00
         22   -1    0    0    0    0  0.00000000000E+00  0.00000000000E+00  0.11510191886E+04  0.11510191886E+04  0.00000000000E+00 0. -1.
         22   -1    0    0    0    0 -0.00000000000E+00 -0.00000000000E+00 -0.36743401823E+03  0.36743401823E+03  0.00000000000E+00 0. -1.
         24    2    1    2    0    0 -0.26276997615E+02  0.38864347885E+02 -0.34614203676E+03  0.35757003851E+03  0.76427120082E+02 0.  0.
         25    2    1    2    0    0  0.46204143346E+02 -0.47841783570E+02  0.35846381020E+03  0.38545031534E+03  0.12510788644E+03 0.  0.
        -24    2    1    2    0    0 -0.19927145731E+02  0.89774356853E+01  0.77126339691E+03  0.77543285296E+03  0.77273517830E+02 0.  0.
        -13    1    3    3    0    0  0.18703383165E+02 -0.11306577684E+02 -0.70401427938E+02  0.73715780511E+02  0.00000000000E+00 0.  1.
         14    1    3    3    0    0 -0.44980380780E+02  0.50170925569E+02 -0.27574060882E+03  0.28385425800E+03  0.00000000000E+00 0. -1.
         11    1    5    5    0    0 -0.20008036543E+02  0.42448330492E+01  0.77033857401E+03  0.77061005622E+03  0.00000000000E+00 0. -1.
        -12    1    5    5    0    0  0.80890812213E-01  0.47326026360E+01  0.92482289206E+00  0.48227967421E+01  0.00000000000E+00 0.  1.
          5    1    4    4  501    0 -0.74992844741E+01 -0.46663899318E+02  0.38839579875E+02  0.61316752459E+02  0.41800000000E+01 0.  1.
         -5    1    4    4    0  501  0.53703427820E+02 -0.11778842520E+01  0.31962423033E+03  0.32413356288E+03  0.41800000000E+01 0.  1.
</event>
<event>
11    1  0.1003949E-008  0.1846640E+03  0.7561462E-02  0.1065931E+00
         22   -1    0    0    0    0  0.00000000000E+00  0.00000000000E+00  0.30851627637E+03  0.30851627637E+03  0.00000000000E+00 0. -1.
         22   -1    0    0    0    0 -0.00000000000E+00 -0.00000000000E+00 -0.14208160036E+04  0.14208160036E+04  0.00000000000E+00 0.  1.
        -24    2    1    2    0    0 -0.17069175080E+02 -0.49265754168E+02 -0.12290280786E+04  0.12327539751E+04  0.80336005538E+02 0.  0.
         25    2    1    2    0    0 -0.11945773646E+03  0.63147007484E+02 -0.11418697998E+03  0.21666654379E+03  0.12509208387E+03 0.  0.
         24    2    1    2    0    0  0.13652691154E+03 -0.13881253316E+02  0.23091533131E+03  0.27991176115E+03  0.78717323540E+02 0.  0.
        -13    1    5    5    0    0  0.27670663181E+02 -0.17735040805E+02  0.11276534850E+02  0.34747050399E+02  0.00000000000E+00 0.  1.
         14    1    5    5    0    0  0.10885624836E+03  0.38537874896E+01  0.21963879646E+03  0.24516471075E+03  0.00000000000E+00 0. -1.
         13    1    3    3    0    0  0.18428016312E+02 -0.40467615347E+01 -0.76470579453E+02  0.78763681897E+02  0.00000000000E+00 0. -1.
        -14    1    3    3    0    0 -0.35497191392E+02 -0.45218992633E+02 -0.11525574991E+04  0.11539902932E+04  0.00000000000E+00 0.  1.
          5    1    4    4  501    0 -0.64908139829E+02  0.20800900096E+02  0.15186976363E+02  0.69956134197E+02  0.41800000000E+01 0.  1.
         -5    1    4    4    0  501 -0.54549596635E+02  0.42346107388E+02 -0.12937395634E+03  0.14671040959E+03  0.41800000000E+01 0.  1.
</event>
<event>
11    1  0.1003949E-008  0.1282673E+03  0.7561462E-02  0.1121416E+00
         22   -1    0    0    0    0  0.00000000000E+00  0.00000000000E+00  0.37949141782E+03  0.37949141782E+03  0.00000000000E+00 0. -1.
         22   -1    0    0    0    0 -0.00000000000E+00 -0.00000000000E+00 -0.10867773122E+04  0.10867773122E+04  0.00000000000E+00 0.  1.
        -24    2    1    2    0    0  0.11777608939E+02 -0.24587102870E+02 -0.89295102807E+03  0.89699196271E+03  0.80559325575E+02 0.  0.
         25    2    1    2    0    0 -0.14419952559E+02  0.38754553039E+02 -0.16373073008E+03  0.21015416553E+03  0.12508865217E+03 0.  0.
         24    2    1    2    0    0  0.26423436197E+01 -0.14167450169E+02  0.34939586381E+03  0.35912260175E+03  0.81754968121E+02 0.  0.
        -11    1    5    5    0    0  0.11327876852E+02 -0.25356796562E+02  0.36294380939E+02  0.45700875414E+02  0.00000000000E+00 0.  1.
         12    1    5    5    0    0 -0.86855332324E+01  0.11189346393E+02  0.31310148287E+03  0.31342172633E+03  0.00000000000E+00 0. -1.
         13    1    3    3    0    0 -0.21553261828E+02 -0.10232469684E+02 -0.86652494047E+02  0.89877145348E+02  0.00000000000E+00 0. -1.
        -14    1    3    3    0    0  0.33330870767E+02 -0.14354633186E+02 -0.80629853402E+03  0.80711481736E+03  0.00000000000E+00 0.  1.
          5    1    4    4  501    0 -0.65399302921E+02  0.45072955193E+02 -0.88832394915E+02  0.11923634890E+03  0.41800000000E+01 0.  1.
         -5    1    4    4    0  501  0.50979350362E+02 -0.63184021535E+01 -0.74898335169E+02  0.90917816627E+02  0.41800000000E+01 0.  1.
</event>
<event>
11    1  0.1003949E-008  0.6179706E+03  0.7561462E-02  0.9162766E-01
         22   -1    0    0    0    0  0.00000000000E+00  0.00000000000E+00  0.25140833371E+03  0.25140833371E+03  0.00000000000E+00 0. -1.
         22   -1    0    0    0    0 -0.00000000000E+00 -0.00000000000E+00 -0.21375846737E+04  0.21375846737E+04  0.00000000000E+00 0. -1.
        -24    2    1    2    0    0 -0.61044493953E+03  0.69528859751E+02 -0.13999036621E+04  0.15309073965E+04  0.80435732323E+02 0.  0.
         25    2    1    2    0    0  0.59330872085E+03 -0.10193389776E+03 -0.37535897228E+03  0.72037964893E+03  0.12508686090E+03 0.  0.
         24    2    1    2    0    0  0.17136218675E+02  0.32405038012E+02 -0.11091370566E+03  0.13770596201E+03  0.72920130208E+02 0.  0.
        -11    1    5    5    0    0 -0.25943489030E+01  0.19107291057E+01 -0.99616805880E+02  0.99668899591E+02  0.00000000000E+00 0.  1.
         12    1    5    5    0    0  0.19730567578E+02  0.30494308906E+02 -0.11296899783E+02  0.38037062417E+02  0.00000000000E+00 0. -1.
         11    1    3    3    0    0 -0.18597323970E+03 -0.75966192624E+01 -0.48140951759E+03  0.51613842924E+03  0.00000000000E+00 0. -1.
        -12    1    3    3    0    0 -0.42447169982E+03  0.77125479013E+02 -0.91849414447E+03  0.10147689672E+04  0.00000000000E+00 0.  1.
          5    1    4    4  501    0  0.11774591619E+03  0.48987486757E+01 -0.12705894110E+03  0.17334804709E+03  0.41800000000E+01 0.  1.
         -5    1    4    4    0  501  0.47556280466E+03 -0.10683264644E+03 -0.24830003118E+03  0.54703160184E+03  0.41800000000E+01 0.  1.
</event>
<event>
11    1  0.1003949E-008  0.1486869E+03  0.7561462E-02  0.1098228E+00
         22   -1    0    0    0    0  0.00000000000E+00  0.00000000000E+00  0.16877268513E+04  0.16877268513E+04  0.00000000000E+00 0. -1.
         22   -1    0    0    0    0 -0.00000000000E+00 -0.00000000000E+00 -0.29566064102E+02  0.29566064102E+02  0.00000000000E+00 0.  1.
        -24    2    1    2    0    0  0.32201586226E+02 -0.33251778681E+02  0.21021351587E+03  0.23007890318E+03  0.81264730932E+02 0.  0.
         25    2    1    2    0    0 -0.10731385528E+03  0.19726428894E+02  0.39592716842E+03  0.42931197254E+03  0.12508018048E+03 0.  0.
         24    2    1    2    0    0  0.75112269052E+02  0.13525349788E+02  0.10520201029E+04  0.10579020397E+04  0.81151959780E+02 0.  0.
        -11    1    5    5    0    0  0.22526839812E+02  0.17164566803E+02  0.88066344519E+02  0.92508172085E+02  0.00000000000E+00 0.  1.
         12    1    5    5    0    0  0.52585429241E+02 -0.36392170155E+01  0.96395375837E+03  0.96539386757E+03  0.00000000000E+00 0. -1.
         13    1    3    3    0    0 -0.23735945113E+02 -0.28581366866E+02  0.91874033459E+02  0.99101602642E+02  0.00000000000E+00 0. -1.
        -14    1    3    3    0    0  0.55937531339E+02 -0.46704118152E+01  0.11833948241E+03  0.13097730054E+03  0.00000000000E+00 0.  1.
          5    1    4    4  501    0 -0.65358138763E+02 -0.48878619585E+02  0.24464660243E+03  0.25793456193E+03  0.41800000000E+01 0.  1.
         -5    1    4    4    0  501 -0.41955716515E+02  0.68605048479E+02  0.15128056598E+03  0.17137741062E+03  0.41800000000E+01 0.  1.
</event>
<event>
11    1  0.1003949E-008  0.1877326E+03  0.7561462E-02  0.1063554E+00
         22   -1    0    0    0    0  0.00000000000E+00  0.00000000000E+00  0.79768361035E+02  0.79768361035E+02  0.00000000000E+00 0.  1.
         22   -1    0    0    0    0 -0.00000000000E+00 -0.00000000000E+00 -0.14256093528E+04  0.14256093528E+04  0.00000000000E+00 0.  1.
         24    2    1    2    0    0  0.18219732731E+02  0.19774260908E+02 -0.28321202951E+03  0.29599668811E+03  0.81743535897E+02 0.  0.
         25    2    1    2    0    0 -0.15477133311E+03 -0.40609151222E+02 -0.10261757435E+04  0.10460819828E+04  0.12509032534E+03 0.  0.
        -24    2    1    2    0    0  0.13655160038E+03  0.20834890315E+02 -0.36453218753E+02  0.16329904291E+03  0.79103148091E+02 0.  0.
        -13    1    3    3    0    0  0.32706875548E+01  0.26929234520E+02 -0.27695722530E+03  0.27828256452E+03  0.00000000000E+00 0.  1.
         14    1    3    3    0    0  0.14949045176E+02 -0.71549736125E+01 -0.62548042079E+01  0.17714123595E+02  0.00000000000E+00 0. -1.
         11    1    5    5    0    0  0.22821596674E+02  0.46588966183E+01 -0.42285763360E+02  0.48276457776E+02  0.00000000000E+00 0. -1.
        -12    1    5    5    0    0  0.11373000370E+03  0.16175993697E+02  0.58325446073E+01  0.11502258513E+03  0.00000000000E+00 0.  1.
          5    1    4    4  501    0 -0.39951078803E+01 -0.82036476224E+01 -0.18527166580E+01  0.10206158940E+02  0.41800000000E+01 0.  1.
         -5    1    4    4    0  501 -0.15077622523E+03 -0.32405503600E+02 -0.10243230269E+04  0.10358758239E+04  0.41800000000E+01 0.  1.
</event>
<event>
11    1  0.1003949E-008  0.1650829E+03  0.7561462E-02  0.1082392E+00
         22   -1    0    0    0    0  0.00000000000E+00  0.00000000000E+00  0.16807317584E+04  0.16807317584E+04  0.00000000000E+00 0. -1.
         22   -1    0    0    0    0 -0.00000000000E+00 -0.00000000000E+00 -0.15549882545E+03  0.15549882545E+03  0.00000000000E+00 0. -1.
         24    2    1    2    0    0 -0.11250557517E+03 -0.12644565799E+01 -0.56349864024E+02  0.14903257118E+03  0.79851717594E+02 0.  0.
         25    2    1    2    0    0  0.18099761219E+03  0.77236974096E+02  0.22741825527E+03  0.32571883110E+03  0.12509199941E+03 0.  0.
        -24    2    1    2    0    0 -0.68492037023E+02 -0.75972517516E+02  0.13541645417E+04  0.13614791815E+04  0.96958616200E+02 0.  0.
        -11    1    3    3    0    0  0.15055162495E+01 -0.23192662446E+01  0.14523263062E+02  0.14784138293E+02  0.00000000000E+00 0.  1.
         12    1    3    3    0    0 -0.11401109142E+03  0.10548096646E+01 -0.70873127086E+02  0.13424843289E+03  0.00000000000E+00 0. -1.
         11    1    5    5    0    0 -0.72019314435E+02 -0.49658963324E+02  0.12746735346E+04  0.12776718726E+04  0.00000000000E+00 0. -1.
        -12    1    5    5    0    0  0.35272774114E+01 -0.26313554193E+02  0.79491007113E+02  0.83807308942E+02  0.00000000000E+00 0.  1.
          5    1    4    4  501    0  0.15876067611E+03  0.22420007006E+02  0.11096171835E+03  0.19503226485E+03  0.41800000000E+01 0.  1.
         -5    1    4    4    0  501  0.22236936085E+02  0.54816967090E+02  0.11645653692E+03  0.13068656626E+03  0.41800000000E+01 0.  1.
</event>
<event>
11    1  0.1003949E-008  0.1879792E+03  0.7561462E-02  0.1063365E+00
         22   -1    0    0    0    0  0.00000000000E+00  0.00000000000E+00  0.68786691964E+03  0.68786691964E+03  0.00000000000E+00 0.  1.
         22   -1    0    0    0    0 -0.00000000000E+00 -0.00000000000E+00 -0.30050162797E+03  0.30050162797E+03  0.00000000000E+00 0. -1.
        -24    2    1    2    0    0  0.14249463197E+03  0.11138367356E+02 -0.23962680200E+03  0.29053673106E+03  0.81004965832E+02 0.  0.
         25    2    1    2    0    0 -0.11124041691E+03 -0.46674073961E+02  0.21595659660E+03  0.27719548868E+03  0.12508871968E+03 0.  0.
         24    2    1    2    0    0 -0.31254215058E+02  0.35535706605E+02  0.41103549707E+03  0.42063632787E+03  0.75796623074E+02 0.  0.
        -11    1    5    5    0    0 -0.29510176368E+02  0.22865201755E+02  0.40459984181E+03  0.40631847109E+03  0.00000000000E+00 0.  1.
         12    1    5    5    0    0 -0.17440386901E+01  0.12670504851E+02  0.64356552686E+01  0.14317856783E+02  0.00000000000E+00 0. -1.
         13    1    3    3    0    0  0.80395373344E+02  0.46451791895E+02 -0.13548338813E+03  0.16424656308E+03  0.00000000000E+00 0. -1.
        -14    1    3    3    0    0  0.62099258625E+02 -0.35313424540E+02 -0.10414341387E+03  0.12629016798E+03  0.00000000000E+00 0.  1.
          5    1    4    4  501    0 -0.11082640197E+03 -0.57539585760E+01  0.84768969565E+02  0.13970987801E+03  0.41800000000E+01 0. -1.
         -5    1    4    4    0  501 -0.41401493765E+00 -0.40920115385E+02  0.13118762704E+03  0.13748561066E+03  0.41800000000E+01 0. -1.
</event>
<event>
11    1  0.1003949E-008  0.1303336E+03  0.7561462E-02  0.1118860E+00
         22   -1    0    0    0    0  0.00000000000E+00  0.00000000000E+00  0.91240792618E+03  0.91240792618E+03  0.00000000000E+00 0. -1.
         22   -1    0    0    0    0 -0.00000000000E+00 -0.00000000000E+00 -0.28997756782E+03  0.28997756782E+03  0.00000000000E+00 0. -1.
        -24    2    1    2    0    0 -0.10583316061E+02 -0.16529905502E+02 -0.24202960631E+03  0.25650192208E+03  0.82641765147E+02 0.  0.
         25    2    1    2    0    0 -0.33970176286E+01 -0.18539660280E+02  0.66298337502E+02  0.14282300820E+03  0.12509070063E+03 0.  0.
         24    2    1    2    0    0  0.13980333689E+02  0.35069565782E+02  0.79816162717E+03  0.80306056372E+03  0.80118423184E+02 0.  0.
        -11    1    5    5    0    0  0.81152517107E+01  0.38251494540E+02  0.15473556979E+03  0.15959990822E+03  0.00000000000E+00 0.  1.
         12    1    5    5    0    0  0.58650819785E+01 -0.31819287583E+01  0.64342605739E+03  0.64346065550E+03  0.00000000000E+00 0. -1.
         11    1    3    3    0    0  0.26373813362E+02  0.72299166536E+01 -0.16958223010E+03  0.17177305519E+03  0.00000000000E+00 0. -1.
        -12    1    3    3    0    0 -0.36957129423E+02 -0.23759822156E+02 -0.72447376213E+02  0.84728866889E+02  0.00000000000E+00 0.  1.
          5    1    4    4  501    0  0.10511526565E+02  0.31665325533E+02  0.81690458019E+02  0.88340185438E+02  0.41800000000E+01 0.  1.
         -5    1    4    4    0  501 -0.13908544194E+02 -0.50204985814E+02 -0.15392120517E+02  0.54482822762E+02  0.41800000000E+01 0.  1.
</event>
<event>
11    1  0.1003949E-008  0.1354207E+03  0.7561462E-02  0.1112782E+00
         22   -1    0    0    0    0  0.00000000000E+00  0.00000000000E+00  0.46285675656E+03  0.46285675656E+03  0.00000000000E+00 0.  1.
         22   -1    0    0    0    0 -0.00000000000E+00 -0.00000000000E+00 -0.27157030250E+03  0.27157030250E+03  0.00000000000E+00 0.  1.
        -24    2    1    2    0    0  0.91291005689E+00  0.49225130307E+02 -0.13706203383E+03  0.16641483089E+03  0.80522965460E+02 0.  0.
         25    2    1    2    0    0  0.11624188686E+01  0.51343423548E+01 -0.79206283659E+02  0.14815336215E+03  0.12509224859E+03 0.  0.
         24    2    1    2    0    0 -0.20753289254E+01 -0.54359472662E+02  0.40755477154E+03  0.41985886601E+03  0.84978328454E+02 0.  0.
        -11    1    5    5    0    0 -0.32102245413E+02 -0.14951000186E+02  0.29188067537E+03  0.29402111356E+03  0.00000000000E+00 0.  1.
         12    1    5    5    0    0  0.30026916488E+02 -0.39408472476E+02  0.11567409617E+03  0.12583775245E+03  0.00000000000E+00 0. -1.
         11    1    3    3    0    0 -0.18544128084E+01  0.71258038551E+02 -0.11358458585E+03  0.13409923582E+03  0.00000000000E+00 0. -1.
        -12    1    3    3    0    0  0.27673228653E+01 -0.22032908243E+02 -0.23477447976E+02  0.32315595074E+02  0.00000000000E+00 0.  1.
          5    1    4    4  501    0  0.46177722148E+01 -0.54780310886E+02 -0.66999955096E+02  0.86767924165E+02  0.41800000000E+01 0.  1.
         -5    1    4    4    0  501 -0.34553533462E+01  0.59914653240E+02 -0.12206328562E+02  0.61385437985E+02  0.41800000000E+01 0.  1.
</event>
<event>
11    1  0.1003949E-008  0.1400648E+03  0.7561462E-02  0.1107486E+00
         22   -1    0    0    0    0  0.00000000000E+00  0.00000000000E+00  0.10134285961E+04  0.10134285961E+04  0.00000000000E+00 0. -1.
         22   -1    0    0    0    0 -0.00000000000E+00 -0.00000000000E+00 -0.36249252296E+03  0.36249252296E+03  0.00000000000E+00 0. -1.
        -24    2    1    2    0    0  0.13970060376E+02 -0.66178440732E+02 -0.28911155391E+03  0.30792940104E+03  0.81610519035E+02 0.  0.
         25    2    1    2    0    0 -0.34920545545E+02  0.20879939550E+02  0.86453415574E+01  0.13182539883E+03  0.12509107669E+03 0.  0.
         24    2    1    2    0    0  0.20950485170E+02  0.45298501182E+02  0.93140228547E+03  0.93616631918E+03  0.80039257507E+02 0.  0.
        -11    1    5    5    0    0 -0.27349833973E+02 -0.65239254812E+00  0.30619686146E+03  0.30741658543E+03  0.00000000000E+00 0.  1.
         12    1    5    5    0    0  0.48300319142E+02  0.45950893730E+02  0.62520542402E+03  0.62874973374E+03  0.00000000000E+00 0. -1.
         13    1    3    3    0    0  0.39365560850E+02 -0.69403759212E+02 -0.23216092653E+03  0.24548976553E+03  0.00000000000E+00 0. -1.
        -14    1    3    3    0    0 -0.25395500474E+02  0.32253184799E+01 -0.56950627382E+02  0.62439635511E+02  0.00000000000E+00 0.  1.
          5    1    4    4  501    0 -0.41659295509E+02 -0.15548278356E+02  0.55953605160E+02  0.71592766343E+02  0.41800000000E+01 0.  1.
         -5    1    4    4    0  501  0.67387499642E+01  0.36428217906E+02 -0.47308263603E+02  0.60232632485E+02  0.41800000000E+01 0.  1.
</event>
<event>
11    1  0.1003949E-008  0.1530860E+03  0.7561462E-02  0.1093767E+00
         22   -1    0    0    0    0  0.00000000000E+00  0.00000000000E+00  0.14332122972E+03  0.14332122972E+03  0.00000000000E+00 0.  1.
         22   -1    0    0    0    0 -0.00000000000E+00 -0.00000000000E+00 -0.79880119514E+03  0.79880119514E+03  0.00000000000E+00 0.  1.
         24    2    1    2    0    0  0.37858746333E+02  0.34223296213E+02 -0.36397983665E+03  0.37208315724E+03  0.57965815206E+02 0.  0.
         25    2    1    2    0    0  0.51760689196E+02 -0.17497839160E+02 -0.39025554844E+03  0.41343611486E+03  0.12507871384E+03 0.  0.
        -24    2    1    2    0    0 -0.89619435530E+02 -0.16725457053E+02  0.98755419667E+02  0.15660315277E+03  0.80377424719E+02 0.  0.
        -11    1    3    3    0    0  0.52330596109E+02  0.29784388905E+02 -0.31875366082E+03  0.32439096381E+03  0.00000000000E+00 0.  1.
         12    1    3    3    0    0 -0.14471849776E+02  0.44389073071E+01 -0.45226175830E+02  0.47692193431E+02  0.00000000000E+00 0. -1.
         13    1    5    5    0    0 -0.66543460948E+02  0.17816810926E+02  0.27603081146E+02  0.74211865866E+02  0.00000000000E+00 0. -1.
        -14    1    5    5    0    0 -0.23075974581E+02 -0.34542267979E+02  0.71152338522E+02  0.82391286900E+02  0.00000000000E+00 0.  1.
          5    1    4    4  501    0  0.48081882717E+02 -0.52032027354E+02 -0.36077729449E+03  0.36769134874E+03  0.41800000000E+01 0. -1.
         -5    1    4    4    0  501  0.36788064799E+01  0.34534188194E+02 -0.29478253952E+02  0.45744766120E+02  0.41800000000E+01 0. -1.
</event>
<event>
11    1  0.1003949E-008  0.1444342E+03  0.7561462E-02  0.1102705E+00
         22   -1    0    0    0    0  0.00000000000E+00  0.00000000000E+00  0.33330275464E+03  0.33330275464E+03  0.00000000000E+00 0.  1.
         22   -1    0    0    0    0 -0.00000000000E+00 -0.00000000000E+00 -0.10259163709E+04  0.10259163709E+04  0.00000000000E+00 0. -1.
        -24    2    1    2    0    0  0.57783417628E+02 -0.40703884796E+02 -0.60764620934E+03  0.61687037903E+03  0.79368880576E+02 0.  0.
         25    2    1    2    0    0 -0.93518344458E+02 -0.96036154394E+01 -0.39148359167E+03  0.42159865334E+03  0.12509241292E+03 0.  0.
         24    2    1    2    0    0  0.35734926829E+02  0.50307500235E+02  0.30651618475E+03  0.32075009317E+03  0.71558515765E+02 0.  0.
        -13    1    5    5    0    0  0.47351734636E+02  0.18896146086E+02  0.24924180455E+03  0.25440268915E+03  0.00000000000E+00 0.  1.
         14    1    5    5    0    0 -0.11616807807E+02  0.31411354149E+02  0.57274380203E+02  0.66347404024E+02  0.00000000000E+00 0. -1.
         13    1    3    3    0    0  0.12675037062E+02 -0.44200195627E+02 -0.46387215017E+03  0.46614556264E+03  0.00000000000E+00 0. -1.
        -14    1    3    3    0    0  0.45108380566E+02  0.34963108311E+01 -0.14377405917E+03  0.15072481639E+03  0.00000000000E+00 0.  1.
          5    1    4    4  501    0 -0.58971800783E+02 -0.31353174956E+02 -0.67581697852E+02  0.95107587247E+02  0.41800000000E+01 0. -1.
         -5    1    4    4    0  501 -0.34546543674E+02  0.21749559516E+02 -0.32390189382E+03  0.32649106609E+03  0.41800000000E+01 0. -1.
</event>
<event>
11    1  0.1003949E-008  0.1358797E+03  0.7561462E-02  0.1112249E+00
         22   -1    0    0    0    0  0.00000000000E+00  0.00000000000E+00  0.58853004709E+03  0.58853004709E+03  0.00000000000E+00 0. -1.
         22   -1    0    0    0    0 -0.00000000000E+00 -0.00000000000E+00 -0.41569876234E+03  0.41569876234E+03  0.00000000000E+00 0. -1.
        -24    2    1    2    0    0 -0.54277320344E+02 -0.71730224946E+01 -0.38106778638E+03  0.39562225681E+03  0.91141826370E+02 0.  0.
         25    2    1    2    0    0  0.81546706530E+01  0.17930176454E+02  0.16151978405E+03  0.20524227273E+03  0.12509100686E+03 0.  0.
         24    2    1    2    0    0  0.46122649691E+02 -0.10757153960E+02  0.39237928707E+03  0.40336427989E+03  0.80611551232E+02 0.  0.
        -11    1    5    5    0    0  0.16531687842E+02  0.23742592075E+02  0.48344030300E+02  0.56339618804E+02  0.00000000000E+00 0.  1.
         12    1    5    5    0    0  0.29590961849E+02 -0.34499746035E+02  0.34403525677E+03  0.34702466109E+03  0.00000000000E+00 0. -1.
         13    1    3    3    0    0  0.20294535352E+02 -0.18156207076E+02 -0.15348089693E+03  0.15587784238E+03  0.00000000000E+00 0. -1.
        -14    1    3    3    0    0 -0.74571855696E+02  0.10983184581E+02 -0.22758688944E+03  0.23974441443E+03  0.00000000000E+00 0.  1.
          5    1    4    4  501    0 -0.61249581423E+01  0.70128625489E+02  0.10823184657E+03  0.12917872982E+03  0.41800000000E+01 0.  1.
         -5    1    4    4    0  501  0.14279628795E+02 -0.52198449035E+02  0.53287937480E+02  0.76063542917E+02  0.41800000000E+01 0.  1.
</event>
<event>
11    1  0.1003949E-008  0.1802957E+03  0.7561462E-02  0.1069404E+00
         22   -1    0    0    0    0  0.00000000000E+00  0.00000000000E+00  0.13357910384E+03  0.13357910384E+03  0.00000000000E+00 0. -1.
         22   -1    0    0    0    0 -0.00000000000E+00 -0.00000000000E+00 -0.79763021218E+03  0.79763021218E+03  0.00000000000E+00 0.  1.
         24    2    1    2    0    0 -0.23921831321E+02 -0.12950858880E+03 -0.49840897740E+03  0.52168603667E+03  0.80000522002E+02 0.  0.
         25    2    1    2    0    0  0.12443265619E+03  0.17832031411E+02 -0.16123010790E+03  0.23967456767E+03  0.12508910193E+03 0.  0.
        -24    2    1    2    0    0 -0.10051082487E+03  0.11167655739E+03 -0.44120230424E+01  0.16984871168E+03  0.79088807834E+02 0.  0.
        -11    1    3    3    0    0 -0.45236276178E+02 -0.44690243105E+02 -0.26238166567E+03  0.26997717864E+03  0.00000000000E+00 0.  1.
         12    1    3    3    0    0  0.21314444857E+02 -0.84818345693E+02 -0.23602731173E+03  0.25170885803E+03  0.00000000000E+00 0. -1.
         11    1    5    5    0    0 -0.98919536679E+02  0.82416309460E+02 -0.28553137864E+02  0.13188178223E+03  0.00000000000E+00 0. -1.
        -12    1    5    5    0    0 -0.15912881914E+01  0.29260247927E+02  0.24141114821E+02  0.37966929447E+02  0.00000000000E+00 0.  1.
          5    1    4    4  501    0  0.12234788290E+02 -0.50570289744E+01 -0.11545152120E+03  0.11628323067E+03  0.41800000000E+01 0.  1.
         -5    1    4    4    0  501  0.11219786790E+03  0.22889060386E+02 -0.45778586701E+02  0.12339133700E+03  0.41800000000E+01 0.  1.
</event>
<event>
11    1  0.1003949E-008  0.2326170E+03  0.7561462E-02  0.1033590E+00
         22   -1    0    0    0    0  0.00000000000E+00  0.00000000000E+00  0.50009949280E+03  0.50009949280E+03  0.00000000000E+00 0.  1.
         22   -1    0    0    0    0 -0.00000000000E+00 -0.00000000000E+00 -0.19603055321E+04  0.19603055321E+04  0.00000000000E+00 0.  1.
         24    2    1    2    0    0 -0.67169557609E+02  0.18698409877E+03 -0.16881349753E+04  0.17016851298E+04  0.80360335933E+02 0.  0.
         25    2    1    2    0    0  0.16364097573E+02 -0.18290221888E+03 -0.21319086173E+03  0.30791509933E+03  0.12506142297E+03 0.  0.
        -24    2    1    2    0    0  0.50805460036E+02 -0.40818798947E+01  0.44111979776E+03  0.45080479569E+03  0.77720211842E+02 0.  0.
        -11    1    3    3    0    0 -0.49220293580E+02  0.16249538323E+03 -0.15879293345E+04  0.15969805754E+04  0.00000000000E+00 0.  1.
         12    1    3    3    0    0 -0.17949264029E+02  0.24488715543E+02 -0.10020564079E+03  0.10470455441E+03  0.00000000000E+00 0. -1.
         13    1    5    5    0    0  0.40847966446E+02 -0.13707503720E+02  0.93949944388E+02  0.10335881226E+03  0.00000000000E+00 0. -1.
        -14    1    5    5    0    0  0.99574935907E+01  0.96256238251E+01  0.34716985338E+03  0.34744598344E+03  0.00000000000E+00 0.  1.
          5    1    4    4  501    0  0.28492046165E+02 -0.15947460884E+03 -0.22615764677E+03  0.27822419225E+03  0.41800000000E+01 0.  1.
         -5    1    4    4    0  501 -0.12127948592E+02 -0.23427610034E+02  0.12966785046E+02  0.29690907083E+02  0.41800000000E+01 0.  1.
</event>
<event>
11    1  0.1003949E-008  0.1317858E+03  0.7561462E-02  0.1117094E+00
         22   -1    0    0    0    0  0.00000000000E+00  0.00000000000E+00  0.23811861598E+04  0.23811861598E+04  0.00000000000E+00 0. -1.
         22   -1    0    0    0    0 -0.00000000000E+00 -0.00000000000E+00 -0.60890335320E+02  0.60890335320E+02  0.00000000000E+00 0. -1.
         24    2    1    2    0    0 -0.24979727560E+02  0.24534426819E+02  0.19780137657E+02  0.10737318340E+03  0.99558132668E+02 0.  0.
         25    2    1    2    0    0  0.30932017583E+02 -0.75851868118E+02  0.33548806348E+03  0.36730111262E+03  0.12509025135E+03 0.  0.
        -24    2    1    2    0    0 -0.59522900233E+01  0.51317441299E+02  0.19650276234E+04  0.19674021991E+04  0.81663596472E+02 0.  0.
        -13    1    3    3    0    0 -0.62327753173E+00 -0.15006634599E+02  0.49839341491E+02  0.52053314180E+02  0.00000000000E+00 0.  1.
         14    1    3    3    0    0 -0.24356450028E+02  0.39541061418E+02 -0.30059203833E+02  0.55319869225E+02  0.00000000000E+00 0. -1.
         11    1    5    5    0    0 -0.22150377028E+02  0.66990950676E+02  0.12241016930E+04  0.12261335088E+04  0.00000000000E+00 0. -1.
        -12    1    5    5    0    0  0.16198087004E+02 -0.15673509376E+02  0.74092593038E+03  0.74126869030E+03  0.00000000000E+00 0.  1.
          5    1    4    4  501    0  0.50550695063E+02 -0.54726734191E+02  0.77169785769E+02  0.10734540718E+03  0.41800000000E+01 0. -1.
         -5    1    4    4    0  501 -0.19618677480E+02 -0.21125133927E+02  0.25831827771E+03  0.25995570544E+03  0.41800000000E+01 0. -1.
</event>
<event>
11    1  0.1003949E-008  0.1463716E+03  0.7561462E-02  0.1100645E+00
         22   -1    0    0    0    0  0.00000000000E+00  0.00000000000E+00  0.23735379928E+03  0.23735379928E+03  0.00000000000E+00 0.  1.
         22   -1    0    0    0    0 -0.00000000000E+00 -0.00000000000E+00 -0.71668430377E+03  0.71668430377E+03  0.00000000000E+00 0. -1.
        -24    2    1    2    0    0 -0.35682085458E+02  0.69464619665E+02 -0.47868728353E+03  0.49151846620E+03  0.79689036896E+02 0.  0.
         25    2    1    2    0    0 -0.70502247923E+01 -0.77327192440E+02 -0.19273964817E+03  0.24253989093E+03  0.12509127210E+03 0.  0.
         24    2    1    2    0    0  0.42732310250E+02  0.78625727750E+01  0.19209642721E+03  0.21997974592E+03  0.97990718326E+02 0.  0.
        -11    1    5    5    0    0  0.65715375276E+02  0.12733451880E+01  0.18291972523E+03  0.19437015675E+03  0.00000000000E+00 0.  1.
         12    1    5    5    0    0 -0.22983065026E+02  0.65892275870E+01  0.91767019734E+01  0.25609589167E+02  0.00000000000E+00 0. -1.
         11    1    3    3    0    0 -0.19700124389E+02 -0.55654731415E+01 -0.23852176536E+03  0.23939862561E+03  0.00000000000E+00 0. -1.
        -12    1    3    3    0    0 -0.15981961069E+02  0.75030092806E+02 -0.24016551817E+03  0.25211984060E+03  0.00000000000E+00 0.  1.
          5    1    4    4  501    0  0.27683207288E+02 -0.70800432702E+02 -0.40580848251E+02  0.86274787055E+02  0.41800000000E+01 0.  1.
         -5    1    4    4    0  501 -0.34733432080E+02 -0.65267597377E+01 -0.15215879992E+03  0.15626510387E+03  0.41800000000E+01 0.  1.
</event>
<event>
11    1  0.1003949E-008  0.1498778E+03  0.7561462E-02  0.1097004E+00
         22   -1    0    0    0    0  0.00000000000E+00  0.00000000000E+00  0.12286908992E+04  0.12286908992E+04  0.00000000000E+00 0. -1.
         22   -1    0    0    0    0 -0.00000000000E+00 -0.00000000000E+00 -0.12712615626E+04  0.12712615626E+04  0.00000000000E+00 0. -1.
         24    2    1    2    0    0  0.55446027480E+02  0.24483092026E+02 -0.11548103139E+04  0.11591632863E+04  0.79993622145E+02 0.  0.
         25    2    1    2    0    0  0.26918909443E+02 -0.40039478862E+02 -0.71050914147E+02  0.15173108749E+03  0.12508518280E+03 0.  0.
        -24    2    1    2    0    0 -0.82364936922E+02  0.15556386837E+02  0.11832905646E+04  0.11890580880E+04  0.81587943383E+02 0.  0.
        -11    1    3    3    0    0 -0.11875109935E+02 -0.16772062619E+02 -0.18283050435E+03  0.18398182965E+03  0.00000000000E+00 0.  1.
         12    1    3    3    0    0  0.67321137415E+02  0.41255154645E+02 -0.97197980951E+03  0.97518145667E+03  0.00000000000E+00 0. -1.
         11    1    5    5    0    0 -0.83672754570E+02  0.30306221326E+01  0.62013491068E+03  0.62576163351E+03  0.00000000000E+00 0. -1.
        -12    1    5    5    0    0  0.13078176479E+01  0.12525764704E+02  0.56315565390E+03  0.56329645454E+03  0.00000000000E+00 0.  1.
          5    1    4    4  501    0  0.45399395601E+02  0.28838163405E+02 -0.45593091570E+01  0.54138752198E+02  0.41800000000E+01 0.  1.
         -5    1    4    4    0  501 -0.18480486159E+02 -0.68877642268E+02 -0.66491604990E+02  0.97592335289E+02  0.41800000000E+01 0.  1.
</event>
<event>
11    1  0.1003949E-008  0.1740321E+03  0.7561462E-02  0.1074575E+00
         22   -1    0    0    0    0  0.00000000000E+00  0.00000000000E+00  0.52446471469E+03  0.52446471469E+03  0.00000000000E+00 0. -1.
         22   -1    0    0    0    0 -0.00000000000E+00 -0.00000000000E+00 -0.98347810360E+02  0.98347810360E+02  0.00000000000E+00 0.  1.
        -24    2    1    2    0    0 -0.11660954286E+03 -0.56554969662E+02  0.48897493227E+02  0.16083511597E+03  0.81735669111E+02 0.  0.
         25    2    1    2    0    0  0.10931959620E+03 -0.86541033261E+01  0.25449666141E+03  0.30404265077E+03  0.12509082782E+03 0.  0.
         24    2    1    2    0    0  0.72899466600E+01  0.65209072988E+02  0.12272274970E+03  0.15793475831E+03  0.74680305755E+02 0.  0.
        -11    1    5    5    0    0  0.11474943362E+02  0.46975169411E+02  0.18068937685E+02  0.51621966016E+02  0.00000000000E+00 0.  1.
         12    1    5    5    0    0 -0.41849967020E+01  0.18233903577E+02  0.10465381201E+03  0.10631279230E+03  0.00000000000E+00 0. -1.
         11    1    3    3    0    0 -0.11302488081E+03 -0.21259366213E+02  0.49848151579E+02  0.12534521351E+03  0.00000000000E+00 0. -1.
        -12    1    3    3    0    0 -0.35846620432E+01 -0.35295603449E+02 -0.95065835168E+00  0.35489902453E+02  0.00000000000E+00 0.  1.
          5    1    4    4  501    0  0.11577282609E+03 -0.33311402332E+02  0.13160710441E+03  0.17846820198E+03  0.41800000000E+01 0. -1.
         -5    1    4    4    0  501 -0.64532298971E+01  0.24657299006E+02  0.12288955700E+03  0.12557444879E+03  0.41800000000E+01 0. -1.
</event>
<event>
11    1  0.1003949E-008  0.1794280E+03  0.7561462E-02  0.1070106E+00
         22   -1    0    0    0    0  0.00000000000E+00  0.00000000000E+00  0.11637571170E+03  0.11637571170E+03  0.00000000000E+00 0.  1.
         22   -1    0    0    0    0 -0.00000000000E+00 -0.00000000000E+00 -0.18231935313E+04  0.18231935313E+04  0.00000000000E+00 0.  1.
        -24    2    1    2    0    0  0.12657944878E+03 -0.95815547156E+01 -0.14676135688E+04  0.14750725253E+04  0.76388510649E+02 0.  0.
         25    2    1    2    0    0 -0.14133259271E+03 -0.10710744771E+01 -0.30420570680E+03  0.35799794880E+03  0.12508145481E+03 0.  0.
         24    2    1    2    0    0  0.14753143931E+02  0.10652629193E+02  0.65001456019E+02  0.10649876886E+03  0.82375146254E+02 0.  0.
        -11    1    5    5    0    0  0.46799195277E+01 -0.64437073607E+01  0.80764720602E+02  0.81156411362E+02  0.00000000000E+00 0.  1.
         12    1    5    5    0    0  0.10073224403E+02  0.17096336553E+02 -0.15763264583E+02  0.25342357502E+02  0.00000000000E+00 0. -1.
         11    1    3    3    0    0 -0.13700995131E+01  0.65409518131E+01 -0.11822537993E+02  0.13580634297E+02  0.00000000000E+00 0. -1.
        -12    1    3    3    0    0  0.12794954829E+03 -0.16122506529E+02 -0.14557910308E+04  0.14614918910E+04  0.00000000000E+00 0.  1.
          5    1    4    4  501    0 -0.54963406246E+02 -0.32188117543E+02 -0.23344096957E+03  0.24201076342E+03  0.41800000000E+01 0. -1.
         -5    1    4    4    0  501 -0.86369186461E+02  0.31117043066E+02 -0.70764737232E+02  0.11598718539E+03  0.41800000000E+01 0. -1.
</event>
<event>
11    1  0.1003949E-008  0.1476954E+03  0.7561462E-02  0.1099257E+00
         22   -1    0    0    0    0  0.00000000000E+00  0.00000000000E+00  0.10806907508E+04  0.10806907508E+04  0.00000000000E+00 0. -1.
         22   -1    0    0    0    0 -0.00000000000E+00 -0.00000000000E+00 -0.88866691056E+02  0.88866691056E+02  0.00000000000E+00 0.  1.
        -24    2    1    2    0    0  0.31026253391E+02 -0.16475856809E+02 -0.45018949522E+02  0.99853645579E+02  0.81914360538E+02 0.  0.
         25    2    1    2    0    0  0.51673371998E+02  0.44705024592E+02  0.50167656238E+03  0.52153180874E+03  0.12508947872E+03 0.  0.
         24    2    1    2    0    0 -0.82699625388E+02 -0.28229167783E+02  0.53516644693E+03  0.54817198759E+03  0.80332360220E+02 0.  0.
        -13    1    5    5    0    0 -0.95743053621E+02 -0.10802716031E+02  0.45596446362E+03  0.46603328537E+03  0.00000000000E+00 0.  1.
         14    1    5    5    0    0  0.13043428233E+02 -0.17426451753E+02  0.79201983319E+02  0.82138702220E+02  0.00000000000E+00 0. -1.
         11    1    3    3    0    0  0.43157560248E+02  0.16310838081E+02 -0.45270744302E+01  0.46358525088E+02  0.00000000000E+00 0. -1.
        -12    1    3    3    0    0 -0.12131306858E+02 -0.32786694889E+02 -0.40491875092E+02  0.53495120491E+02  0.00000000000E+00 0.  1.
          5    1    4    4  501    0  0.32954077788E+01  0.76033138226E+02  0.19323556518E+03  0.20772422553E+03  0.41800000000E+01 0.  1.
         -5    1    4    4    0  501  0.48377964219E+02 -0.31328113633E+02  0.30844099720E+03  0.31380758321E+03  0.41800000000E+01 0.  1.
</event>
<event>
11    1  0.1003949E-008  0.2878915E+03  0.7561462E-02  0.1005450E+00
         22   -1    0    0    0    0  0.00000000000E+00  0.00000000000E+00  0.97176290584E+03  0.97176290584E+03  0.00000000000E+00 0. -1.
         22   -1    0    0    0    0 -0.00000000000E+00 -0.00000000000E+00 -0.46944720509E+03  0.46944720509E+03  0.00000000000E+00 0. -1.
         24    2    1    2    0    0 -0.28209242578E+02 -0.16549224124E+02 -0.35729274975E+03  0.36755235188E+03  0.79793384192E+02 0.  0.
         25    2    1    2    0    0  0.27679448808E+03  0.57023722870E+02  0.21384629086E+03  0.37582571941E+03  0.12509133322E+03 0.  0.
        -24    2    1    2    0    0 -0.24858524551E+03 -0.40474498746E+02  0.64576215964E+03  0.69783203965E+03  0.80795912123E+02 0.  0.
        -13    1    3    3    0    0  0.26190458779E+02  0.28303086443E+01 -0.77273160609E+02  0.81640015486E+02  0.00000000000E+00 0.  1.
         14    1    3    3    0    0 -0.54399701357E+02 -0.19379532768E+02 -0.28001958914E+03  0.28591233639E+03  0.00000000000E+00 0. -1.
         11    1    5    5    0    0 -0.13207387475E+03  0.94747484060E+01  0.39925306617E+03  0.42063795608E+03  0.00000000000E+00 0. -1.
        -12    1    5    5    0    0 -0.11651137075E+03 -0.49949247152E+02  0.24650909347E+03  0.27719408358E+03  0.00000000000E+00 0.  1.
          5    1    4    4  501    0  0.27909928824E+03  0.71216631484E+02  0.18230847477E+03  0.34091358681E+03  0.41800000000E+01 0.  1.
         -5    1    4    4    0  501 -0.23048001581E+01 -0.14192908614E+02  0.31537816089E+02  0.34912132595E+02  0.41800000000E+01 0.  1.
</event>
<event>
11    1  0.1003949E-008  0.1360097E+03  0.7561462E-02  0.1112098E+00
         22   -1    0    0    0    0  0.00000000000E+00  0.00000000000E+00  0.97419968746E+03  0.97419968746E+03  0.00000000000E+00 0. -1.
         22   -1    0    0    0    0 -0.00000000000E+00 -0.00000000000E+00 -0.23337217039E+03  0.23337217039E+03  0.00000000000E+00 0.  1.
        -24    2    1    2    0    0 -0.48254606222E+02  0.24331541742E+02 -0.20445723333E+03  0.22657161749E+03  0.81310556792E+02 0.  0.
         25    2    1    2    0    0  0.42422498748E+02  0.26633118653E+01  0.26904179407E+03  0.29972907253E+03  0.12508904163E+03 0.  0.
         24    2    1    2    0    0  0.58321074742E+01 -0.26994853607E+02  0.67624295633E+03  0.68127116782E+03  0.77866119202E+02 0.  0.
        -13    1    5    5    0    0  0.25512650026E+02 -0.14910161832E+02  0.93231250721E+02  0.97802220569E+02  0.00000000000E+00 0.  1.
         14    1    5    5    0    0 -0.19680542552E+02 -0.12084691775E+02  0.58301170561E+03  0.58346894725E+03  0.00000000000E+00 0. -1.
         13    1    3    3    0    0  0.21922539451E+02  0.14449108320E+02 -0.66003819712E+02  0.71034348620E+02  0.00000000000E+00 0. -1.
        -14    1    3    3    0    0 -0.70177145673E+02  0.98824334225E+01 -0.13845341362E+03  0.15553726887E+03  0.00000000000E+00 0.  1.
          5    1    4    4  501    0  0.28895901859E+02 -0.51874006997E+02  0.65389485584E+02  0.88425917983E+02  0.41800000000E+01 0.  1.
         -5    1    4    4    0  501  0.13526596889E+02  0.54537318862E+02  0.20365230849E+03  0.21130315455E+03  0.41800000000E+01 0.  1.
</event>
<event>
11    1  0.1750235E-008  0.1869087E+03  0.7561462E-02  0.1064188E+00
         22   -1    0    0    0    0  0.00000000000E+00  0.00000000000E+00  0.43066190636E+03  0.43066190636E+03  0.00000000000E+00 0. -1.
         22   -1    0    0    0    0 -0.00000000000E+00 -0.00000000000E+00 -0.97851853116E+03  0.97851853116E+03  0.00000000000E+00 0. -1.
         24    2    1    2    0    0 -0.66686122558E+00  0.23003071149E+02 -0.47360875465E+03  0.48108967959E+03  0.81316919117E+02 0.  0.
         25    2    1    2    0    0 -0.56313985283E+02 -0.14894085879E+03 -0.46435114759E+03  0.50658134181E+03  0.12509205907E+03 0.  0.
        -24    2    1    2    0    0  0.56980846509E+02  0.12593778765E+03  0.39010327744E+03  0.42150941612E+03  0.79890409851E+02 0.  0.
        -11    1    3    3    0    0 -0.25537742148E+02 -0.33656260501E+00 -0.50333224224E+02  0.56442209464E+02  0.00000000000E+00 0.  1.
         12    1    3    3    0    0  0.24870880922E+02  0.23339633754E+02 -0.42327553043E+03  0.42464747012E+03  0.00000000000E+00 0. -1.
         11    1    5    5    0    0  0.37682787713E+01  0.86436150125E+02  0.27936476470E+03  0.29245526108E+03  0.00000000000E+00 0. -1.
        -12    1    5    5    0    0  0.53212567737E+02  0.39501637520E+02  0.11073851273E+03  0.12905415504E+03  0.00000000000E+00 0.  1.
          5    1    4    4  501    0 -0.20514780045E+02 -0.69005279733E+02 -0.37319220014E+03  0.38009535051E+03  0.41800000000E+01 0. -1.
         -5    1    4    4    0  501 -0.35799205238E+02 -0.79935579062E+02 -0.91158947453E+02  0.12648599131E+03  0.41800000000E+01 0. -1.
</event>
<event>
11    1  0.1003949E-008  0.1568371E+03  0.7561462E-02  0.1090090E+00
         22   -1    0    0    0    0  0.00000000000E+00  0.00000000000E+00  0.12499245293E+04  0.12499245293E+04  0.00000000000E+00 0. -1.
         22   -1    0    0    0    0 -0.00000000000E+00 -0.00000000000E+00 -0.52409638695E+03  0.52409638695E+03  0.00000000000E+00 0. -1.
         24    2    1    2    0    0  0.54189803505E+02  0.22319799803E+02 -0.46603246190E+03  0.47849901315E+03  0.91325471693E+02 0.  0.
         25    2    1    2    0    0 -0.14466216919E+03 -0.16317872429E+02  0.14401510581E+03  0.23996153435E+03  0.12509105128E+03 0.  0.
        -24    2    1    2    0    0  0.90472365685E+02 -0.60019273739E+01  0.10478454985E+04  0.10555603688E+04  0.89477546938E+02 0.  0.
        -11    1    3    3    0    0 -0.87922276468E+01 -0.21530262767E+02 -0.46346983899E+02  0.51854588981E+02  0.00000000000E+00 0.  1.
         12    1    3    3    0    0  0.62982031152E+02  0.43850062570E+02 -0.41968547800E+03  0.42664442417E+03  0.00000000000E+00 0. -1.
         13    1    5    5    0    0  0.80930289737E+02 -0.17277285729E+02  0.10251293007E+04  0.10284640487E+04  0.00000000000E+00 0. -1.
        -14    1    5    5    0    0  0.95420759479E+01  0.11275358355E+02  0.22716197828E+02  0.27096320104E+02  0.00000000000E+00 0.  1.
          5    1    4    4  501    0  0.17164349899E+02  0.10082789385E+02  0.42371885495E+02  0.47001347104E+02  0.41800000000E+01 0. -1.
         -5    1    4    4    0  501 -0.16182651909E+03 -0.26400661814E+02  0.10164322031E+03  0.19296018724E+03  0.41800000000E+01 0. -1.
</event>
<event>
11    1  0.1003949E-008  0.1583384E+03  0.7561462E-02  0.1088651E+00
         22   -1    0    0    0    0  0.00000000000E+00  0.00000000000E+00  0.20875955288E+03  0.20875955288E+03  0.00000000000E+00 0. -1.
         22   -1    0    0    0    0 -0.00000000000E+00 -0.00000000000E+00 -0.19382848369E+04  0.19382848369E+04  0.00000000000E+00 0.  1.
         24    2    1    2    0    0 -0.20269877300E+01 -0.98821072766E+02 -0.16585748239E+04  0.16634378436E+04  0.79908071831E+02 0.  0.
         25    2    1    2    0    0  0.97798664995E+02  0.75823833367E+02 -0.22380342893E+03  0.28469217525E+03  0.12509127574E+03 0.  0.
        -24    2    1    2    0    0 -0.95771677265E+02  0.22997239399E+02  0.15285296877E+03  0.19891437098E+03  0.80633800189E+02 0.  0.
        -13    1    3    3    0    0  0.10447166796E+01  0.18963609857E+01 -0.61624369942E+03  0.61624750279E+03  0.00000000000E+00 0.  1.
         14    1    3    3    0    0 -0.30717044096E+01 -0.10071743375E+03 -0.10423311245E+04  0.10471903408E+04  0.00000000000E+00 0. -1.
         13    1    5    5    0    0 -0.10474648093E+03  0.16228267523E+02  0.15469288991E+03  0.18752352418E+03  0.00000000000E+00 0. -1.
        -14    1    5    5    0    0  0.89748036598E+01  0.67689718759E+01 -0.18399211355E+01  0.11390846798E+02  0.00000000000E+00 0.  1.
          5    1    4    4  501    0 -0.28504486806E+02  0.27451355833E+02 -0.39703355606E+02  0.56213090571E+02  0.41800000000E+01 0. -1.
         -5    1    4    4    0  501  0.12630315180E+03  0.48372477534E+02 -0.18410007333E+03  0.22847908468E+03  0.41800000000E+01 0. -1.
</event>
<event>
11    1  0.1003949E-008  0.1381834E+03  0.7561462E-02  0.1109604E+00
         22   -1    0    0    0    0  0.00000000000E+00  0.00000000000E+00  0.48333343729E+03  0.48333343729E+03  0.00000000000E+00 0.  1.
         22   -1    0    0    0    0 -0.00000000000E+00 -0.00000000000E+00 -0.57428714384E+03  0.57428714384E+03  0.00000000000E+00 0.  1.
         24    2    1    2    0    0 -0.58902210645E+02  0.21702220025E+02 -0.46274037216E+03  0.47378764583E+03  0.80035145652E+02 0.  0.
         25    2    1    2    0    0  0.58869123464E+01 -0.51039667570E+02 -0.54367839681E+02  0.14575084756E+03  0.12509094359E+03 0.  0.
        -24    2    1    2    0    0  0.53015298298E+02  0.29337447545E+02  0.42615450530E+03  0.43808208775E+03  0.81467450782E+02 0.  0.
        -13    1    3    3    0    0 -0.31233206300E+02 -0.22706949551E+02 -0.30864607922E+03  0.31105228010E+03  0.00000000000E+00 0.  1.
         14    1    3    3    0    0 -0.27669004345E+02  0.44409169576E+02 -0.15409429294E+03  0.16273536573E+03  0.00000000000E+00 0. -1.
         13    1    5    5    0    0  0.44888383803E+02 -0.85056788095E+01  0.10376822024E+03  0.11338058521E+03  0.00000000000E+00 0. -1.
        -14    1    5    5    0    0  0.81269144956E+01  0.37843126355E+02  0.32238628506E+03  0.32470150253E+03  0.00000000000E+00 0.  1.
          5    1    4    4  501    0 -0.26767864180E+02 -0.68349542238E+02  0.71425255878E+01  0.73869253067E+02  0.41800000000E+01 0. -1.
         -5    1    4    4    0  501  0.32654776526E+02  0.17309874668E+02 -0.61510365269E+02  0.71881594490E+02  0.41800000000E+01 0. -1.
</event>
<event>
11    1  0.1003949E-008  0.1953111E+03  0.7561462E-02  0.1057890E+00
         22   -1    0    0    0    0  0.00000000000E+00  0.00000000000E+00  0.40318072922E+03  0.40318072922E+03  0.00000000000E+00 0. -1.
         22   -1    0    0    0    0 -0.00000000000E+00 -0.00000000000E+00 -0.26236315121E+04  0.26236315121E+04  0.00000000000E+00 0. -1.
         24    2    1    2    0    0 -0.14085355754E+03  0.38207879739E+02 -0.23443996320E+04  0.23507994770E+04  0.93535981183E+02 0.  0.
         25    2    1    2    0    0  0.22124624251E+03 -0.87029429003E+02 -0.19637282945E+03  0.33276593449E+03  0.12508740013E+03 0.  0.
        -24    2    1    2    0    0 -0.80392684975E+02  0.48821549263E+02  0.32032167863E+03  0.34324682979E+03  0.79786470594E+02 0.  0.
        -11    1    3    3    0    0  0.99880504105E+01 -0.10564082789E+02 -0.23699193964E+03  0.23743744534E+03  0.00000000000E+00 0.  1.
         12    1    3    3    0    0 -0.15084160795E+03  0.48771962528E+02 -0.21074076924E+04  0.21133620317E+04  0.00000000000E+00 0. -1.
         13    1    5    5    0    0  0.61458232639E+01 -0.87346834284E+01  0.89142014179E+02  0.89779532913E+02  0.00000000000E+00 0. -1.
        -14    1    5    5    0    0 -0.86538508239E+02  0.57556232692E+02  0.23117966445E+03  0.25346729687E+03  0.00000000000E+00 0.  1.
          5    1    4    4  501    0  0.16277583434E+03 -0.97517304527E+01 -0.16190103142E+03  0.22982707601E+03  0.41800000000E+01 0. -1.
         -5    1    4    4    0  501  0.58470408170E+02 -0.77277698550E+02 -0.34471798027E+02  0.10293885847E+03  0.41800000000E+01 0. -1.
</event>
<event>
11    1  0.1003949E-008  0.1400900E+03  0.7561462E-02  0.1107458E+00
         22   -1    0    0    0    0  0.00000000000E+00  0.00000000000E+00  0.11327298217E+03  0.11327298217E+03  0.00000000000E+00 0. -1.
         22   -1    0    0    0    0 -0.00000000000E+00 -0.00000000000E+00 -0.13932943871E+04  0.13932943871E+04  0.00000000000E+00 0.  1.
         24    2    1    2    0    0  0.15368935661E+01 -0.14946160905E+02 -0.12546110627E+04  0.12574271906E+04  0.82755490743E+02 0.  0.
         25    2    1    2    0    0  0.32371243630E+02 -0.43492848609E+02 -0.41402741669E+02  0.14248058264E+03  0.12508798551E+03 0.  0.
        -24    2    1    2    0    0 -0.33908137196E+02  0.58439009513E+02  0.15992399415E+02  0.10665959606E+03  0.80966863536E+02 0.  0.
        -11    1    3    3    0    0  0.39403816130E+02  0.49524251413E+01 -0.72753536515E+03  0.72861848370E+03  0.00000000000E+00 0.  1.
         12    1    3    3    0    0 -0.37866922564E+02 -0.19898586046E+02 -0.52707569755E+03  0.52880870690E+03  0.00000000000E+00 0. -1.
         13    1    5    5    0    0 -0.30059499420E+02  0.48826901743E+02  0.46892316358E+02  0.74071108893E+02  0.00000000000E+00 0. -1.
        -14    1    5    5    0    0 -0.38486377762E+01  0.96121077704E+01 -0.30899916943E+02  0.32588487164E+02  0.00000000000E+00 0.  1.
          5    1    4    4  501    0  0.15580782644E+02  0.35380112818E+02 -0.47636595527E+02  0.61491713297E+02  0.41800000000E+01 0.  1.
         -5    1    4    4    0  501  0.16790460986E+02 -0.78872961427E+02  0.62338538577E+01  0.80988869348E+02  0.41800000000E+01 0.  1.
</event>
<event>
11    1  0.1003949E-008  0.1417535E+03  0.7561462E-02  0.1105616E+00
         22   -1    0    0    0    0  0.00000000000E+00  0.00000000000E+00  0.31749626542E+03  0.31749626542E+03  0.00000000000E+00 0. -1.
         22   -1    0    0    0    0 -0.00000000000E+00 -0.00000000000E+00 -0.11772700251E+04  0.11772700251E+04  0.00000000000E+00 0. -1.
        -24    2    1    2    0    0  0.54865312210E+02  0.37845436532E+02 -0.10715783488E+04  0.10767424324E+04  0.81557516935E+02 0.  0.
         25    2    1    2    0    0 -0.44649884241E+02 -0.53475541489E+02 -0.43508480026E+02  0.14964681463E+03  0.12509170874E+03 0.  0.
         24    2    1    2    0    0 -0.10215427969E+02  0.15630104957E+02  0.25531306911E+03  0.26837704353E+03  0.80578031051E+02 0.  0.
        -11    1    5    5    0    0 -0.81392704676E+01 -0.67874637644E+01 -0.13898801355E+01  0.10688739630E+02  0.00000000000E+00 0.  1.
         12    1    5    5    0    0 -0.20761575013E+01  0.22417568721E+02  0.25670294924E+03  0.25768830390E+03  0.00000000000E+00 0. -1.
         11    1    3    3    0    0  0.31224128204E+02  0.31906009605E+02 -0.10024275914E+04  0.10034211557E+04  0.00000000000E+00 0. -1.
        -12    1    3    3    0    0  0.23641184006E+02  0.59394269272E+01 -0.69150757356E+02  0.73321276696E+02  0.00000000000E+00 0.  1.
          5    1    4    4  501    0  0.39465159249E+02 -0.35229572602E+02 -0.33828427065E+02  0.62932157582E+02  0.41800000000E+01 0. -1.
         -5    1    4    4    0  501 -0.84115043490E+02 -0.18245968887E+02 -0.96800529613E+01  0.86714657050E+02  0.41800000000E+01 0. -1.
</event>
<event>
11    1  0.1003949E-008  0.1410076E+03  0.7561462E-02  0.1106438E+00
         22   -1    0    0    0    0  0.00000000000E+00  0.00000000000E+00  0.78441997146E+03  0.78441997146E+03  0.00000000000E+00 0.  1.
         22   -1    0    0    0    0 -0.00000000000E+00 -0.00000000000E+00 -0.76160981274E+03  0.76160981274E+03  0.00000000000E+00 0.  1.
        -24    2    1    2    0    0  0.65215160827E+01 -0.70202361809E+01 -0.54379213697E+03  0.54980887476E+03  0.80548722139E+02 0.  0.
         25    2    1    2    0    0 -0.44867428855E+02  0.59440258590E+02 -0.18614678872E+03  0.23630720070E+03  0.12507691889E+03 0.  0.
         24    2    1    2    0    0  0.38345912772E+02 -0.52420022409E+02  0.75274908441E+03  0.75991370875E+03  0.81359651459E+02 0.  0.
        -13    1    5    5    0    0 -0.20053248489E+01  0.20572600051E+02  0.15697269496E+03  0.15832776182E+03  0.00000000000E+00 0.  1.
         14    1    5    5    0    0  0.40351237621E+02 -0.72992622460E+02  0.59577638946E+03  0.60158594693E+03  0.00000000000E+00 0. -1.
         13    1    3    3    0    0 -0.24709972814E+02  0.20981781600E+02 -0.13355208758E+03  0.13742990218E+03  0.00000000000E+00 0. -1.
        -14    1    3    3    0    0  0.31231488897E+02 -0.28002017781E+02 -0.41024004939E+03  0.41237897258E+03  0.00000000000E+00 0.  1.
          5    1    4    4  501    0 -0.28083131980E+02 -0.22181990493E+02 -0.13203181301E+03  0.13685969111E+03  0.41800000000E+01 0. -1.
         -5    1    4    4    0  501 -0.16784296875E+02  0.81622249082E+02 -0.54114975706E+02  0.99447509584E+02  0.41800000000E+01 0. -1.
</event>
<event>
11    1  0.1003949E-008  0.2649722E+03  0.7561462E-02  0.1016212E+00
         22   -1    0    0    0    0  0.00000000000E+00  0.00000000000E+00  0.21780208272E+04  0.21780208272E+04  0.00000000000E+00 0. -1.
         22   -1    0    0    0    0 -0.00000000000E+00 -0.00000000000E+00 -0.47971586652E+03  0.47971586652E+03  0.00000000000E+00 0.  1.
         24    2    1    2    0    0 -0.16440204661E+03  0.17012608991E+03 -0.41926987360E+03  0.48844182363E+03  0.82566753396E+02 0.  0.
         25    2    1    2    0    0  0.86217532604E+02 -0.17371984695E+03  0.53392689162E+03  0.58166824786E+03  0.12509187351E+03 0.  0.
        -24    2    1    2    0    0  0.78184514002E+02  0.35937570427E+01  0.15836479427E+04  0.15876266222E+04  0.80571409445E+02 0.  0.
        -11    1    3    3    0    0 -0.17132711073E+03  0.15167180516E+03 -0.40031458451E+03  0.46109552364E+03  0.00000000000E+00 0.  1.
         12    1    3    3    0    0  0.69250641196E+01  0.18454284748E+02 -0.18955289094E+02  0.27346299992E+02  0.00000000000E+00 0. -1.
         11    1    5    5    0    0 -0.83509376561E+01  0.33239161897E+01  0.62909654502E+03  0.62916075016E+03  0.00000000000E+00 0. -1.
        -12    1    5    5    0    0  0.86535451659E+02  0.26984085297E+00  0.95455139764E+03  0.95846587209E+03  0.00000000000E+00 0.  1.
          5    1    4    4  501    0 -0.94882570515E+01 -0.68445639557E+02  0.29964238628E+03  0.30753514377E+03  0.41800000000E+01 0.  1.
         -5    1    4    4    0  501  0.95705789656E+02 -0.10527420739E+03  0.23428450534E+03  0.27413310409E+03  0.41800000000E+01 0.  1.
</event>
<event>
11    1  0.1003949E-008  0.1609194E+03  0.7561462E-02  0.1086216E+00
         22   -1    0    0    0    0  0.00000000000E+00  0.00000000000E+00  0.23072906498E+03  0.23072906498E+03  0.00000000000E+00 0. -1.
         22   -1    0    0    0    0 -0.00000000000E+00 -0.00000000000E+00 -0.14119845854E+04  0.14119845854E+04  0.00000000000E+00 0. -1.
        -24    2    1    2    0    0 -0.86703516442E+02  0.49998219718E+02 -0.13010574191E+04  0.13073491144E+04  0.79962348935E+02 0.  0.
         25    2    1    2    0    0  0.10583115919E+03 -0.87365351142E+02  0.22551586296E+01  0.18570259037E+03  0.12508967781E+03 0.  0.
         24    2    1    2    0    0 -0.19127642752E+02  0.37367131424E+02  0.11754674005E+03  0.14966194566E+03  0.82579008559E+02 0.  0.
        -11    1    5    5    0    0 -0.18065406322E+02  0.52175208614E+02  0.34079569273E+02  0.64884731188E+02  0.00000000000E+00 0.  1.
         12    1    5    5    0    0 -0.10622364296E+01 -0.14808077190E+02  0.83467170775E+02  0.84777214471E+02  0.00000000000E+00 0. -1.
         13    1    3    3    0    0 -0.39979719850E+02  0.59673104648E+02 -0.99557406124E+03  0.99816179492E+03  0.00000000000E+00 0. -1.
        -14    1    3    3    0    0 -0.46723796591E+02 -0.96748849302E+01 -0.30548335788E+03  0.30918731945E+03  0.00000000000E+00 0.  1.
          5    1    4    4  501    0  0.26906311521E+02 -0.95909115537E+02  0.25441452593E+02  0.10289435336E+03  0.41800000000E+01 0. -1.
         -5    1    4    4    0  501  0.78924847672E+02  0.85437643947E+01 -0.23186293963E+02  0.82808237017E+02  0.41800000000E+01 0. -1.
</event>
<event>
11    1  0.1003949E-008  0.1354957E+03  0.7561462E-02  0.1112695E+00
         22   -1    0    0    0    0  0.00000000000E+00  0.00000000000E+00  0.23375052585E+04  0.23375052585E+04  0.00000000000E+00 0.  1.
         22   -1    0    0    0    0 -0.00000000000E+00 -0.00000000000E+00 -0.59736059055E+02  0.59736059055E+02  0.00000000000E+00 0. -1.
         24    2    1    2    0    0  0.47456771342E+02 -0.73340132739E+01 -0.60861224298E+00  0.93173028365E+02  0.79843032940E+02 0.  0.
         25    2    1    2    0    0 -0.38434683142E+02  0.58502232147E+02  0.43173399128E+03  0.45490846928E+03  0.12509092757E+03 0.  0.
        -24    2    1    2    0    0 -0.90220882002E+01 -0.51168218873E+02  0.18466438204E+04  0.18491598199E+04  0.81234570365E+02 0.  0.
        -13    1    3    3    0    0  0.24441235848E+02  0.35149386629E+02  0.93962433740E+01  0.43830842791E+02  0.00000000000E+00 0.  1.
         14    1    3    3    0    0  0.23015535494E+02 -0.42483399903E+02 -0.10004855617E+02  0.49342185575E+02  0.00000000000E+00 0. -1.
         13    1    5    5    0    0  0.24869073208E+02 -0.56914344410E+00  0.10083343928E+04  0.10086411861E+04  0.00000000000E+00 0. -1.
        -14    1    5    5    0    0 -0.33891161408E+02 -0.50599075429E+02  0.83830942762E+03  0.84051863376E+03  0.00000000000E+00 0.  1.
          5    1    4    4  501    0 -0.72383427584E+01 -0.33312202731E+02  0.21101035745E+03  0.21378713667E+03  0.41800000000E+01 0. -1.
         -5    1    4    4    0  501 -0.31196340383E+02  0.91814434878E+02  0.22072363384E+03  0.24112133261E+03  0.41800000000E+01 0. -1.
</event>
<event>
11    1  0.1003949E-008  0.1755546E+03  0.7561462E-02  0.1073296E+00
         22   -1    0    0    0    0  0.00000000000E+00  0.00000000000E+00  0.55286775529E+03  0.55286775529E+03  0.00000000000E+00 0.  1.
         22   -1    0    0    0    0 -0.00000000000E+00 -0.00000000000E+00 -0.11640376101E+04  0.11640376101E+04  0.00000000000E+00 0.  1.
        -24    2    1    2    0    0 -0.64808826776E+02 -0.10654213297E+03 -0.10595893539E+04  0.10700319158E+04  0.81775864295E+02 0.  0.
         25    2    1    2    0    0  0.71519024938E+02  0.76372401614E+02 -0.25162580249E+02  0.16501666298E+03  0.12509847705E+03 0.  0.
         24    2    1    2    0    0 -0.67101981627E+01  0.30169731357E+02  0.47358207930E+03  0.48185678657E+03  0.83371083002E+02 0.  0.
        -13    1    5    5    0    0 -0.42099344640E+01  0.26755432948E+01  0.43148908141E+03  0.43151791325E+03  0.00000000000E+00 0.  1.
         14    1    5    5    0    0 -0.25002636987E+01  0.27494188062E+02  0.42092997886E+02  0.50338873316E+02  0.00000000000E+00 0. -1.
         13    1    3    3    0    0 -0.65041535645E+01 -0.50062845437E+02 -0.18765122417E+03  0.19432337595E+03  0.00000000000E+00 0. -1.
        -14    1    3    3    0    0 -0.58304673211E+02 -0.56479287533E+02 -0.87193812968E+03  0.87570853988E+03  0.00000000000E+00 0.  1.
          5    1    4    4  501    0  0.50736317345E+02  0.71578285595E+02  0.39860750567E+02  0.96457123647E+02  0.41800000000E+01 0. -1.
         -5    1    4    4    0  501  0.20782707593E+02  0.47941160185E+01 -0.65023330815E+02  0.68559539334E+02  0.41800000000E+01 0. -1.
</event>
<event>
11    1  0.1003949E-008  0.1334814E+03  0.7561462E-02  0.1115064E+00
         22   -1    0    0    0    0  0.00000000000E+00  0.00000000000E+00  0.13715911171E+03  0.13715911171E+03  0.00000000000E+00 0. -1.
         22   -1    0    0    0    0 -0.00000000000E+00 -0.00000000000E+00 -0.12157576666E+04  0.12157576666E+04  0.00000000000E+00 0.  1.
         24    2    1    2    0    0  0.28687972394E+02  0.13107822533E+02 -0.79592397355E+03  0.80083284653E+03  0.82725217720E+02 0.  0.
         25    2    1    2    0    0  0.50373446184E+01 -0.45899258041E+02 -0.38885046767E+03  0.41107731113E+03  0.12509097804E+03 0.  0.
        -24    2    1    2    0    0 -0.33725317012E+02  0.32791435508E+02  0.10617588635E+03  0.14100662063E+03  0.79980453662E+02 0.  0.
        -11    1    3    3    0    0  0.28876497064E+02 -0.24356565943E+02 -0.61017393633E+03  0.61134223391E+03  0.00000000000E+00 0.  1.
         12    1    3    3    0    0 -0.18852467005E+00  0.37464388476E+02 -0.18575003722E+03  0.18949061262E+03  0.00000000000E+00 0. -1.
         13    1    5    5    0    0 -0.18054208429E+02  0.18388629589E+02  0.11508348892E+03  0.11793347940E+03  0.00000000000E+00 0. -1.
        -14    1    5    5    0    0 -0.15671108583E+02  0.14402805919E+02 -0.89076025726E+01  0.23073141228E+02  0.00000000000E+00 0.  1.
          5    1    4    4  501    0 -0.15833429624E+02  0.19043926675E+02 -0.11563708545E+02  0.27650685202E+02  0.41800000000E+01 0.  1.
         -5    1    4    4    0  501  0.20870774242E+02 -0.64943184716E+02 -0.37728675912E+03  0.38342662593E+03  0.41800000000E+01 0.  1.
</event>
<event>
11    1  0.1003949E-008  0.1865190E+03  0.7561462E-02  0.1064488E+00
         22   -1    0    0    0    0  0.00000000000E+00  0.00000000000E+00  0.26122732946E+04  0.26122732946E+04  0.00000000000E+00 0. -1.
         22   -1    0    0    0    0 -0.00000000000E+00 -0.00000000000E+00 -0.11166964241E+04  0.11166964241E+04  0.00000000000E+00 0.  1.
        -24    2    1    2    0    0  0.79361118472E+02 -0.11369211135E+03 -0.10945364387E+04  0.11063018676E+04  0.81668374526E+02 0.  0.
         25    2    1    2    0    0 -0.57217937853E+02  0.99701944497E+02  0.45818953307E+03  0.48867098870E+03  0.12508923548E+03 0.  0.
         24    2    1    2    0    0 -0.22143180619E+02  0.13990166852E+02  0.21319237761E+04  0.21339968624E+04  0.90319303695E+02 0.  0.
        -11    1    5    5    0    0 -0.27620290384E+00  0.10272962001E+02  0.26014431756E+02  0.27970711394E+02  0.00000000000E+00 0.  1.
         12    1    5    5    0    0 -0.21866977715E+02  0.37172048512E+01  0.21059093443E+04  0.21060261510E+04  0.00000000000E+00 0. -1.
         13    1    3    3    0    0  0.39900163574E+01 -0.11656044834E+02 -0.15337438716E+02  0.19672840112E+02  0.00000000000E+00 0. -1.
        -14    1    3    3    0    0  0.75371102115E+02 -0.10203606651E+03 -0.10791990000E+04  0.10866290275E+04  0.00000000000E+00 0.  1.
          5    1    4    4  501    0  0.15399752542E+02 -0.19253379027E+02  0.34365557953E+02  0.42500693591E+02  0.41800000000E+01 0.  1.
         -5    1    4    4    0  501 -0.72617690396E+02  0.11895532352E+03  0.42382397512E+03  0.44617029511E+03  0.41800000000E+01 0.  1.
</event>
<event>
11    1  0.1003949E-008  0.1537152E+03  0.7561462E-02  0.1093142E+00
         22   -1    0    0    0    0  0.00000000000E+00  0.00000000000E+00  0.83014917921E+02  0.83014917921E+02  0.00000000000E+00 0. -1.
         22   -1    0    0    0    0 -0.00000000000E+00 -0.00000000000E+00 -0.10928953416E+04  0.10928953416E+04  0.00000000000E+00 0.  1.
         24    2    1    2    0    0  0.31911368583E+02 -0.38463781335E+02 -0.63778875295E+03  0.64588114112E+03  0.88826556527E+02 0.  0.
         25    2    1    2    0    0 -0.11443270714E+03  0.55536208248E+02 -0.37332531393E+03  0.41376121757E+03  0.12508972884E+03 0.  0.
        -24    2    1    2    0    0  0.82521338560E+02 -0.17072426913E+02  0.12336432265E+01  0.11626790080E+03  0.80096590451E+02 0.  0.
        -11    1    3    3    0    0  0.43347517454E+01 -0.12119402436E+02 -0.55018807481E+03  0.55033861181E+03  0.00000000000E+00 0.  1.
         12    1    3    3    0    0  0.27576616837E+02 -0.26344378900E+02 -0.87600678140E+02  0.95542529307E+02  0.00000000000E+00 0. -1.
         13    1    5    5    0    0  0.42497496227E+02 -0.39516161837E+02  0.26599466226E+02  0.63836477311E+02  0.00000000000E+00 0. -1.
        -14    1    5    5    0    0  0.40023842333E+02  0.22443734924E+02 -0.25365823000E+02  0.52431423487E+02  0.00000000000E+00 0.  1.
          5    1    4    4  501    0 -0.12513712367E+03  0.71021537203E+02 -0.36572528615E+03  0.39303411531E+03  0.41800000000E+01 0. -1.
         -5    1    4    4    0  501  0.10704416530E+02 -0.15485328954E+02 -0.76000277750E+01  0.20727102264E+02  0.41800000000E+01 0. -1.
</event>
<event>
11    1  0.1003949E-008  0.2464823E+03  0.7561462E-02  0.1025790E+00
         22   -1    0    0    0    0  0.00000000000E+00  0.00000000000E+00  0.13602051278E+04  0.13602051278E+04  0.00000000000E+00 0. -1.
         22   -1    0    0    0    0 -0.00000000000E+00 -0.00000000000E+00 -0.42053826042E+03  0.42053826042E+03  0.00000000000E+00 0. -1.
         24    2    1    2    0    0 -0.15832855139E+02 -0.76648917228E+02 -0.29129266885E+03  0.31006792437E+03  0.71867676899E+02 0.  0.
         25    2    1    2    0    0  0.12449336002E+03  0.25140946660E+03  0.10705490622E+03  0.32528894424E+03  0.12508728039E+03 0.  0.
        -24    2    1    2    0    0 -0.10866050488E+03 -0.17476054937E+03  0.11239046300E+04  0.11453865196E+04  0.80001918769E+02 0.  0.
        -11    1    3    3    0    0  0.19938566224E+02  0.86152375717E+00 -0.40615186228E+02  0.45253530233E+02  0.00000000000E+00 0.  1.
         12    1    3    3    0    0 -0.35771421362E+02 -0.77510440985E+02 -0.25067748262E+03  0.26481439413E+03  0.00000000000E+00 0. -1.
         11    1    5    5    0    0 -0.60935049285E+02 -0.13702188684E+03  0.62270322610E+03  0.64050557023E+03  0.00000000000E+00 0. -1.
        -12    1    5    5    0    0 -0.47725455595E+02 -0.37738662535E+02  0.50120140392E+03  0.50488094939E+03  0.00000000000E+00 0.  1.
          5    1    4    4  501    0  0.92399024762E+02  0.10138579751E+03 -0.15969703126E+01  0.13724679387E+03  0.41800000000E+01 0.  1.
         -5    1    4    4    0  501  0.32094335256E+02  0.15002366909E+03  0.10865187653E+03  0.18804215037E+03  0.41800000000E+01 0.  1.
</event>
<event>
11    1  0.1003949E-008  0.1357777E+03  0.7561462E-02  0.1112367E+00
         22   -1    0    0    0    0  0.00000000000E+00  0.00000000000E+00  0.26230015132E+02  0.26230015132E+02  0.00000000000E+00 0. -1.
         22   -1    0    0    0    0 -0.00000000000E+00 -0.00000000000E+00 -0.37231861827E+04  0.37231861827E+04  0.00000000000E+00 0.  1.
        -24    2    1    2    0    0 -0.14469988107E+02  0.14839202414E+01 -0.21851092162E+04  0.21866197377E+04  0.79950034102E+02 0.  0.
         25    2    1    2    0    0 -0.24519698446E+02  0.35251290784E+02 -0.14314596350E+04  0.14375563588E+04  0.12509088286E+03 0.  0.
         24    2    1    2    0    0  0.38989686553E+02 -0.36735211026E+02 -0.80387316422E+02  0.12524010140E+03  0.79707533962E+02 0.  0.
        -13    1    5    5    0    0 -0.19690940461E+02  0.42778858780E+01 -0.39921815058E+01  0.20541931676E+02  0.00000000000E+00 0.  1.
         14    1    5    5    0    0  0.58680627014E+02 -0.41013096904E+02 -0.76395134916E+02  0.10469816972E+03  0.00000000000E+00 0. -1.
         11    1    3    3    0    0  0.51007807058E+01 -0.19644519224E+02 -0.15704646046E+03  0.15835250500E+03  0.00000000000E+00 0. -1.
        -12    1    3    3    0    0 -0.19570768812E+02  0.21128439465E+02 -0.20280627557E+04  0.20282672327E+04  0.00000000000E+00 0.  1.
          5    1    4    4  501    0 -0.17857335623E+02  0.84972869765E+01 -0.32197048550E+02  0.38015926358E+02  0.41800000000E+01 0.  1.
         -5    1    4    4    0  501 -0.66623628237E+01  0.26754003808E+02 -0.13992625864E+04  0.13995404324E+04  0.41800000000E+01 0.  1.
</event>
<event>
11    1  0.1003949E-008  0.1578023E+03  0.7561462E-02  0.1089163E+00
         22   -1    0    0    0    0  0.00000000000E+00  0.00000000000E+00  0.14012763022E+03  0.14012763022E+03  0.00000000000E+00 0. -1.
         22   -1    0    0    0    0 -0.00000000000E+00 -0.00000000000E+00 -0.67359540302E+03  0.67359540302E+03  0.00000000000E+00 0. -1.
        -24    2    1    2    0    0  0.12971636269E+02 -0.12401342781E+02 -0.52255269276E+03  0.52905247011E+03  0.80704044365E+02 0.  0.
         25    2    1    2    0    0  0.60312210306E+02  0.75397108325E+02 -0.14815897661E+02  0.15871153522E+03  0.12509018320E+03 0.  0.
         24    2    1    2    0    0 -0.73283846575E+02 -0.62995765544E+02  0.39008176119E+01  0.12595902791E+03  0.80693690517E+02 0.  0.
        -11    1    5    5    0    0 -0.39901217333E+02  0.10950236809E+02 -0.12422699397E+02  0.43201137614E+02  0.00000000000E+00 0.  1.
         12    1    5    5    0    0 -0.33382629242E+02 -0.73946002353E+02  0.16323517009E+02  0.82757890298E+02  0.00000000000E+00 0. -1.
         13    1    3    3    0    0  0.32213042280E+02  0.24504123773E+02 -0.22637188611E+03  0.22996165549E+03  0.00000000000E+00 0. -1.
        -14    1    3    3    0    0 -0.19241406010E+02 -0.36905466554E+02 -0.29618080665E+03  0.29909081462E+03  0.00000000000E+00 0.  1.
          5    1    4    4  501    0  0.23419873987E+02  0.10676828889E+03 -0.11549078467E+02  0.10999459815E+03  0.41800000000E+01 0.  1.
         -5    1    4    4    0  501  0.36892336319E+02 -0.31371180564E+02 -0.32668191939E+01  0.48716937062E+02  0.41800000000E+01 0.  1.
</event>
<event>
11    1  0.1003949E-008  0.1757814E+03  0.7561462E-02  0.1073107E+00
         22   -1    0    0    0    0  0.00000000000E+00  0.00000000000E+00  0.73959966432E+03  0.73959966432E+03  0.00000000000E+00 0.  1.
         22   -1    0    0    0    0 -0.00000000000E+00 -0.00000000000E+00 -0.12996656647E+04  0.12996656647E+04  0.00000000000E+00 0. -1.
         24    2    1    2    0    0 -0.52835345623E+02  0.93611510624E+02 -0.11344731165E+04  0.11422278853E+04  0.78106345275E+02 0.  0.
         25    2    1    2    0    0  0.12318153227E+03 -0.18838174228E+03 -0.44739503316E+02  0.26136623267E+03  0.12509721702E+03 0.  0.
        -24    2    1    2    0    0 -0.70346186645E+02  0.94770231661E+02  0.61914661952E+03  0.63567121097E+03  0.82494661710E+02 0.  0.
        -13    1    3    3    0    0 -0.22528208961E+02  0.30599217806E+02 -0.13313012670E+03  0.13844660691E+03  0.00000000000E+00 0.  1.
         14    1    3    3    0    0 -0.30307136662E+02  0.63012292818E+02 -0.10013429898E+04  0.10037812784E+04  0.00000000000E+00 0. -1.
         11    1    5    5    0    0 -0.29472162112E+01  0.27563911454E+02  0.39467946997E+02  0.48230427514E+02  0.00000000000E+00 0. -1.
        -12    1    5    5    0    0 -0.67398970434E+02  0.67206320208E+02  0.57967867253E+03  0.58744078346E+03  0.00000000000E+00 0.  1.
          5    1    4    4  501    0  0.85763625065E+02 -0.80067290219E+02  0.34042527162E+02  0.12223966788E+03  0.41800000000E+01 0. -1.
         -5    1    4    4    0  501  0.37417907203E+02 -0.10831445207E+03 -0.78782030478E+02  0.13912656480E+03  0.41800000000E+01 0. -1.
</event>
<event>
11    1  0.1003949E-008  0.1521779E+03  0.7561462E-02  0.1094674E+00
         22   -1    0    0    0    0  0.00000000000E+00  0.00000000000E+00  0.14009994209E+04  0.14009994209E+04  0.00000000000E+00 0.  1.
         22   -1    0    0    0    0 -0.00000000000E+00 -0.00000000000E+00 -0.70047522671E+02  0.70047522671E+02  0.00000000000E+00 0.  1.
        -24    2    1    2    0    0  0.46680613031E+01  0.46623611736E+01 -0.17369388997E+02  0.81990373414E+02  0.79857355643E+02 0.  0.
         25    2    1    2    0    0 -0.13348642911E+02 -0.90022044112E+02  0.33639970026E+03  0.37026232394E+03  0.12508907028E+03 0.  0.
         24    2    1    2    0    0  0.86805816079E+01  0.85359682939E+02  0.10119215870E+04  0.10187942462E+04  0.81208312247E+02 0.  0.
        -13    1    5    5    0    0  0.21691041320E+02  0.88572203077E+02  0.97916896969E+03  0.98340602380E+03  0.00000000000E+00 0.  1.
         14    1    5    5    0    0 -0.13010459712E+02 -0.32125201383E+01  0.32752617301E+02  0.35388222442E+02  0.00000000000E+00 0. -1.
         11    1    3    3    0    0 -0.21476636212E+02  0.70821105643E+01  0.24010405366E+02  0.32983355785E+02  0.00000000000E+00 0. -1.
        -12    1    3    3    0    0  0.26144697515E+02 -0.24197493907E+01 -0.41379794363E+02  0.49007017628E+02  0.00000000000E+00 0.  1.
          5    1    4    4  501    0  0.27560185164E+02 -0.16573064803E+02  0.24042790743E+03  0.24260519647E+03  0.41800000000E+01 0.  1.
         -5    1    4    4    0  501 -0.40908828075E+02 -0.73448979309E+02  0.95971792827E+02  0.12765712747E+03  0.41800000000E+01 0.  1.
</event>
<event>
11    1  0.1003949E-008  0.1517923E+03  0.7561462E-02  0.1095061E+00
         22   -1    0    0    0    0  0.00000000000E+00  0.00000000000E+00  0.16177559401E+04  0.16177559401E+04  0.00000000000E+00 0.  1.
         22   -1    0    0    0    0 -0.00000000000E+00 -0.00000000000E+00 -0.14468879984E+04  0.14468879984E+04  0.00000000000E+00 0. -1.
         24    2    1    2    0    0  0.90709078597E+02 -0.81793744126E+01 -0.13044290563E+04  0.13100275781E+04  0.79637009444E+02 0.  0.
         25    2    1    2    0    0 -0.30678095785E+02  0.12468448204E+02 -0.10776751220E+03  0.16836147837E+03  0.12504056522E+03 0.  0.
        -24    2    1    2    0    0 -0.60030982811E+02 -0.42890737912E+01  0.15830645102E+04  0.15862548821E+04  0.80555523888E+02 0.  0.
        -11    1    3    3    0    0  0.70541423202E+02  0.11014883291E+02 -0.49526636778E+03  0.50038604606E+03  0.00000000000E+00 0.  1.
         12    1    3    3    0    0  0.20167655395E+02 -0.19194257704E+02 -0.80916268856E+03  0.80964153205E+03  0.00000000000E+00 0. -1.
         13    1    5    5    0    0 -0.45858906649E+02  0.24496706043E+02  0.49610309177E+03  0.49882001322E+03  0.00000000000E+00 0. -1.
        -14    1    5    5    0    0 -0.14172076162E+02 -0.28785779834E+02  0.10869614185E+04  0.10874348689E+04  0.00000000000E+00 0.  1.
          5    1    4    4  501    0  0.35473509007E+02 -0.21770823947E+02 -0.61231148361E+01  0.42276513006E+02  0.41800000000E+01 0.  1.
         -5    1    4    4    0  501 -0.66151604792E+02  0.34239272151E+02 -0.10164439737E+03  0.12608496536E+03  0.41800000000E+01 0.  1.
</event>
<event>
11    1  0.1003949E-008  0.2095754E+03  0.7561462E-02  0.1047952E+00
         22   -1    0    0    0    0  0.00000000000E+00  0.00000000000E+00  0.31348881703E+03  0.31348881703E+03  0.00000000000E+00 0.  1.
         22   -1    0    0    0    0 -0.00000000000E+00 -0.00000000000E+00 -0.68382991806E+03  0.68382991806E+03  0.00000000000E+00 0.  1.
         24    2    1    2    0    0  0.16455200043E+03  0.15671611628E+02 -0.53276036159E+03  0.56334056195E+03  0.78714837232E+02 0.  0.
         25    2    1    2    0    0 -0.19317059420E+03  0.45846856923E+02 -0.67967559790E+01  0.23475851271E+03  0.12509416712E+03 0.  0.
        -24    2    1    2    0    0  0.28618593765E+02 -0.61518468552E+02  0.16921601653E+03  0.19921966043E+03  0.80317289356E+02 0.  0.
        -13    1    3    3    0    0  0.15228421827E+03 -0.11926964637E+02 -0.45241460215E+03  0.47750571500E+03  0.00000000000E+00 0.  1.
         14    1    3    3    0    0  0.12267782162E+02  0.27598576265E+02 -0.80345759440E+02  0.85834846950E+02  0.00000000000E+00 0. -1.
         11    1    5    5    0    0  0.47197748250E+02 -0.19370764244E+02  0.50083542980E+02  0.71492763443E+02  0.00000000000E+00 0. -1.
        -12    1    5    5    0    0 -0.18579154486E+02 -0.42147704308E+02  0.11913247355E+03  0.12772689698E+03  0.00000000000E+00 0.  1.
          5    1    4    4  501    0 -0.18614956767E+02  0.56169539653E+02 -0.78967320208E+01  0.59844503314E+02  0.41800000000E+01 0. -1.
         -5    1    4    4    0  501 -0.17455563743E+03 -0.10322682730E+02  0.10999760418E+01  0.17491400940E+03  0.41800000000E+01 0. -1.
</event>
<event>
11    1  0.1003949E-008  0.1406572E+03  0.7561462E-02  0.1106827E+00
         22   -1    0    0    0    0  0.00000000000E+00  0.00000000000E+00  0.10986403014E+03  0.10986403014E+03  0.00000000000E+00 0. -1.
         22   -1    0    0    0    0 -0.00000000000E+00 -0.00000000000E+00 -0.36039620710E+04  0.36039620710E+04  0.00000000000E+00 0.  1.
         24    2    1    2    0    0  0.51691929962E+02  0.18311086615E+02 -0.32085153771E+04  0.32099510924E+04  0.78789206095E+02 0.  0.
         25    2    1    2    0    0  0.12266097925E+02 -0.39181913655E+02 -0.35577676277E+03  0.37935366658E+03  0.12508565028E+03 0.  0.
        -24    2    1    2    0    0 -0.63958027887E+02  0.20870827040E+02  0.70194098998E+02  0.12452134217E+03  0.77795452105E+02 0.  0.
        -11    1    3    3    0    0 -0.89948744156E+01  0.21368017216E+02 -0.17713759564E+04  0.17715276681E+04  0.00000000000E+00 0.  1.
         12    1    3    3    0    0  0.60686804378E+02 -0.30569306011E+01 -0.14371394207E+04  0.14384234243E+04  0.00000000000E+00 0. -1.
         11    1    5    5    0    0 -0.22764725927E+02  0.21891398273E+02 -0.11021434104E+02  0.33450531754E+02  0.00000000000E+00 0. -1.
        -12    1    5    5    0    0 -0.41193301959E+02 -0.10205712336E+01  0.81215533102E+02  0.91070810412E+02  0.00000000000E+00 0.  1.
          5    1    4    4  501    0  0.25217457627E+02 -0.77270174141E+02 -0.16077874896E+03  0.18020510120E+03  0.41800000000E+01 0.  1.
         -5    1    4    4    0  501 -0.12951359702E+02  0.38088260486E+02 -0.19499801380E+03  0.19914856538E+03  0.41800000000E+01 0.  1.
</event>
<event>
11    1  0.1003949E-008  0.1504794E+03  0.7561462E-02  0.1096390E+00
         22   -1    0    0    0    0  0.00000000000E+00  0.00000000000E+00  0.24224995813E+04  0.24224995813E+04  0.00000000000E+00 0.  1.
         22   -1    0    0    0    0 -0.00000000000E+00 -0.00000000000E+00 -0.14021999064E+03  0.14021999064E+03  0.00000000000E+00 0.  1.
        -24    2    1    2    0    0 -0.61830764557E+02 -0.58861470889E+02 -0.10355264264E+03  0.16033500403E+03  0.87729399399E+02 0.  0.
         25    2    1    2    0    0  0.64459643217E+02 -0.18072396782E+02  0.79578949037E+03  0.80833811045E+03  0.12509168912E+03 0.  0.
         24    2    1    2    0    0 -0.26288786603E+01  0.76933867672E+02  0.15900427429E+04  0.15940464575E+04  0.82598142766E+02 0.  0.
        -11    1    5    5    0    0 -0.15365517903E+02  0.59464327146E+02  0.15065067424E+04  0.15077581604E+04  0.00000000000E+00 0.  1.
         12    1    5    5    0    0  0.12736639243E+02  0.17469540525E+02  0.83536000569E+02  0.86288297100E+02  0.00000000000E+00 0. -1.
         11    1    3    3    0    0  0.12637051046E+02 -0.44085485029E+02 -0.46997461747E+02  0.65665717540E+02  0.00000000000E+00 0. -1.
        -12    1    3    3    0    0 -0.74467815603E+02 -0.14775985860E+02 -0.56555180894E+02  0.94669286491E+02  0.00000000000E+00 0.  1.
          5    1    4    4  501    0  0.34644887362E+01 -0.59117710639E+02  0.22039155619E+03  0.22824727125E+03  0.41800000000E+01 0.  1.
         -5    1    4    4    0  501  0.60995154481E+02  0.41045313857E+02  0.57539793418E+03  0.58009083920E+03  0.41800000000E+01 0.  1.
</event>
<event>
11    1  0.1003949E-008  0.1315546E+03  0.7561462E-02  0.1117373E+00
         22   -1    0    0    0    0  0.00000000000E+00  0.00000000000E+00  0.19782120653E+04  0.19782120653E+04  0.00000000000E+00 0.  1.
         22   -1    0    0    0    0 -0.00000000000E+00 -0.00000000000E+00 -0.28206604239E+03  0.28206604239E+03  0.00000000000E+00 0. -1.
         24    2    1    2    0    0  0.45477650998E+01  0.11872456316E+02 -0.25742158659E+03  0.26926343307E+03  0.77944119451E+02 0.  0.
         25    2    1    2    0    0 -0.43637992048E+02 -0.67574112256E+00  0.23168747453E+03  0.26689149381E+03  0.12508897888E+03 0.  0.
        -24    2    1    2    0    0  0.39090226948E+02 -0.11196715193E+02  0.17218801349E+04  0.17241231808E+04  0.77949542059E+02 0.  0.
        -13    1    3    3    0    0 -0.15709559361E+02 -0.26763396010E+02 -0.65973169287E+02  0.72907672347E+02  0.00000000000E+00 0.  1.
         14    1    3    3    0    0  0.20257324461E+02  0.38635852326E+02 -0.19144841731E+03  0.19635576072E+03  0.00000000000E+00 0. -1.
         13    1    5    5    0    0 -0.21800074794E+01 -0.89234529710E+01  0.23374256924E+02  0.25114464603E+02  0.00000000000E+00 0. -1.
        -14    1    5    5    0    0  0.41270234427E+02 -0.22732622222E+01  0.16985058780E+04  0.16990087162E+04  0.00000000000E+00 0.  1.
          5    1    4    4  501    0  0.10978296666E+02 -0.45214596514E+01  0.20579953469E+03  0.20618411063E+03  0.41800000000E+01 0. -1.
         -5    1    4    4    0  501 -0.54616288714E+02  0.38457185289E+01  0.25887939835E+02  0.60707383181E+02  0.41800000000E+01 0. -1.
</event>
<event>
11    1  0.1003949E-008  0.1621789E+03  0.7561462E-02  0.1085046E+00
         22   -1    0    0    0    0  0.00000000000E+00  0.00000000000E+00  0.13160668795E+04  0.13160668795E+04  0.00000000000E+00 0. -1.
         22   -1    0    0    0    0 -0.00000000000E+00 -0.00000000000E+00 -0.15049146921E+03  0.15049146921E+03  0.00000000000E+00 0.  1.
         24    2    1    2    0    0  0.18035528063E+02 -0.86750774511E+02 -0.71654831644E+02  0.13830171794E+03  0.78370741589E+02 0.  0.
         25    2    1    2    0    0  0.32094524085E+02 -0.11867727895E+02  0.59611459451E+02  0.14273048133E+03  0.12509021849E+03 0.  0.
        -24    2    1    2    0    0 -0.50130052148E+02  0.98618502406E+02  0.11776187825E+04  0.11855261494E+04  0.80297092005E+02 0.  0.
        -13    1    3    3    0    0  0.20179643856E+02 -0.91152963715E+01 -0.54412841386E+02  0.58745756969E+02  0.00000000000E+00 0.  1.
         14    1    3    3    0    0 -0.21441157929E+01 -0.77635478139E+02 -0.17241990258E+02  0.79555960974E+02  0.00000000000E+00 0. -1.
         13    1    5    5    0    0  0.17553664482E+01  0.73232025366E+02  0.82078620298E+03  0.82404854338E+03  0.00000000000E+00 0. -1.
        -14    1    5    5    0    0 -0.51885418596E+02  0.25386477039E+02  0.35683257952E+03  0.36147760606E+03  0.00000000000E+00 0.  1.
          5    1    4    4  501    0  0.19304052804E+02 -0.34398989451E+02 -0.29757780692E+02  0.49587648075E+02  0.41800000000E+01 0. -1.
         -5    1    4    4    0  501  0.12790471281E+02  0.22531261556E+02  0.89369240142E+02  0.93142833254E+02  0.41800000000E+01 0. -1.
</event>
<event>
11    1  0.1003949E-008  0.1603351E+03  0.7561462E-02  0.1086763E+00
         22   -1    0    0    0    0  0.00000000000E+00  0.00000000000E+00  0.57262741958E+03  0.57262741958E+03  0.00000000000E+00 0. -1.
         22   -1    0    0    0    0 -0.00000000000E+00 -0.00000000000E+00 -0.39516727857E+03  0.39516727857E+03  0.00000000000E+00 0.  1.
         24    2    1    2    0    0  0.54516717073E+02 -0.25891700969E+02 -0.30409574209E+03  0.32032294794E+03  0.80561268599E+02 0.  0.
         25    2    1    2    0    0 -0.13015242864E+03  0.81251972474E+02  0.59025200419E+02  0.20657285542E+03  0.12508729991E+03 0.  0.
        -24    2    1    2    0    0  0.75635711567E+02 -0.55360271506E+02  0.42253068268E+03  0.44089889479E+03  0.84107889648E+02 0.  0.
        -11    1    3    3    0    0  0.45601169812E+02 -0.22087695613E+02 -0.30623338487E+03  0.31039687337E+03  0.00000000000E+00 0.  1.
         12    1    3    3    0    0  0.89155472606E+01 -0.38040053560E+01  0.21376427821E+01  0.99260745700E+01  0.00000000000E+00 0. -1.
         13    1    5    5    0    0  0.71896331568E+02 -0.11135188770E+02  0.33440702100E+03  0.34222964602E+03  0.00000000000E+00 0. -1.
        -14    1    5    5    0    0  0.37393799985E+01 -0.44225082736E+02  0.88123661676E+02  0.98669248770E+02  0.00000000000E+00 0.  1.
          5    1    4    4  501    0 -0.19249496567E+02  0.19395976943E+02 -0.37798953650E+02  0.46829267950E+02  0.41800000000E+01 0. -1.
         -5    1    4    4    0  501 -0.11090293207E+03  0.61855995532E+02  0.96824154069E+02  0.15974358747E+03  0.41800000000E+01 0. -1.
</event>
<event>
11    1  0.1003949E-008  0.2180822E+03  0.7561462E-02  0.1042425E+00
         22   -1    0    0    0    0  0.00000000000E+00  0.00000000000E+00  0.18748030376E+04  0.18748030376E+04  0.00000000000E+00 0. -1.
         22   -1    0    0    0    0 -0.00000000000E+00 -0.00000000000E+00 -0.37858259123E+03  0.37858259123E+03  0.00000000000E+00 0.  1.
         24    2    1    2    0    0  0.85901755109E+02 -0.15715530103E+03 -0.17789872578E+03  0.26468211296E+03  0.79572382852E+02 0.  0.
         25    2    1    2    0    0 -0.12937620666E+03  0.12886428883E+03 -0.77470340832E+02  0.23450906311E+03  0.12509452100E+03 0.  0.
        -24    2    1    2    0    0  0.43474451554E+02  0.28291012197E+02  0.17515895129E+04  0.17541944527E+04  0.80261739162E+02 0.  0.
        -13    1    3    3    0    0  0.79719603237E+02 -0.68276069179E+02 -0.77631958392E+02  0.13055097750E+03  0.00000000000E+00 0.  1.
         14    1    3    3    0    0  0.61821518717E+01 -0.88879231851E+02 -0.10026676739E+03  0.13413113546E+03  0.00000000000E+00 0. -1.
         13    1    5    5    0    0 -0.72869944058E+01  0.41760348246E+02  0.68176649588E+03  0.68308314419E+03  0.00000000000E+00 0. -1.
        -14    1    5    5    0    0  0.50761445960E+02 -0.13469336049E+02  0.10698230171E+04  0.10711113085E+04  0.00000000000E+00 0.  1.
          5    1    4    4  501    0 -0.88778456332E+02  0.15062403292E+03 -0.57151167854E+02  0.18399169000E+03  0.41800000000E+01 0. -1.
         -5    1    4    4    0  501 -0.40597750330E+02 -0.21759744092E+02 -0.20319172978E+02  0.50517373104E+02  0.41800000000E+01 0. -1.
</event>
<event>
11    1  0.1003949E-008  0.1530375E+03  0.7561462E-02  0.1093815E+00
         22   -1    0    0    0    0  0.00000000000E+00  0.00000000000E+00  0.99069772738E+03  0.99069772738E+03  0.00000000000E+00 0. -1.
         22   -1    0    0    0    0 -0.00000000000E+00 -0.00000000000E+00 -0.17219215403E+03  0.17219215403E+03  0.00000000000E+00 0. -1.
        -24    2    1    2    0    0  0.61835081497E+02  0.67610498050E+02 -0.12524748005E+03  0.17452842886E+03  0.79865414722E+02 0.  0.
         25    2    1    2    0    0 -0.73311976983E+01 -0.62757469645E+02  0.23884780604E+03  0.27692698402E+03  0.12509210035E+03 0.  0.
         24    2    1    2    0    0 -0.54503883799E+02 -0.48530284055E+01  0.70490524737E+03  0.71143446854E+03  0.79078252518E+02 0.  0.
        -13    1    5    5    0    0 -0.63840633448E+02 -0.26951907702E+02  0.43735701779E+03  0.44281281917E+03  0.00000000000E+00 0.  1.
         14    1    5    5    0    0  0.93367496490E+01  0.22098879297E+02  0.26754822958E+03  0.26862164937E+03  0.00000000000E+00 0. -1.
         13    1    3    3    0    0  0.69946751881E+02  0.54269024777E+02 -0.13081083166E+03  0.15795299563E+03  0.00000000000E+00 0. -1.
        -14    1    3    3    0    0 -0.81116703830E+01  0.13341473273E+02  0.55633516077E+01  0.16575433225E+02  0.00000000000E+00 0.  1.
          5    1    4    4  501    0 -0.19306217455E+02  0.21625951616E+02  0.73423485733E+01  0.30195931817E+02  0.41800000000E+01 0.  1.
         -5    1    4    4    0  501  0.11975019757E+02 -0.84383421261E+02  0.23150545747E+03  0.24673105220E+03  0.41800000000E+01 0.  1.
</event>
<event>
11    1  0.1003949E-008  0.1580579E+03  0.7561462E-02  0.1088918E+00
         22   -1    0    0    0    0  0.00000000000E+00  0.00000000000E+00  0.11034972103E+03  0.11034972103E+03  0.00000000000E+00 0.  1.
         22   -1    0    0    0    0 -0.00000000000E+00 -0.00000000000E+00 -0.47466502902E+03  0.47466502902E+03  0.00000000000E+00 0. -1.
        -24    2    1    2    0    0  0.17952826693E+02  0.91947744248E+01 -0.21818365170E+03  0.23373553296E+03  0.81371651285E+02 0.  0.
         25    2    1    2    0    0 -0.92270997365E+02 -0.63324010816E+02 -0.15340108224E+03  0.22738400395E+03  0.12509087064E+03 0.  0.
         24    2    1    2    0    0  0.74318170672E+02  0.54129236392E+02  0.72694259551E+01  0.12389521314E+03  0.82728559520E+02 0.  0.
        -11    1    5    5    0    0  0.72577732941E+02  0.60663832576E+02  0.30746639255E+02  0.99463479364E+02  0.00000000000E+00 0.  1.
         12    1    5    5    0    0  0.17404377305E+01 -0.65345961848E+01 -0.23477213300E+02  0.24431733773E+02  0.00000000000E+00 0. -1.
         11    1    3    3    0    0 -0.29083661799E+02  0.14385226843E+02 -0.55291865461E+02  0.64109160976E+02  0.00000000000E+00 0. -1.
        -12    1    3    3    0    0  0.47036488492E+02 -0.51904524182E+01 -0.16289178624E+03  0.16962637198E+03  0.00000000000E+00 0.  1.
          5    1    4    4  501    0  0.98392708094E+01 -0.53782657883E+02 -0.93915747685E+02  0.10875212918E+03  0.41800000000E+01 0. -1.
         -5    1    4    4    0  501 -0.10211026817E+03 -0.95413529338E+01 -0.59485334559E+02  0.11863187476E+03  0.41800000000E+01 0. -1.
</event>
<event>
11    1  0.1003949E-008  0.1713383E+03  0.7561462E-02  0.1076873E+00
         22   -1    0    0    0    0  0.00000000000E+00  0.00000000000E+00  0.75423238010E+03  0.75423238010E+03  0.00000000000E+00 0. -1.
         22   -1    0    0    0    0 -0.00000000000E+00 -0.00000000000E+00 -0.25752654661E+03  0.25752654661E+03  0.00000000000E+00 0. -1.
         24    2    1    2    0    0  0.10831187913E+03 -0.52916733150E+02 -0.20890903340E+03  0.25392152002E+03  0.79382052671E+02 0.  0.
         25    2    1    2    0    0 -0.31552628542E+02  0.76963663311E+02  0.33684445792E+03  0.36882180554E+03  0.12508541711E+03 0.  0.
        -24    2    1    2    0    0 -0.76759250592E+02 -0.24046930161E+02  0.36877040897E+03  0.38901560114E+03  0.94187504497E+02 0.  0.
        -11    1    3    3    0    0  0.69686159295E+02 -0.45005670440E+02 -0.66988856737E+02  0.10662634804E+03  0.00000000000E+00 0.  1.
         12    1    3    3    0    0  0.38625719839E+02 -0.79110627098E+01 -0.14192017666E+03  0.14729517198E+03  0.00000000000E+00 0. -1.
         13    1    5    5    0    0  0.73309987965E+01 -0.35230153447E+02  0.74065821954E+02  0.82344721974E+02  0.00000000000E+00 0. -1.
        -14    1    5    5    0    0 -0.84090249389E+02  0.11183223286E+02  0.29470458701E+03  0.30667087917E+03  0.00000000000E+00 0.  1.
          5    1    4    4  501    0 -0.56582970815E+02 -0.81707813831E+01  0.17567572311E+03  0.18479130484E+03  0.41800000000E+01 0. -1.
         -5    1    4    4    0  501  0.25030342274E+02  0.85134444694E+02  0.16116873481E+03  0.18403050070E+03  0.41800000000E+01 0. -1.
</event>
<event>
11    1  0.1003949E-008  0.1729368E+03  0.7561462E-02  0.1075504E+00
         22   -1    0    0    0    0  0.00000000000E+00  0.00000000000E+00  0.34456078073E+03  0.34456078073E+03  0.00000000000E+00 0.  1.
         22   -1    0    0    0    0 -0.00000000000E+00 -0.00000000000E+00 -0.12765638770E+04  0.12765638770E+04  0.00000000000E+00 0.  1.
        -24    2    1    2    0    0  0.80445041040E+01  0.11795216843E+03 -0.11634417858E+04  0.11722069091E+04  0.80590449873E+02 0.  0.
         25    2    1    2    0    0  0.27070202786E+02 -0.14669174561E+03 -0.75971221897E+01  0.19482457846E+03  0.12509051123E+03 0.  0.
         24    2    1    2    0    0 -0.35114706890E+02  0.28739577181E+02  0.23903581167E+03  0.25409317026E+03  0.73254446809E+02 0.  0.
        -11    1    5    5    0    0 -0.15781343751E+02  0.45034145067E+02  0.21104848768E+03  0.21637603653E+03  0.00000000000E+00 0.  1.
         12    1    5    5    0    0 -0.19333363139E+02 -0.16294567886E+02  0.27987323985E+02  0.37717133728E+02  0.00000000000E+00 0. -1.
         13    1    3    3    0    0  0.47956999338E+01 -0.23137217237E+01 -0.33815183937E+03  0.33819375884E+03  0.00000000000E+00 0. -1.
        -14    1    3    3    0    0  0.32488041702E+01  0.12026589015E+03 -0.82528994642E+03  0.83401315021E+03  0.00000000000E+00 0.  1.
          5    1    4    4  501    0 -0.45889192588E+02 -0.26002053634E+02  0.51498449181E+01  0.53159365047E+02  0.41800000000E+01 0. -1.
         -5    1    4    4    0  501  0.72959395374E+02 -0.12068969197E+03 -0.12746967108E+02  0.14166521342E+03  0.41800000000E+01 0. -1.
</event>
<event>
11    1  0.1003949E-008  0.1429692E+03  0.7561462E-02  0.1104287E+00
         22   -1    0    0    0    0  0.00000000000E+00  0.00000000000E+00  0.58557797951E+02  0.58557797951E+02  0.00000000000E+00 0. -1.
         22   -1    0    0    0    0 -0.00000000000E+00 -0.00000000000E+00 -0.36834328425E+04  0.36834328425E+04  0.00000000000E+00 0.  1.
         24    2    1    2    0    0  0.28791105124E+02 -0.67209981485E+02 -0.33225238894E+04  0.33244976342E+04  0.88166972420E+02 0.  0.
         25    2    1    2    0    0 -0.40275529077E+02 -0.70772642404E+01 -0.27363666027E+03  0.30364011744E+03  0.12509233853E+03 0.  0.
        -24    2    1    2    0    0  0.11484423953E+02  0.74287245726E+02 -0.28714494885E+02  0.11385288879E+03  0.80544839679E+02 0.  0.
        -11    1    3    3    0    0  0.15243357502E+02 -0.88193445277E+02 -0.25512352894E+04  0.25528047214E+04  0.00000000000E+00 0.  1.
         12    1    3    3    0    0  0.13547747621E+02  0.20983463792E+02 -0.77128860003E+03  0.77169291286E+03  0.00000000000E+00 0. -1.
         11    1    5    5    0    0 -0.76420818697E+01  0.67522997047E+02  0.11396643003E+02  0.68903120519E+02  0.00000000000E+00 0. -1.
        -12    1    5    5    0    0  0.19126505823E+02  0.67642486782E+01 -0.40111137888E+02  0.44949768273E+02  0.00000000000E+00 0.  1.
          5    1    4    4  501    0 -0.59542764179E+02  0.19170709560E+02 -0.57639006073E+02  0.85162105964E+02  0.41800000000E+01 0. -1.
         -5    1    4    4    0  501  0.19267235102E+02 -0.26247973800E+02 -0.21599765420E+03  0.21847801147E+03  0.41800000000E+01 0. -1.
</event>
<event>
11    1  0.1235149E-008  0.1739862E+03  0.7561462E-02  0.1074614E+00
         22   -1    0    0    0    0  0.00000000000E+00  0.00000000000E+00  0.26313945413E+03  0.26313945413E+03  0.00000000000E+00 0. -1.
         22   -1    0    0    0    0 -0.00000000000E+00 -0.00000000000E+00 -0.22223531271E+04  0.22223531271E+04  0.00000000000E+00 0.  1.
        -24    2    1    2    0    0 -0.27571844447E+02 -0.16755405976E+02 -0.14991615331E+04  0.15020962128E+04  0.88129335760E+02 0.  0.
         25    2    1    2    0    0 -0.71773631533E+01 -0.99846674815E+02 -0.69032005254E+03  0.70866683442E+03  0.12508410875E+03 0.  0.
         24    2    1    2    0    0  0.34749207601E+02  0.11660208079E+03  0.23026791266E+03  0.27472953405E+03  0.87461149127E+02 0.  0.
        -13    1    5    5    0    0 -0.26752233513E+02  0.39661598619E+02  0.10490691189E+03  0.11530041008E+03  0.00000000000E+00 0.  1.
         14    1    5    5    0    0  0.61501441114E+02  0.76940482172E+02  0.12536100077E+03  0.15942912397E+03  0.00000000000E+00 0. -1.
         11    1    3    3    0    0 -0.42386601407E+02  0.18119473531E+02 -0.47438694196E+03  0.47662134867E+03  0.00000000000E+00 0. -1.
        -12    1    3    3    0    0  0.14814756959E+02 -0.34874879507E+02 -0.10247745912E+04  0.10254748641E+04  0.00000000000E+00 0.  1.
          5    1    4    4  501    0 -0.29105707927E+02 -0.20856417853E+02 -0.42776060240E+02  0.55941005794E+02  0.41800000000E+01 0. -1.
         -5    1    4    4    0  501  0.21928344773E+02 -0.78990256961E+02 -0.64754399230E+03  0.65272582863E+03  0.41800000000E+01 0. -1.
</event>
<event>
11    1  0.1003949E-008  0.1378339E+03  0.7561462E-02  0.1110002E+00
         22   -1    0    0    0    0  0.00000000000E+00  0.00000000000E+00  0.41269408734E+03  0.41269408734E+03  0.00000000000E+00 0.  1.
         22   -1    0    0    0    0 -0.00000000000E+00 -0.00000000000E+00 -0.35590896162E+03  0.35590896162E+03  0.00000000000E+00 0. -1.
        -24    2    1    2    0    0 -0.79992726826E+01 -0.27636996929E+02 -0.27772491214E+03  0.29039525813E+03  0.79815331607E+02 0.  0.
         25    2    1    2    0    0  0.32614995456E+01  0.82504534733E+02  0.22936352894E+02  0.15162852668E+03  0.12508996038E+03 0.  0.
         24    2    1    2    0    0  0.47377731370E+01 -0.54867537804E+02  0.31157368496E+03  0.32657926415E+03  0.80888574035E+02 0.  0.
        -13    1    5    5    0    0  0.27349845986E+02 -0.91655495137E+01  0.21900224217E+03  0.22089364737E+03  0.00000000000E+00 0.  1.
         14    1    5    5    0    0 -0.22612072849E+02 -0.45701988291E+02  0.92571442792E+02  0.10568561677E+03  0.00000000000E+00 0. -1.
         13    1    3    3    0    0  0.98926761237E+00  0.16110747291E+01 -0.24708911660E+03  0.24709634913E+03  0.00000000000E+00 0. -1.
        -14    1    3    3    0    0 -0.89885402950E+01 -0.29248071658E+02 -0.30635795546E+02  0.43298909005E+02  0.00000000000E+00 0.  1.
          5    1    4    4  501    0 -0.10550419430E+02  0.10852723064E+03  0.41287467253E+02  0.11666875542E+03  0.41800000000E+01 0. -1.
         -5    1    4    4    0  501  0.13811918976E+02 -0.26022695904E+02 -0.18351114359E+02  0.34959771254E+02  0.41800000000E+01 0. -1.
</event>
<event>
11    1  0.1003949E-008  0.2050606E+03  0.7561462E-02  0.1051002E+00
         22   -1    0    0    0    0  0.00000000000E+00  0.00000000000E+00  0.99569318175E+03  0.99569318175E+03  0.00000000000E+00 0.  1.
         22   -1    0    0    0    0 -0.00000000000E+00 -0.00000000000E+00 -0.55585966061E+03  0.55585966061E+03  0.00000000000E+00 0. -1.
         24    2    1    2    0    0 -0.14873704115E+02  0.14618412104E+02 -0.41499277007E+03  0.42352141627E+03  0.81954046803E+02 0.  0.
         25    2    1    2    0    0  0.57476254206E+02 -0.17019357613E+03 -0.33750375506E+02  0.22148426575E+03  0.12508724545E+03 0.  0.
        -24    2    1    2    0    0 -0.42602550091E+02  0.15557516403E+03  0.88857666672E+03  0.90654716034E+03  0.78997799682E+02 0.  0.
        -13    1    3    3    0    0  0.21883022722E+02  0.27755174586E+02 -0.98864054931E+02  0.10499198901E+03  0.00000000000E+00 0.  1.
         14    1    3    3    0    0 -0.36756726836E+02 -0.13136762483E+02 -0.31612871514E+03  0.31852942726E+03  0.00000000000E+00 0. -1.
         13    1    5    5    0    0  0.96012261736E+01  0.34764069217E+02  0.86073505330E+02  0.93324018197E+02  0.00000000000E+00 0. -1.
        -14    1    5    5    0    0 -0.52203776264E+02  0.12081109481E+03  0.80250316139E+03  0.81322314215E+03  0.00000000000E+00 0.  1.
          5    1    4    4  501    0  0.12290369637E+02 -0.15026525579E+03  0.15492326029E+02  0.15161855048E+03  0.41800000000E+01 0. -1.
         -5    1    4    4    0  501  0.45185884568E+02 -0.19928320340E+02 -0.49242701535E+02  0.69865715271E+02  0.41800000000E+01 0. -1.
</event>
<event>
11    1  0.1003949E-008  0.1376098E+03  0.7561462E-02  0.1110257E+00
         22   -1    0    0    0    0  0.00000000000E+00  0.00000000000E+00  0.23646932021E+03  0.23646932021E+03  0.00000000000E+00 0.  1.
         22   -1    0    0    0    0 -0.00000000000E+00 -0.00000000000E+00 -0.85494799043E+03  0.85494799043E+03  0.00000000000E+00 0.  1.
         24    2    1    2    0    0  0.52792667867E+02 -0.90716691178E+01 -0.64530512364E+03  0.65251491407E+03  0.80545946676E+02 0.  0.
         25    2    1    2    0    0 -0.88832505056E+02  0.84128078964E+01 -0.16557599166E+03  0.22588633583E+03  0.12508892200E+03 0.  0.
        -24    2    1    2    0    0  0.36039837189E+02  0.65886122143E+00  0.19240244509E+03  0.21301606074E+03  0.84010935560E+02 0.  0.
        -11    1    3    3    0    0  0.30059076462E+02 -0.39018352047E+02 -0.50015333135E+03  0.50257271587E+03  0.00000000000E+00 0.  1.
         12    1    3    3    0    0  0.22733591405E+02  0.29946682929E+02 -0.14515179229E+03  0.14994219821E+03  0.00000000000E+00 0. -1.
         13    1    5    5    0    0  0.38034242346E+02  0.25608836530E+02  0.47697657297E+02  0.66162546889E+02  0.00000000000E+00 0. -1.
        -14    1    5    5    0    0 -0.19944051565E+01 -0.24949975309E+02  0.14470478779E+03  0.14685351385E+03  0.00000000000E+00 0.  1.
          5    1    4    4  501    0 -0.47222442375E+02 -0.35228582784E+02 -0.15319660931E+03  0.16418795818E+03  0.41800000000E+01 0.  1.
         -5    1    4    4    0  501 -0.41610062681E+02  0.43641390681E+02 -0.12379382356E+02  0.61698377648E+02  0.41800000000E+01 0.  1.
</event>
<event>
11    1  0.1003949E-008  0.1423564E+03  0.7561462E-02  0.1104955E+00
         22   -1    0    0    0    0  0.00000000000E+00  0.00000000000E+00  0.75017389030E+03  0.75017389030E+03  0.00000000000E+00 0. -1.
         22   -1    0    0    0    0 -0.00000000000E+00 -0.00000000000E+00 -0.45567131420E+03  0.45567131420E+03  0.00000000000E+00 0.  1.
         24    2    1    2    0    0  0.24354594435E+02 -0.64051409460E+02 -0.41507191373E+03  0.42821488114E+03  0.79922221817E+02 0.  0.
         25    2    1    2    0    0  0.30497231974E+02  0.67133221474E+02  0.14676630107E+03  0.20645753274E+03  0.12508962832E+03 0.  0.
        -24    2    1    2    0    0 -0.54851826409E+02 -0.30818120140E+01  0.56280818877E+03  0.57117279061E+03  0.80418150694E+02 0.  0.
        -11    1    3    3    0    0  0.52025488590E+02 -0.52622038681E+02 -0.26235252821E+03  0.27258866352E+03  0.00000000000E+00 0.  1.
         12    1    3    3    0    0 -0.27670894155E+02 -0.11429370779E+02 -0.15271938552E+03  0.15562621763E+03  0.00000000000E+00 0. -1.
         13    1    5    5    0    0 -0.57553141117E+02  0.10248635136E+02  0.54783131640E+03  0.55094151215E+03  0.00000000000E+00 0. -1.
        -14    1    5    5    0    0  0.27013147086E+01 -0.13330447150E+02  0.14976872369E+02  0.20231278466E+02  0.00000000000E+00 0.  1.
          5    1    4    4  501    0 -0.21196646986E+02  0.86960983697E+02  0.93852078845E+02  0.12975821990E+03  0.41800000000E+01 0. -1.
         -5    1    4    4    0  501  0.51693878960E+02 -0.19827762223E+02  0.52914222224E+02  0.76699312841E+02  0.41800000000E+01 0. -1.
</event>
<event>
11    1  0.1003949E-008  0.3038811E+03  0.7561462E-02  0.9985619E-01
         22   -1    0    0    0    0  0.00000000000E+00  0.00000000000E+00  0.15554184943E+04  0.15554184943E+04  0.00000000000E+00 0.  1.
         22   -1    0    0    0    0 -0.00000000000E+00 -0.00000000000E+00 -0.23625331891E+03  0.23625331891E+03  0.00000000000E+00 0.  1.
         24    2    1    2    0    0  0.59640640966E+02 -0.19444493126E+03 -0.95303140006E+02  0.24157631739E+03  0.88941504834E+02 0.  0.
         25    2    1    2    0    0  0.16358914447E+03  0.30813021855E+03  0.81165834970E+03  0.89226850817E+03  0.12509266263E+03 0.  0.
        -24    2    1    2    0    0 -0.22322978544E+03 -0.11368528729E+03  0.60280996572E+03  0.65782698768E+03  0.81244133956E+02 0.  0.
        -13    1    3    3    0    0  0.25533726499E+02 -0.62813578695E+02  0.11366677451E+02  0.68751132454E+02  0.00000000000E+00 0.  1.
         14    1    3    3    0    0  0.34106914467E+02 -0.13163135257E+03 -0.10666981746E+03  0.17282518494E+03  0.00000000000E+00 0. -1.
         13    1    5    5    0    0 -0.14057791088E+03 -0.98043729042E+02  0.47349773835E+03  0.50356214120E+03  0.00000000000E+00 0. -1.
        -14    1    5    5    0    0 -0.82651874558E+02 -0.15641558249E+02  0.12931222737E+03  0.15426484648E+03  0.00000000000E+00 0.  1.
          5    1    4    4  501    0  0.25591061116E+02  0.12398475305E+03  0.18094712552E+03  0.22087656289E+03  0.41800000000E+01 0. -1.
         -5    1    4    4    0  501  0.13799808336E+03  0.18414546550E+03  0.63071122418E+03  0.67139194528E+03  0.41800000000E+01 0. -1.
</event>
<event>
11    1  0.1003949E-008  0.2253990E+03  0.7561462E-02  0.1037887E+00
         22   -1    0    0    0    0  0.00000000000E+00  0.00000000000E+00  0.60182968058E+03  0.60182968058E+03  0.00000000000E+00 0.  1.
         22   -1    0    0    0    0 -0.00000000000E+00 -0.00000000000E+00 -0.24131015759E+03  0.24131015759E+03  0.00000000000E+00 0. -1.
        -24    2    1    2    0    0  0.15040355555E+02 -0.17741815880E+03 -0.74255971262E+02  0.20879884423E+03  0.79872352654E+02 0.  0.
         25    2    1    2    0    0  0.61657776500E+02  0.21431747196E+03  0.90581789160E+02  0.27126429507E+03  0.12508236111E+03 0.  0.
         24    2    1    2    0    0 -0.76698132055E+02 -0.36899313164E+02  0.34419370509E+03  0.36307669888E+03  0.78174291641E+02 0.  0.
        -13    1    5    5    0    0 -0.69829794524E+02 -0.52081127229E+02  0.32962842174E+03  0.34094506952E+03  0.00000000000E+00 0.  1.
         14    1    5    5    0    0 -0.68683375309E+01  0.15181814066E+02  0.14565283353E+02  0.22131629355E+02  0.00000000000E+00 0. -1.
         11    1    3    3    0    0 -0.12244005731E+02 -0.15272145876E+03 -0.77788801405E+02  0.17182798743E+03  0.00000000000E+00 0. -1.
        -12    1    3    3    0    0  0.27284361286E+02 -0.24696700038E+02  0.35328301427E+01  0.36970856797E+02  0.00000000000E+00 0.  1.
          5    1    4    4  501    0  0.81585195768E+02  0.99359656916E+02  0.85406071340E+02  0.15440257450E+03  0.41800000000E+01 0. -1.
         -5    1    4    4    0  501 -0.19927419268E+02  0.11495781504E+03  0.51757178202E+01  0.11686172056E+03  0.41800000000E+01 0. -1.
</event>
<event>
11    1  0.1003949E-008  0.1930501E+03  0.7561462E-02  0.1059550E+00
         22   -1    0    0    0    0  0.00000000000E+00  0.00000000000E+00  0.11782047139E+04  0.11782047139E+04  0.00000000000E+00 0.  1.
         22   -1    0    0    0    0 -0.00000000000E+00 -0.00000000000E+00 -0.42514736146E+03  0.42514736146E+03  0.00000000000E+00 0.  1.
         24    2    1    2    0    0  0.14302715037E+03 -0.31232623433E+02 -0.22772513055E+03  0.28231357034E+03  0.80062315765E+02 0.  0.
         25    2    1    2    0    0 -0.14841934627E+03  0.14068821693E+02 -0.11244436184E+03  0.22476123485E+03  0.12509054357E+03 0.  0.
        -24    2    1    2    0    0  0.53921959006E+01  0.17163801740E+02  0.10932268448E+04  0.10962772701E+04  0.79719802787E+02 0.  0.
        -13    1    3    3    0    0  0.15330752179E+03 -0.31357122924E+02 -0.21589148016E+03  0.26663757537E+03  0.00000000000E+00 0.  1.
         14    1    3    3    0    0 -0.10280371421E+02  0.12449949107E+00 -0.11833650399E+02  0.15675994975E+02  0.00000000000E+00 0. -1.
         11    1    5    5    0    0  0.13167591534E+01 -0.32106322011E+02  0.39832567599E+03  0.39961968660E+03  0.00000000000E+00 0. -1.
        -12    1    5    5    0    0  0.40754367472E+01  0.49270123751E+02  0.69490116879E+03  0.69665758352E+03  0.00000000000E+00 0.  1.
          5    1    4    4  501    0 -0.67563253613E+02  0.57788622882E+02 -0.14154641638E+02  0.90122940771E+02  0.41800000000E+01 0. -1.
         -5    1    4    4    0  501 -0.80856092656E+02 -0.43719801189E+02 -0.98289720198E+02  0.13463829408E+03  0.41800000000E+01 0. -1.
</event>
<event>
11    1  0.1003949E-008  0.1396455E+03  0.7561462E-02  0.1107955E+00
         22   -1    0    0    0    0  0.00000000000E+00  0.00000000000E+00  0.20221723606E+03  0.20221723606E+03  0.00000000000E+00 0. -1.
         22   -1    0    0    0    0 -0.00000000000E+00 -0.00000000000E+00 -0.38908807354E+03  0.38908807354E+03  0.00000000000E+00 0.  1.
         24    2    1    2    0    0 -0.27016702176E+01 -0.61922242684E+02 -0.29763082921E+03  0.31209236658E+03  0.70539858394E+02 0.  0.
         25    2    1    2    0    0 -0.58793346080E+02  0.54170707949E+02  0.44811192025E+02  0.15506849429E+03  0.12508825624E+03 0.  0.
        -24    2    1    2    0    0  0.61495016298E+02  0.77515347352E+01  0.65948799711E+02  0.12414444872E+03  0.84975741512E+02 0.  0.
        -11    1    3    3    0    0 -0.23868219339E+02 -0.63032907957E+02 -0.26292011723E+03  0.27142186246E+03  0.00000000000E+00 0.  1.
         12    1    3    3    0    0  0.21166549122E+02  0.11106652724E+01 -0.34710711983E+02  0.40670504121E+02  0.00000000000E+00 0. -1.
         11    1    5    5    0    0  0.57224588409E+02  0.36367656263E+02  0.66823939720E+02  0.95198208283E+02  0.00000000000E+00 0. -1.
        -12    1    5    5    0    0  0.42704278887E+01 -0.28616121527E+02 -0.87514000902E+00  0.28946240441E+02  0.00000000000E+00 0.  1.
          5    1    4    4  501    0 -0.48856080866E+02  0.92887484152E+02  0.17515646926E+02  0.10648601616E+03  0.41800000000E+01 0. -1.
         -5    1    4    4    0  501 -0.99372652137E+01 -0.38716776203E+02  0.27295545099E+02  0.48582478135E+02  0.41800000000E+01 0. -1.
</event>
<event>
11    1  0.1003949E-008  0.1431473E+03  0.7561462E-02  0.1104094E+00
         22   -1    0    0    0    0  0.00000000000E+00  0.00000000000E+00  0.21987559086E+04  0.21987559086E+04  0.00000000000E+00 0.  1.
         22   -1    0    0    0    0 -0.00000000000E+00 -0.00000000000E+00 -0.31959416819E+03  0.31959416819E+03  0.00000000000E+00 0. -1.
        -24    2    1    2    0    0  0.17713958151E+01 -0.69706353073E+02 -0.28990193926E+03  0.30930468892E+03  0.82244408316E+02 0.  0.
         25    2    1    2    0    0  0.56343579740E+01  0.65560451452E+02  0.24166504099E+03  0.27996878104E+03  0.12510238821E+03 0.  0.
         24    2    1    2    0    0 -0.74057537891E+01  0.41459016206E+01  0.19273986386E+04  0.19290766068E+04  0.79993805953E+02 0.  0.
        -13    1    5    5    0    0  0.34436594548E+02  0.93643678245E+01  0.11305298441E+04  0.11310929665E+04  0.00000000000E+00 0.  1.
         14    1    5    5    0    0 -0.41842348337E+02 -0.52184662039E+01  0.79686879453E+03  0.79798364031E+03  0.00000000000E+00 0. -1.
         13    1    3    3    0    0 -0.22315574765E+02 -0.21634011550E+02 -0.21424142067E+03  0.21648418340E+03  0.00000000000E+00 0. -1.
        -14    1    3    3    0    0  0.24086970580E+02 -0.48072341523E+02 -0.75660518592E+02  0.92820505519E+02  0.00000000000E+00 0.  1.
          5    1    4    4  501    0  0.62258402925E+02  0.16703921967E+02  0.13466179756E+03  0.14935327873E+03  0.41800000000E+01 0. -1.
         -5    1    4    4    0  501 -0.56624044951E+02  0.48856529485E+02  0.10700324343E+03  0.13061550231E+03  0.41800000000E+01 0. -1.
</event>
<event>
11    1  0.1003949E-008  0.1608814E+03  0.7561462E-02  0.1086251E+00
         22   -1    0    0    0    0  0.00000000000E+00  0.00000000000E+00  0.13081220110E+04  0.13081220110E+04  0.00000000000E+00 0. -1.
         22   -1    0    0    0    0 -0.00000000000E+00 -0.00000000000E+00 -0.67647775172E+02  0.67647775172E+02  0.00000000000E+00 0.  1.
         24    2    1    2    0    0  0.13507747711E+02 -0.96565499059E+02  0.43228441740E+02  0.13404999024E+03  0.81199426418E+02 0.  0.
         25    2    1    2    0    0 -0.19759189918E+02  0.11444749081E+03  0.34034915114E+03  0.38075302531E+03  0.12508664143E+03 0.  0.
        -24    2    1    2    0    0  0.62514422070E+01 -0.17881991747E+02  0.85689664299E+03  0.86096677066E+03  0.81443706127E+02 0.  0.
        -11    1    3    3    0    0  0.20700432457E+02 -0.60551055532E+02 -0.14514725994E+02  0.65617189064E+02  0.00000000000E+00 0.  1.
         12    1    3    3    0    0 -0.71926847457E+01 -0.36014443527E+02  0.57743167735E+02  0.68432801173E+02  0.00000000000E+00 0. -1.
         11    1    5    5    0    0  0.25474786577E+02 -0.30446010285E+02  0.77196634430E+03  0.77298639123E+03  0.00000000000E+00 0. -1.
        -12    1    5    5    0    0 -0.19223344370E+02  0.12564018538E+02  0.84930298688E+02  0.87980379437E+02  0.00000000000E+00 0.  1.
          5    1    4    4  501    0  0.15944124054E+02  0.12846348225E+03  0.28742274267E+03  0.31525606539E+03  0.41800000000E+01 0.  1.
         -5    1    4    4    0  501 -0.35703313973E+02 -0.14015991444E+02  0.52926408471E+02  0.65496959917E+02  0.41800000000E+01 0.  1.
</event>
<event>
11    1  0.1003949E-008  0.1328331E+03  0.7561462E-02  0.1115836E+00
         22   -1    0    0    0    0  0.00000000000E+00  0.00000000000E+00  0.11468081912E+04  0.11468081912E+04  0.00000000000E+00 0.  1.
         22   -1    0    0    0    0 -0.00000000000E+00 -0.00000000000E+00 -0.66203038352E+03  0.66203038352E+03  0.00000000000E+00 0. -1.
        -24    2    1    2    0    0 -0.19009032442E+02 -0.43225792843E+02 -0.43162876950E+03  0.44067522990E+03  0.75242614974E+02 0.  0.
         25    2    1    2    0    0  0.35067418021E+02  0.20399136157E+02 -0.20497137434E+03  0.24352581313E+03  0.12508280775E+03 0.  0.
         24    2    1    2    0    0 -0.16058385579E+02  0.22826656686E+02  0.11213779515E+04  0.11246375317E+04  0.80883493606E+02 0.  0.
        -13    1    5    5    0    0 -0.61249357492E+01 -0.27894574442E+02  0.60648148258E+03  0.60715353151E+03  0.00000000000E+00 0.  1.
         14    1    5    5    0    0 -0.99334498303E+01  0.50721231128E+02  0.51489646892E+03  0.51748400016E+03  0.00000000000E+00 0. -1.
         13    1    3    3    0    0 -0.23074769417E+02 -0.45670203666E+02 -0.43277933407E+03  0.43579371781E+03  0.00000000000E+00 0. -1.
        -14    1    3    3    0    0  0.40657369750E+01  0.24444108230E+01  0.11505645730E+01  0.48815120872E+01  0.00000000000E+00 0.  1.
          5    1    4    4  501    0 -0.13904934688E+01 -0.51001396390E+02 -0.82238210215E+02  0.96869352868E+02  0.41800000000E+01 0. -1.
         -5    1    4    4    0  501  0.36457911490E+02  0.71400532547E+02 -0.12273316413E+03  0.14665646026E+03  0.41800000000E+01 0. -1.
</event>
<event>
11    1  0.1003949E-008  0.2245200E+03  0.7561462E-02  0.1038422E+00
         22   -1    0    0    0    0  0.00000000000E+00  0.00000000000E+00  0.28557068439E+03  0.28557068439E+03  0.00000000000E+00 0.  1.
         22   -1    0    0    0    0 -0.00000000000E+00 -0.00000000000E+00 -0.55375598282E+03  0.55375598282E+03  0.00000000000E+00 0.  1.
        -24    2    1    2    0    0 -0.71167747157E+02  0.20399771287E+03 -0.40895924311E+03  0.46927249300E+03  0.79303814967E+02 0.  0.
         25    2    1    2    0    0  0.50093148296E+02 -0.96610421996E+02 -0.58722194142E+01  0.16590156111E+03  0.12508376343E+03 0.  0.
         24    2    1    2    0    0  0.21074598861E+02 -0.10738729088E+03  0.14664616410E+03  0.20415261310E+03  0.90537412331E+02 0.  0.
        -13    1    5    5    0    0  0.51154592937E+02 -0.97447800323E+02  0.11917848069E+03  0.16222323023E+03  0.00000000000E+00 0.  1.
         14    1    5    5    0    0 -0.30079994076E+02 -0.99394905557E+01  0.27467683408E+02  0.41929382871E+02  0.00000000000E+00 0. -1.
         11    1    3    3    0    0 -0.96596444407E+01  0.70029890162E+02 -0.21050764877E+03  0.22206072241E+03  0.00000000000E+00 0. -1.
        -12    1    3    3    0    0 -0.61508102717E+02  0.13396782271E+03 -0.19845159434E+03  0.24721177059E+03  0.00000000000E+00 0.  1.
          5    1    4    4  501    0 -0.39172441627E+02 -0.10949859892E+02 -0.98174610176E+01  0.42050381158E+02  0.41800000000E+01 0. -1.
         -5    1    4    4    0  501  0.89265589924E+02 -0.85660562104E+02  0.39452416034E+01  0.12385117995E+03  0.41800000000E+01 0. -1.
</event>
<event>
11    1  0.1003949E-008  0.1686412E+03  0.7561462E-02  0.1079220E+00
         22   -1    0    0    0    0  0.00000000000E+00  0.00000000000E+00  0.10732148759E+04  0.10732148759E+04  0.00000000000E+00 0.  1.
         22   -1    0    0    0    0 -0.00000000000E+00 -0.00000000000E+00 -0.27927693059E+03  0.27927693059E+03  0.00000000000E+00 0. -1.
         24    2    1    2    0    0 -0.54573984261E+02 -0.64496366289E+01 -0.20358783821E+03  0.22458018035E+03  0.77254980231E+02 0.  0.
         25    2    1    2    0    0  0.14577190284E+03 -0.54617057909E+02  0.10604278280E+03  0.22611299352E+03  0.12509813500E+03 0.  0.
        -24    2    1    2    0    0 -0.91197918583E+02  0.61066694538E+02  0.89148300076E+03  0.90179863267E+03  0.80328274720E+02 0.  0.
        -11    1    3    3    0    0 -0.41206961463E+02 -0.26731190998E+02 -0.53854832957E+02  0.72889733694E+02  0.00000000000E+00 0.  1.
         12    1    3    3    0    0 -0.13367022798E+02  0.20281554369E+02 -0.14973300525E+03  0.15169044666E+03  0.00000000000E+00 0. -1.
         11    1    5    5    0    0 -0.65831693358E+01  0.18255721044E+02  0.34488128889E+02  0.39573229633E+02  0.00000000000E+00 0. -1.
        -12    1    5    5    0    0 -0.84614749247E+02  0.42810973493E+02  0.85699487187E+03  0.86222540304E+03  0.00000000000E+00 0.  1.
          5    1    4    4  501    0  0.97828837726E+02 -0.51793266535E+02  0.13122202290E+03  0.17172569884E+03  0.41800000000E+01 0. -1.
         -5    1    4    4    0  501  0.47943065118E+02 -0.28237913736E+01 -0.25179240093E+02  0.54387294677E+02  0.41800000000E+01 0. -1.
</event>
<event>
11    1  0.1003949E-008  0.1771868E+03  0.7561462E-02  0.1071941E+00
         22   -1    0    0    0    0  0.00000000000E+00  0.00000000000E+00  0.68792655858E+03  0.68792655858E+03  0.00000000000E+00 0. -1.
         22   -1    0    0    0    0 -0.00000000000E+00 -0.00000000000E+00 -0.86225434221E+03  0.86225434221E+03  0.00000000000E+00 0. -1.
        -24    2    1    2    0    0 -0.12671493808E+03  0.25579069099E+02 -0.80385178333E+03  0.81771317288E+03  0.75935362148E+02 0.  0.
         25    2    1    2    0    0  0.43961715985E+02 -0.69093994501E+02  0.79675675340E+02  0.16941934733E+03  0.12509232374E+03 0.  0.
         24    2    1    2    0    0  0.82753222091E+02  0.43514925402E+02  0.54984832437E+03  0.56304838059E+03  0.77127521501E+02 0.  0.
        -13    1    5    5    0    0  0.70917629896E+02  0.21579645111E+01  0.24126533348E+03  0.25148146687E+03  0.00000000000E+00 0.  1.
         14    1    5    5    0    0  0.11835592194E+02  0.41356960891E+02  0.30858299089E+03  0.31156691372E+03  0.00000000000E+00 0. -1.
         11    1    3    3    0    0 -0.13125851659E+03  0.19426863929E+02 -0.63633408802E+03  0.65002097874E+03  0.00000000000E+00 0. -1.
        -12    1    3    3    0    0  0.45435785095E+01  0.61522051705E+01 -0.16751769531E+03  0.16769219414E+03  0.00000000000E+00 0.  1.
          5    1    4    4  501    0 -0.43112912413E+02 -0.33589625783E+02  0.22246595427E+02  0.59155469613E+02  0.41800000000E+01 0. -1.
         -5    1    4    4    0  501  0.87074628399E+02 -0.35504368718E+02  0.57429079913E+02  0.11026387771E+03  0.41800000000E+01 0. -1.
</event>
<event>
11    1  0.1003949E-008  0.1348107E+03  0.7561462E-02  0.1113495E+00
         22   -1    0    0    0    0  0.00000000000E+00  0.00000000000E+00  0.14285144528E+03  0.14285144528E+03  0.00000000000E+00 0.  1.
         22   -1    0    0    0    0 -0.00000000000E+00 -0.00000000000E+00 -0.13232224217E+04  0.13232224217E+04  0.00000000000E+00 0. -1.
         24    2    1    2    0    0  0.33431462756E+02  0.42023949119E+02 -0.90174878933E+03  0.90706218710E+03  0.82019858613E+02 0.  0.
         25    2    1    2    0    0 -0.22598437993E+02 -0.29107020723E+02 -0.39477095547E+03  0.41574807840E+03  0.12507777325E+03 0.  0.
        -24    2    1    2    0    0 -0.10833024764E+02 -0.12916928396E+02  0.11614876833E+03  0.14326360151E+03  0.82156689734E+02 0.  0.
        -11    1    3    3    0    0 -0.95573288553E+01 -0.65840697431E+01 -0.21564764040E+02  0.24489417252E+02  0.00000000000E+00 0.  1.
         12    1    3    3    0    0  0.42988791612E+02  0.48608018862E+02 -0.88018402529E+03  0.88257276985E+03  0.00000000000E+00 0. -1.
         13    1    5    5    0    0 -0.10106731164E+02  0.83021571729E+01 -0.92885811021E+01  0.16042118545E+02  0.00000000000E+00 0. -1.
        -14    1    5    5    0    0 -0.72629360019E+00 -0.21219085569E+02  0.12543734944E+03  0.12722148297E+03  0.00000000000E+00 0.  1.
          5    1    4    4  501    0  0.30077721104E+02  0.33955894162E+02 -0.18225355486E+03  0.18786032768E+03  0.41800000000E+01 0. -1.
         -5    1    4    4    0  501 -0.52676159096E+02 -0.63062914886E+02 -0.21251740060E+03  0.22788775073E+03  0.41800000000E+01 0. -1.
</event>
<event>
11    1  0.1003949E-008  0.1682064E+03  0.7561462E-02  0.1079603E+00
         22   -1    0    0    0    0  0.00000000000E+00  0.00000000000E+00  0.96009514112E+03  0.96009514112E+03  0.00000000000E+00 0.  1.
         22   -1    0    0    0    0 -0.00000000000E+00 -0.00000000000E+00 -0.11144831501E+03  0.11144831501E+03  0.00000000000E+00 0. -1.
         24    2    1    2    0    0 -0.10918065244E+03  0.22847801145E+02 -0.29588734674E+02  0.14209477416E+03  0.82903526693E+02 0.  0.
         25    2    1    2    0    0  0.11449627637E+03 -0.27136386159E+02  0.30028413425E+03  0.34592644720E+03  0.12509502321E+03 0.  0.
        -24    2    1    2    0    0 -0.53156239275E+01  0.42885850147E+01  0.57795142654E+03  0.58352223477E+03  0.80147983232E+02 0.  0.
        -11    1    3    3    0    0  0.96825700306E+00 -0.19698695654E+02  0.21060813573E+01  0.19834608914E+02  0.00000000000E+00 0.  1.
         12    1    3    3    0    0 -0.11014890945E+03  0.42546496799E+02 -0.31694816031E+02  0.12226016524E+03  0.00000000000E+00 0. -1.
         11    1    5    5    0    0  0.28209183302E+01 -0.24604781569E+02  0.62946770861E+02  0.67643542323E+02  0.00000000000E+00 0. -1.
        -12    1    5    5    0    0 -0.81365422577E+01  0.28893366584E+02  0.51500465568E+03  0.51587869245E+03  0.00000000000E+00 0.  1.
          5    1    4    4  501    0  0.11915719169E+03 -0.24801619046E+02  0.14021646874E+03  0.18571937741E+03  0.41800000000E+01 0. -1.
         -5    1    4    4    0  501 -0.46609153193E+01 -0.23347671138E+01  0.16006766551E+03  0.16020706979E+03  0.41800000000E+01 0. -1.
</event>
<event>
11    1  0.1003949E-008  0.1442430E+03  0.7561462E-02  0.1102911E+00
         22   -1    0    0    0    0  0.00000000000E+00  0.00000000000E+00  0.16278373195E+04  0.16278373195E+04  0.00000000000E+00 0. -1.
         22   -1    0    0    0    0 -0.00000000000E+00 -0.00000000000E+00 -0.46907081720E+03  0.46907081720E+03  0.00000000000E+00 0.  1.
         24    2    1    2    0    0  0.81315572915E+02  0.15367411886E+02 -0.28740867302E+03  0.31002872064E+03  0.81643631432E+02 0.  0.
         25    2    1    2    0    0 -0.36244456475E+02 -0.40140157470E+02 -0.14143724241E+03  0.19641060937E+03  0.12509093119E+03 0.  0.
        -24    2    1    2    0    0 -0.45071116440E+02  0.24772745585E+02  0.15876124178E+04  0.15904688067E+04  0.80204374271E+02 0.  0.
        -11    1    3    3    0    0  0.76828732069E+02 -0.20957962206E+02 -0.19477759191E+03  0.21042861156E+03  0.00000000000E+00 0.  1.
         12    1    3    3    0    0  0.44868408461E+01  0.36325374091E+02 -0.92631081101E+02  0.99600109084E+02  0.00000000000E+00 0. -1.
         13    1    5    5    0    0 -0.19683080094E+02 -0.74820050492E+01  0.12748959542E+04  0.12750698404E+04  0.00000000000E+00 0. -1.
        -14    1    5    5    0    0 -0.25388036345E+02  0.32254750634E+02  0.31271646358E+03  0.31539896627E+03  0.00000000000E+00 0.  1.
          5    1    4    4  501    0 -0.76871117361E+02 -0.58062660331E+01 -0.11029866331E+03  0.13463338716E+03  0.41800000000E+01 0. -1.
         -5    1    4    4    0  501  0.40626660885E+02 -0.34333891437E+02 -0.31138579099E+02  0.61777222212E+02  0.41800000000E+01 0. -1.
</event>
<event>
11    1  0.1003949E-008  0.1876289E+03  0.7561462E-02  0.1063634E+00
         22   -1    0    0    0    0  0.00000000000E+00  0.00000000000E+00  0.96304045710E+03  0.96304045710E+03  0.00000000000E+00 0.  1.
         22   -1    0    0    0    0 -0.00000000000E+00 -0.00000000000E+00 -0.52628172816E+02  0.52628172816E+02  0.00000000000E+00 0.  1.
        -24    2    1    2    0    0 -0.48072354094E+02  0.11930988780E+03  0.23501883548E+03  0.27944884569E+03  0.79448119990E+02 0.  0.
         25    2    1    2    0    0  0.44489639091E+02 -0.15353264436E+03  0.42503887891E+03  0.47101809946E+03  0.12509356725E+03 0.  0.
         24    2    1    2    0    0  0.35827150033E+01  0.34222756555E+02  0.25035456989E+03  0.26520168476E+03  0.80439356184E+02 0.  0.
        -13    1    5    5    0    0 -0.13319470945E+02  0.48696360820E+02  0.22850511745E+03  0.23401566735E+03  0.00000000000E+00 0.  1.
         14    1    5    5    0    0  0.16902185948E+02 -0.14473604265E+02  0.21849452436E+02  0.31186017412E+02  0.00000000000E+00 0. -1.
         11    1    3    3    0    0  0.80083251210E+01  0.61537018769E+02  0.57831253818E+02  0.84825655720E+02  0.00000000000E+00 0. -1.
        -12    1    3    3    0    0 -0.56080679215E+02  0.57772869035E+02  0.17718758167E+03  0.19462318997E+03  0.00000000000E+00 0.  1.
          5    1    4    4  501    0  0.37304027318E+02  0.99323373010E+01  0.69447498019E+02  0.79565502320E+02  0.41800000000E+01 0.  1.
         -5    1    4    4    0  501  0.71856117723E+01 -0.16346498166E+03  0.35559138089E+03  0.39145259714E+03  0.41800000000E+01 0.  1.
</event>
<event>
11    1  0.1003949E-008  0.1361989E+03  0.7561462E-02  0.1111879E+00
         22   -1    0    0    0    0  0.00000000000E+00  0.00000000000E+00  0.88609411886E+03  0.88609411886E+03  0.00000000000E+00 0. -1.
         22   -1    0    0    0    0 -0.00000000000E+00 -0.00000000000E+00 -0.11625881374E+03  0.11625881374E+03  0.00000000000E+00 0. -1.
         24    2    1    2    0    0  0.52962482928E+02 -0.25984541210E+02 -0.47426596678E+02  0.11195578323E+03  0.82489965131E+02 0.  0.
         25    2    1    2    0    0 -0.46046143932E+02 -0.32398020031E+02  0.10912427546E+03  0.17528913582E+03  0.12509314358E+03 0.  0.
        -24    2    1    2    0    0 -0.69163389953E+01  0.58382561241E+02  0.70813762634E+03  0.71510801354E+03  0.80400335790E+02 0.  0.
        -11    1    3    3    0    0  0.22115857888E+02 -0.53431644383E+02 -0.15806373090E+02  0.59949088582E+02  0.00000000000E+00 0.  1.
         12    1    3    3    0    0  0.30846625040E+02  0.27447103172E+02 -0.31620223587E+02  0.52006694652E+02  0.00000000000E+00 0. -1.
         11    1    5    5    0    0 -0.10972195552E+02  0.32992074355E+02  0.65652767516E+03  0.65744768180E+03  0.00000000000E+00 0. -1.
        -12    1    5    5    0    0  0.40558565563E+01  0.25390486886E+02  0.51609951174E+02  0.57660331745E+02  0.00000000000E+00 0.  1.
          5    1    4    4  501    0  0.42437473448E+01  0.11884167856E+02  0.10730665605E+03  0.10812693314E+03  0.41800000000E+01 0.  1.
         -5    1    4    4    0  501 -0.50289891277E+02 -0.44282187887E+02  0.18176194075E+01  0.67162202681E+02  0.41800000000E+01 0.  1.
</event>
<event>
11    1  0.1003949E-008  0.1277323E+03  0.7561462E-02  0.1122087E+00
         22   -1    0    0    0    0  0.00000000000E+00  0.00000000000E+00  0.14126192080E+04  0.14126192080E+04  0.00000000000E+00 0.  1.
         22   -1    0    0    0    0 -0.00000000000E+00 -0.00000000000E+00 -0.30339913084E+02  0.30339913084E+02  0.00000000000E+00 0. -1.
        -24    2    1    2    0    0  0.23677448585E+02  0.46989365610E+01  0.73250640094E+02  0.11188158577E+03  0.81050178186E+02 0.  0.
         25    2    1    2    0    0 -0.23051908176E+02  0.21752473344E+02  0.45771986531E+03  0.47556216998E+03  0.12508933548E+03 0.  0.
         24    2    1    2    0    0 -0.62554040916E+00 -0.26451409905E+02  0.85130878950E+03  0.85551536532E+03  0.80497309485E+02 0.  0.
        -13    1    5    5    0    0 -0.68643167772E+01 -0.40587137497E+02  0.81521241337E+03  0.81625101132E+03  0.00000000000E+00 0.  1.
         14    1    5    5    0    0  0.62387763680E+01  0.14135727592E+02  0.36096376132E+02  0.39264354000E+02  0.00000000000E+00 0. -1.
         13    1    3    3    0    0 -0.57874510286E+00  0.36284838080E+02  0.10888321052E+02  0.37887728300E+02  0.00000000000E+00 0. -1.
        -14    1    3    3    0    0  0.24256193688E+02 -0.31585901519E+02  0.62362319042E+02  0.73993857470E+02  0.00000000000E+00 0.  1.
          5    1    4    4  501    0  0.31472915094E+02 -0.34322355229E+02  0.23128144846E+03  0.23596005860E+03  0.41800000000E+01 0. -1.
         -5    1    4    4    0  501 -0.54524823269E+02  0.56074828572E+02  0.22643841685E+03  0.23960211138E+03  0.41800000000E+01 0. -1.
</event>
<event>
11    1  0.1003949E-008  0.1426996E+03  0.7561462E-02  0.1104581E+00
         22   -1    0    0    0    0  0.00000000000E+00  0.00000000000E+00  0.36784922149E+04  0.36784922149E+04  0.00000000000E+00 0.  1.
         22   -1    0    0    0    0 -0.00000000000E+00 -0.00000000000E+00 -0.59113620587E+02  0.59113620587E+02  0.00000000000E+00 0. -1.
         24    2    1    2    0    0  0.36503310598E+02 -0.30212360958E+02 -0.38491153572E+01  0.94001966582E+02  0.81094238963E+02 0.  0.
         25    2    1    2    0    0 -0.97208431793E+02  0.52200140155E+02  0.74231426115E+03  0.76082378530E+03  0.12509211059E+03 0.  0.
        -24    2    1    2    0    0  0.60705121195E+02 -0.21987779197E+02  0.28809134485E+04  0.28827800836E+04  0.81179667281E+02 0.  0.
        -11    1    3    3    0    0 -0.10340734139E+02 -0.26306179935E+02  0.25929030660E+02  0.38357013912E+02  0.00000000000E+00 0.  1.
         12    1    3    3    0    0  0.46844044737E+02 -0.39061810235E+01 -0.29778146017E+02  0.55644952670E+02  0.00000000000E+00 0. -1.
         11    1    5    5    0    0 -0.12516230360E+02 -0.25754253053E+02  0.59113660303E+03  0.59182972299E+03  0.00000000000E+00 0. -1.
        -12    1    5    5    0    0  0.73221351554E+02  0.37664738561E+01  0.22897768455E+04  0.22909503606E+04  0.00000000000E+00 0.  1.
          5    1    4    4  501    0 -0.12036303832E+03  0.52079073349E+02  0.48500122028E+03  0.50243720697E+03  0.41800000000E+01 0. -1.
         -5    1    4    4    0  501  0.23154606529E+02  0.12106680592E+00  0.25731304087E+03  0.25838657833E+03  0.41800000000E+01 0. -1.
</event>
<event>
11    1  0.1003949E-008  0.1283857E+03  0.7561462E-02  0.1121268E+00
         22   -1    0    0    0    0  0.00000000000E+00  0.00000000000E+00  0.55071260787E+03  0.55071260787E+03  0.00000000000E+00 0. -1.
         22   -1    0    0    0    0 -0.00000000000E+00 -0.00000000000E+00 -0.81072732016E+03  0.81072732016E+03  0.00000000000E+00 0. -1.
         24    2    1    2    0    0 -0.36855623328E+01 -0.24682881672E+02 -0.66662357889E+03  0.67559124587E+03  0.10683495469E+03 0.  0.
         25    2    1    2    0    0 -0.11366825205E+02  0.60163050813E+02 -0.99899310264E+02  0.17142794094E+03  0.12513540404E+03 0.  0.
        -24    2    1    2    0    0  0.15052387538E+02 -0.35480169141E+02  0.50650817687E+03  0.51442074122E+03  0.81195744929E+02 0.  0.
        -11    1    3    3    0    0  0.56445247676E+01 -0.13476039949E+02 -0.77167791936E+01  0.16523104844E+02  0.00000000000E+00 0.  1.
         12    1    3    3    0    0 -0.93300871004E+01 -0.11206841723E+02 -0.65890679970E+03  0.65906814102E+03  0.00000000000E+00 0. -1.
         13    1    5    5    0    0 -0.12442976771E+01  0.83021619830E+01  0.37082888979E+03  0.37092390011E+03  0.00000000000E+00 0. -1.
        -14    1    5    5    0    0  0.16296685215E+02 -0.43782331124E+02  0.13567928708E+03  0.14349684112E+03  0.00000000000E+00 0.  1.
          5    1    4    4  501    0 -0.33581865561E+02 -0.14166355935E+02 -0.84645739534E+02  0.92254002386E+02  0.41800000000E+01 0.  1.
         -5    1    4    4    0  501  0.22215040356E+02  0.74329406748E+02 -0.15253570730E+02  0.79173938550E+02  0.41800000000E+01 0.  1.
</event>
<event>
11    1  0.1003949E-008  0.1500325E+03  0.7561462E-02  0.1096846E+00
         22   -1    0    0    0    0  0.00000000000E+00  0.00000000000E+00  0.11131987505E+04  0.11131987505E+04  0.00000000000E+00 0. -1.
         22   -1    0    0    0    0 -0.00000000000E+00 -0.00000000000E+00 -0.10678529919E+03  0.10678529919E+03  0.00000000000E+00 0. -1.
        -24    2    1    2    0    0 -0.68613917926E+02 -0.46033835624E+02 -0.10859304176E+02  0.11585733680E+03  0.80486112149E+02 0.  0.
         25    2    1    2    0    0  0.42788109024E+02  0.80626820700E+02  0.10461910270E+03  0.18687921124E+03  0.12508867437E+03 0.  0.
         24    2    1    2    0    0  0.25825808902E+02 -0.34592985076E+02  0.91265365282E+03  0.91724750168E+03  0.80886601532E+02 0.  0.
        -13    1    5    5    0    0  0.33962275338E+02 -0.12049604263E+02  0.15188829521E+03  0.15610471912E+03  0.00000000000E+00 0.  1.
         14    1    5    5    0    0 -0.81364664360E+01 -0.22543380813E+02  0.76076535761E+03  0.76114278256E+03  0.00000000000E+00 0. -1.
         13    1    3    3    0    0 -0.28905003518E+02 -0.60760378636E+02 -0.24120266082E+02  0.71478039118E+02  0.00000000000E+00 0. -1.
        -14    1    3    3    0    0 -0.39708914407E+02  0.14726543012E+02  0.13260961905E+02  0.44379297686E+02  0.00000000000E+00 0.  1.
          5    1    4    4  501    0 -0.38854378868E+02  0.37344458279E+02  0.10787285081E+02  0.55119046080E+02  0.41800000000E+01 0.  1.
         -5    1    4    4    0  501  0.81642487892E+02  0.43282362421E+02  0.93831817614E+02  0.13176016516E+03  0.41800000000E+01 0.  1.
</event>
<event>
11    1  0.1003949E-008  0.2019209E+03  0.7561462E-02  0.1053174E+00
         22   -1    0    0    0    0  0.00000000000E+00  0.00000000000E+00  0.18175665696E+03  0.18175665696E+03  0.00000000000E+00 0. -1.
         22   -1    0    0    0    0 -0.00000000000E+00 -0.00000000000E+00 -0.90616815330E+03  0.90616815330E+03  0.00000000000E+00 0.  1.
        -24    2    1    2    0    0  0.26163707795E+02 -0.42641624429E+01 -0.56756257713E+03  0.57352042883E+03  0.78074840018E+02 0.  0.
         25    2    1    2    0    0  0.38667047404E+02 -0.14299291068E+03 -0.24543657202E+03  0.31277538285E+03  0.12508883312E+03 0.  0.
         24    2    1    2    0    0 -0.64830755200E+02  0.14725707313E+03  0.88587652816E+02  0.20162899857E+03  0.83179375009E+02 0.  0.
        -11    1    5    5    0    0 -0.17679406341E+02 -0.43378653870E+01 -0.28432487213E+01  0.18424509437E+02  0.00000000000E+00 0.  1.
         12    1    5    5    0    0 -0.47151348858E+02  0.15159493851E+03  0.91430901537E+02  0.18320448913E+03  0.00000000000E+00 0. -1.
         13    1    3    3    0    0  0.43447609193E+02  0.30292447045E+01 -0.16917161934E+03  0.17468803010E+03  0.00000000000E+00 0. -1.
        -14    1    3    3    0    0 -0.17283901398E+02 -0.72934071474E+01 -0.39839095779E+03  0.39883239874E+03  0.00000000000E+00 0.  1.
          5    1    4    4  501    0 -0.44030135946E+01 -0.71270616612E+02 -0.23073406581E+02  0.75158112085E+02  0.41800000000E+01 0. -1.
         -5    1    4    4    0  501  0.43070060999E+02 -0.71722294073E+02 -0.22236316544E+03  0.23761727077E+03  0.41800000000E+01 0. -1.
</event>
<event>
11    1  0.1003949E-008  0.1315669E+03  0.7561462E-02  0.1117359E+00
         22   -1    0    0    0    0  0.00000000000E+00  0.00000000000E+00  0.53452678565E+03  0.53452678565E+03  0.00000000000E+00 0. -1.
         22   -1    0    0    0    0 -0.00000000000E+00 -0.00000000000E+00 -0.93124781497E+03  0.93124781497E+03  0.00000000000E+00 0. -1.
         24    2    1    2    0    0  0.16743558682E+02  0.28376140802E+02 -0.78787094411E+03  0.79274833821E+03  0.81386430302E+02 0.  0.
         25    2    1    2    0    0  0.11322954395E+02 -0.57559167990E+02 -0.10190950425E+03  0.17168373201E+03  0.12509392337E+03 0.  0.
        -24    2    1    2    0    0 -0.28066513077E+02  0.29183027188E+02  0.49305941903E+03  0.50134253039E+03  0.81224158046E+02 0.  0.
        -11    1    3    3    0    0  0.59659296813E+01 -0.86600927424E+01 -0.12149981305E+02  0.16068962910E+02  0.00000000000E+00 0.  1.
         12    1    3    3    0    0  0.10777629001E+02  0.37036233544E+02 -0.77572096281E+03  0.77667937530E+03  0.00000000000E+00 0. -1.
         11    1    5    5    0    0 -0.29602099421E+01  0.24269905906E+02  0.45395718270E+03  0.45461512832E+03  0.00000000000E+00 0. -1.
        -12    1    5    5    0    0 -0.25106303135E+02  0.49131212821E+01  0.39102236335E+02  0.46727402070E+02  0.00000000000E+00 0.  1.
          5    1    4    4  501    0 -0.34200623765E+02 -0.77190267078E+02 -0.43863786420E+02  0.95234049355E+02  0.41800000000E+01 0. -1.
         -5    1    4    4    0  501  0.45523578160E+02  0.19631099087E+02 -0.58045717826E+02  0.76449682654E+02  0.41800000000E+01 0. -1.
</event>
<event>
11    1  0.1003949E-008  0.1801819E+03  0.7561462E-02  0.1069496E+00
         22   -1    0    0    0    0  0.00000000000E+00  0.00000000000E+00  0.28522967759E+04  0.28522967759E+04  0.00000000000E+00 0.  1.
         22   -1    0    0    0    0 -0.00000000000E+00 -0.00000000000E+00 -0.10355926449E+03  0.10355926449E+03  0.00000000000E+00 0.  1.
        -24    2    1    2    0    0  0.76397490801E+02  0.12396498235E+02 -0.27784311324E+02  0.11475130581E+03  0.80035270099E+02 0.  0.
         25    2    1    2    0    0 -0.18289183011E+03  0.53765109241E+02  0.40423828867E+03  0.46410782363E+03  0.12508944576E+03 0.  0.
         24    2    1    2    0    0  0.10649433930E+03 -0.66161607476E+02  0.23722835341E+04  0.23769969110E+04  0.81650144331E+02 0.  0.
        -11    1    5    5    0    0  0.69547847488E+02 -0.83360212545E+02  0.17897860022E+04  0.17930755037E+04  0.00000000000E+00 0.  1.
         12    1    5    5    0    0  0.36946491816E+02  0.17198605069E+02  0.58249753186E+03  0.58392140729E+03  0.00000000000E+00 0. -1.
         11    1    3    3    0    0  0.91224180559E+01  0.27271690980E+02  0.16202673730E+02  0.33007427590E+02  0.00000000000E+00 0. -1.
        -12    1    3    3    0    0  0.67275072745E+02 -0.14875192745E+02 -0.43986985054E+02  0.81743878219E+02  0.00000000000E+00 0.  1.
          5    1    4    4  501    0 -0.12716652709E+02 -0.31980766832E+02  0.39401990547E+02  0.52483063576E+02  0.41800000000E+01 0. -1.
         -5    1    4    4    0  501 -0.17017517740E+03  0.85745876072E+02  0.36483629812E+03  0.41162476006E+03  0.41800000000E+01 0. -1.
</event>
<event>
11    1  0.1003949E-008  0.1406662E+03  0.7561462E-02  0.1106817E+00
         22   -1    0    0    0    0  0.00000000000E+00  0.00000000000E+00  0.33492502416E+03  0.33492502416E+03  0.00000000000E+00 0.  1.
         22   -1    0    0    0    0 -0.00000000000E+00 -0.00000000000E+00 -0.15069775189E+04  0.15069775189E+04  0.00000000000E+00 0. -1.
         24    2    1    2    0    0 -0.10417849381E+02 -0.18587554299E+02 -0.95662720355E+03  0.96026260471E+03  0.80713286834E+02 0.  0.
         25    2    1    2    0    0  0.70051389486E+02 -0.54443514475E+01 -0.53073895840E+03  0.54978961094E+03  0.12509171118E+03 0.  0.
        -24    2    1    2    0    0 -0.59633540105E+02  0.24031905747E+02  0.31531366725E+03  0.33185032737E+03  0.81044675495E+02 0.  0.
        -13    1    3    3    0    0 -0.11812452000E+02 -0.22481137291E+02 -0.87129979979E+02  0.90755545105E+02  0.00000000000E+00 0.  1.
         14    1    3    3    0    0  0.13946026187E+01  0.38935829919E+01 -0.86949722357E+03  0.86950705960E+03  0.00000000000E+00 0. -1.
         11    1    5    5    0    0 -0.45896669640E+02  0.52991833166E+02  0.19060511112E+03  0.20308852023E+03  0.00000000000E+00 0. -1.
        -12    1    5    5    0    0 -0.13736870465E+02 -0.28959927419E+02  0.12470855613E+03  0.12876180714E+03  0.00000000000E+00 0.  1.
          5    1    4    4  501    0  0.19352937321E+01 -0.39574258627E+02 -0.54684522155E+02  0.67658973322E+02  0.41800000000E+01 0. -1.
         -5    1    4    4    0  501  0.68116095754E+02  0.34129907179E+02 -0.47605443624E+03  0.48213063762E+03  0.41800000000E+01 0. -1.
</event>
<event>
11    1  0.1003949E-008  0.1486355E+03  0.7561462E-02  0.1098281E+00
         22   -1    0    0    0    0  0.00000000000E+00  0.00000000000E+00  0.15589248375E+04  0.15589248375E+04  0.00000000000E+00 0. -1.
         22   -1    0    0    0    0 -0.00000000000E+00 -0.00000000000E+00 -0.55104996429E+03  0.55104996429E+03  0.00000000000E+00 0.  1.
        -24    2    1    2    0    0 -0.68539823242E+02 -0.57113645241E+01 -0.48772256346E+03  0.49956235442E+03  0.83420141348E+02 0.  0.
         25    2    1    2    0    0  0.93752320449E+02  0.80731615799E+02  0.85338985007E+02  0.19554511402E+03  0.12509219749E+03 0.  0.
         24    2    1    2    0    0 -0.25212497207E+02 -0.75020251275E+02  0.14102584517E+04  0.14148673334E+04  0.82200744389E+02 0.  0.
        -13    1    5    5    0    0 -0.51081347632E+02 -0.56142827739E+02  0.74958817488E+03  0.75342136491E+03  0.00000000000E+00 0.  1.
         14    1    5    5    0    0  0.25868850426E+02 -0.18877423536E+02  0.66067027682E+03  0.66144596847E+03  0.00000000000E+00 0. -1.
         13    1    3    3    0    0 -0.72194481393E+01 -0.29393266389E+02 -0.64296604449E+02  0.71064322161E+02  0.00000000000E+00 0. -1.
        -14    1    3    3    0    0 -0.61320375103E+02  0.23681901865E+02 -0.42342595901E+03  0.42849803225E+03  0.00000000000E+00 0.  1.
          5    1    4    4  501    0 -0.26082858283E+02  0.76983660111E+01  0.38936280926E+02  0.47676899100E+02  0.41800000000E+01 0. -1.
         -5    1    4    4    0  501  0.11983517873E+03  0.73033249788E+02  0.46402704082E+02  0.14786821492E+03  0.41800000000E+01 0. -1.
</event>
<event>
11    1  0.1003949E-008  0.1609688E+03  0.7561462E-02  0.1086170E+00
         22   -1    0    0    0    0  0.00000000000E+00  0.00000000000E+00  0.22351089090E+04  0.22351089090E+04  0.00000000000E+00 0. -1.
         22   -1    0    0    0    0 -0.00000000000E+00 -0.00000000000E+00 -0.12650707043E+04  0.12650707043E+04  0.00000000000E+00 0.  1.
         24    2    1    2    0    0  0.40280345992E+02 -0.92441638836E+02 -0.12187594341E+04  0.12255944222E+04  0.80865113727E+02 0.  0.
         25    2    1    2    0    0 -0.61094028632E+02  0.11347770092E+03  0.14999473667E+03  0.23399459988E+03  0.12508150465E+03 0.  0.
        -24    2    1    2    0    0  0.20813682640E+02 -0.21036062083E+02  0.20388029021E+04  0.20405905912E+04  0.80105941769E+02 0.  0.
        -13    1    3    3    0    0  0.55882039863E+02 -0.97898756125E+02 -0.10604400742E+04  0.10664146097E+04  0.00000000000E+00 0.  1.
         14    1    3    3    0    0 -0.15601693871E+02  0.54571172897E+01 -0.15831935992E+03  0.15917981249E+03  0.00000000000E+00 0. -1.
         13    1    5    5    0    0  0.16705853536E+01 -0.40993182877E+02  0.17466545690E+04  0.17471363470E+04  0.00000000000E+00 0. -1.
        -14    1    5    5    0    0  0.19143097286E+02  0.19957120794E+02  0.29214833317E+03  0.29345424416E+03  0.00000000000E+00 0.  1.
          5    1    4    4  501    0 -0.69515575197E+02  0.51180891557E+02  0.14748532309E+03  0.17094236392E+03  0.41800000000E+01 0. -1.
         -5    1    4    4    0  501  0.84215465651E+01  0.62296809362E+02  0.25094135798E+01  0.63052235961E+02  0.41800000000E+01 0. -1.
</event>
<event>
11    1  0.1003949E-008  0.1618199E+03  0.7561462E-02  0.1085378E+00
         22   -1    0    0    0    0  0.00000000000E+00  0.00000000000E+00  0.19123472111E+04  0.19123472111E+04  0.00000000000E+00 0. -1.
         22   -1    0    0    0    0 -0.00000000000E+00 -0.00000000000E+00 -0.57273520975E+03  0.57273520975E+03  0.00000000000E+00 0.  1.
         24    2    1    2    0    0 -0.11844584630E+02  0.11645970294E+02 -0.55440581084E+03  0.56112289966E+03  0.84954002961E+02 0.  0.
         25    2    1    2    0    0 -0.15177378421E+02  0.90493664783E+02  0.49737015368E+03  0.52100236482E+03  0.12508772199E+03 0.  0.
        -24    2    1    2    0    0  0.27021963052E+02 -0.10213963508E+03  0.13966476585E+04  0.14029571564E+04  0.80631315884E+02 0.  0.
        -11    1    3    3    0    0 -0.16128538529E+01 -0.19180700192E+02 -0.47419301075E+03  0.47458351425E+03  0.00000000000E+00 0.  1.
         12    1    3    3    0    0 -0.10231730778E+02  0.30826670486E+02 -0.80212800088E+02  0.86539385403E+02  0.00000000000E+00 0. -1.
         11    1    5    5    0    0  0.30226372261E+02 -0.64629061250E+02  0.12318301888E+04  0.12338947132E+04  0.00000000000E+00 0. -1.
        -12    1    5    5    0    0 -0.32044092097E+01 -0.37510573827E+02  0.16481746971E+03  0.16906244322E+03  0.00000000000E+00 0.  1.
          5    1    4    4  501    0  0.41883658906E+02  0.83441611859E+02  0.36199359987E+03  0.37386305276E+03  0.41800000000E+01 0.  1.
         -5    1    4    4    0  501 -0.57061037327E+02  0.70520529232E+01  0.13537655382E+03  0.14713931206E+03  0.41800000000E+01 0.  1.
</event>
<event>
11    1  0.1003949E-008  0.1432778E+03  0.7561462E-02  0.1103952E+00
         22   -1    0    0    0    0  0.00000000000E+00  0.00000000000E+00  0.11903047295E+03  0.11903047295E+03  0.00000000000E+00 0. -1.
         22   -1    0    0    0    0 -0.00000000000E+00 -0.00000000000E+00 -0.80765662594E+03  0.80765662594E+03  0.00000000000E+00 0.  1.
        -24    2    1    2    0    0 -0.63922668392E+02  0.43584907048E+02 -0.58739104489E+03  0.59782942870E+03  0.79912668255E+02 0.  0.
         25    2    1    2    0    0  0.42115823932E+02 -0.32119898206E+01 -0.16927947313E+03  0.21468074552E+03  0.12509285739E+03 0.  0.
         24    2    1    2    0    0  0.21806844459E+02 -0.40372917227E+02  0.68044365033E+02  0.11417692466E+03  0.79377727361E+02 0.  0.
        -13    1    5    5    0    0 -0.21336723911E+02 -0.20254498685E+02 -0.20000146530E+01  0.29487294939E+02  0.00000000000E+00 0.  1.
         14    1    5    5    0    0  0.43143568370E+02 -0.20118418542E+02  0.70044379686E+02  0.84689629719E+02  0.00000000000E+00 0. -1.
         11    1    3    3    0    0  0.25622184842E+01  0.12970629264E+02 -0.12168496010E+02  0.17968708418E+02  0.00000000000E+00 0. -1.
        -12    1    3    3    0    0 -0.66484886876E+02  0.30614277783E+02 -0.57522254888E+03  0.57986072028E+03  0.00000000000E+00 0.  1.
          5    1    4    4  501    0  0.81497287299E+02 -0.77160902908E+01 -0.14876703923E+03  0.16985420291E+03  0.41800000000E+01 0. -1.
         -5    1    4    4    0  501 -0.39381463366E+02  0.45041004702E+01 -0.20512433908E+02  0.44826542614E+02  0.41800000000E+01 0. -1.
</event>
<event>
11    1  0.1003949E-008  0.2241660E+03  0.7561462E-02  0.1038639E+00
         22   -1    0    0    0    0  0.00000000000E+00  0.00000000000E+00  0.55463694537E+03  0.55463694537E+03  0.00000000000E+00 0.  1.
         22   -1    0    0    0    0 -0.00000000000E+00 -0.00000000000E+00 -0.54259596697E+03  0.54259596697E+03  0.00000000000E+00 0. -1.
         24    2    1    2    0    0 -0.28914387189E+02  0.15625053986E+03 -0.27436479428E+03  0.33510060004E+03  0.10847164981E+03 0.  0.
         25    2    1    2    0    0  0.67019691424E+02 -0.27093337767E+03 -0.12122832097E+03  0.32899950579E+03  0.12509130597E+03 0.  0.
        -24    2    1    2    0    0 -0.38105304236E+02  0.11468283781E+03  0.40763409365E+03  0.43313280651E+03  0.82669863142E+02 0.  0.
        -11    1    3    3    0    0  0.18188825904E+02  0.53382626037E+02 -0.25839416683E+02  0.62033971377E+02  0.00000000000E+00 0.  1.
         12    1    3    3    0    0 -0.47103213093E+02  0.10286791383E+03 -0.24852537760E+03  0.27306662866E+03  0.00000000000E+00 0. -1.
         13    1    5    5    0    0 -0.16050910821E+01 -0.92644714092E+01  0.86042934381E+02  0.86555146033E+02  0.00000000000E+00 0. -1.
        -14    1    5    5    0    0 -0.36500213154E+02  0.12394730922E+03  0.32159115927E+03  0.34657766048E+03  0.00000000000E+00 0.  1.
          5    1    4    4  501    0  0.24478440577E+02 -0.74159113110E+02  0.22760719364E+02  0.81451156261E+02  0.41800000000E+01 0. -1.
         -5    1    4    4    0  501  0.42541250848E+02 -0.19677426456E+03 -0.14398904034E+03  0.24754834953E+03  0.41800000000E+01 0. -1.
</event>
<event>
11    1  0.1003949E-008  0.1292683E+03  0.7561462E-02  0.1120171E+00
         22   -1    0    0    0    0  0.00000000000E+00  0.00000000000E+00  0.49423524898E+03  0.49423524898E+03  0.00000000000E+00 0. -1.
         22   -1    0    0    0    0 -0.00000000000E+00 -0.00000000000E+00 -0.42503465229E+03  0.42503465229E+03  0.00000000000E+00 0. -1.
        -24    2    1    2    0    0 -0.27577183103E+02  0.55179521473E+01 -0.26881622748E+03  0.28240400257E+03  0.81846855081E+02 0.  0.
         25    2    1    2    0    0  0.10077966418E+02 -0.33342881190E+02 -0.11580583355E+03  0.17399235974E+03  0.12509611118E+03 0.  0.
         24    2    1    2    0    0  0.17499216685E+02  0.27824929043E+02  0.45382265772E+03  0.46287353895E+03  0.84949744808E+02 0.  0.
        -11    1    5    5    0    0 -0.19756884035E+02  0.83660914677E+01  0.29515258150E+02  0.36489401432E+02  0.00000000000E+00 0.  1.
         12    1    5    5    0    0  0.37256100720E+02  0.19458837575E+02  0.42430739957E+03  0.42638413752E+03  0.00000000000E+00 0. -1.
         13    1    3    3    0    0 -0.49346833667E+01  0.35591309104E+02 -0.57814812363E+02  0.68070881530E+02  0.00000000000E+00 0. -1.
        -14    1    3    3    0    0 -0.22642499736E+02 -0.30073356957E+02 -0.21100141512E+03  0.21433312104E+03  0.00000000000E+00 0.  1.
          5    1    4    4  501    0  0.56499718530E+02 -0.34215608040E+02 -0.10808590203E+03  0.12673973586E+03  0.41800000000E+01 0.  1.
         -5    1    4    4    0  501 -0.46421752112E+02  0.87272684998E+00 -0.77199315188E+01  0.47252623884E+02  0.41800000000E+01 0.  1.
</event>
<event>
11    1  0.1003949E-008  0.1758111E+03  0.7561462E-02  0.1073082E+00
         22   -1    0    0    0    0  0.00000000000E+00  0.00000000000E+00  0.22731115663E+03  0.22731115663E+03  0.00000000000E+00 0. -1.
         22   -1    0    0    0    0 -0.00000000000E+00 -0.00000000000E+00 -0.16514435776E+04  0.16514435776E+04  0.00000000000E+00 0. -1.
        -24    2    1    2    0    0 -0.15562367539E+02  0.48079605115E+02 -0.15231892891E+04  0.15261847539E+04  0.81120017084E+02 0.  0.
         25    2    1    2    0    0  0.29517628383E+02 -0.15403611686E+03  0.34943542689E+02  0.20363512163E+03  0.12509115038E+03 0.  0.
         24    2    1    2    0    0 -0.13955260844E+02  0.10595651174E+03  0.64113325387E+02  0.14893485866E+03  0.81544723597E+02 0.  0.
        -13    1    5    5    0    0 -0.24686999961E+02 -0.26671590264E+01  0.72976332286E+01  0.25880826013E+02  0.00000000000E+00 0.  1.
         14    1    5    5    0    0  0.10731739118E+02  0.10862367077E+03  0.56815692158E+02  0.12305403265E+03  0.00000000000E+00 0. -1.
         11    1    3    3    0    0 -0.33267868140E+02  0.51407302199E+02 -0.14276003781E+04  0.14289129789E+04  0.00000000000E+00 0. -1.
        -12    1    3    3    0    0  0.17705500601E+02 -0.33276970838E+01 -0.95588910984E+02  0.97271775056E+02  0.00000000000E+00 0.  1.
          5    1    4    4  501    0 -0.30728405114E+01  0.16723437499E+01 -0.30927014871E+02  0.31403689771E+02  0.41800000000E+01 0.  1.
         -5    1    4    4    0  501  0.32590468894E+02 -0.15570846060E+03  0.65870557559E+02  0.17223143186E+03  0.41800000000E+01 0.  1.
</event>
<event>
11    1  0.1003949E-008  0.1995834E+03  0.7561462E-02  0.1054819E+00
         22   -1    0    0    0    0  0.00000000000E+00  0.00000000000E+00  0.64816232099E+03  0.64816232099E+03  0.00000000000E+00 0.  1.
         22   -1    0    0    0    0 -0.00000000000E+00 -0.00000000000E+00 -0.41589982803E+03  0.41589982803E+03  0.00000000000E+00 0.  1.
         24    2    1    2    0    0  0.63205041122E+02 -0.37680608813E+01 -0.17600975366E+03  0.20573181343E+03  0.85656699511E+02 0.  0.
         25    2    1    2    0    0 -0.84184064268E+02  0.15710439026E+03 -0.15595778382E+03  0.26783784729E+03  0.12508211699E+03 0.  0.
        -24    2    1    2    0    0  0.20979023146E+02 -0.15333632938E+03  0.56423003044E+03  0.59049248829E+03  0.79835469265E+02 0.  0.
        -11    1    3    3    0    0  0.20447527069E+02 -0.40196025075E+02 -0.47586275534E+02  0.65561234081E+02  0.00000000000E+00 0.  1.
         12    1    3    3    0    0  0.42757514053E+02  0.36427964194E+02 -0.12842347812E+03  0.14017057935E+03  0.00000000000E+00 0. -1.
         11    1    5    5    0    0  0.31234378475E+02 -0.27356472171E+02  0.81211896510E+02  0.91210389228E+02  0.00000000000E+00 0. -1.
        -12    1    5    5    0    0 -0.10255355329E+02 -0.12597985721E+03  0.48301813393E+03  0.49928209906E+03  0.00000000000E+00 0.  1.
          5    1    4    4  501    0 -0.11522606112E+03  0.10885662325E+03 -0.99289956363E+02  0.18709029216E+03  0.41800000000E+01 0. -1.
         -5    1    4    4    0  501  0.31041996852E+02  0.48247767013E+02 -0.56667827459E+02  0.80747555128E+02  0.41800000000E+01 0. -1.
</event>
<event>
11    1  0.1003949E-008  0.2600139E+03  0.7561462E-02  0.1018696E+00
         22   -1    0    0    0    0  0.00000000000E+00  0.00000000000E+00  0.16134373734E+03  0.16134373734E+03  0.00000000000E+00 0. -1.
         22   -1    0    0    0    0 -0.00000000000E+00 -0.00000000000E+00 -0.59979980264E+03  0.59979980264E+03  0.00000000000E+00 0.  1.
         24    2    1    2    0    0  0.88310157529E+02 -0.18816311457E+03 -0.17660952961E+03  0.28444690724E+03  0.80716017509E+02 0.  0.
         25    2    1    2    0    0 -0.13973128241E+03  0.21071902343E+03 -0.25071885662E+03  0.37741925506E+03  0.12513197394E+03 0.  0.
        -24    2    1    2    0    0  0.51421124884E+02 -0.22555908860E+02 -0.11127679061E+02  0.99277377676E+02  0.81112707809E+02 0.  0.
        -13    1    3    3    0    0  0.28166785387E+02 -0.11757953602E+03 -0.13939898329E+03  0.18452748205E+03  0.00000000000E+00 0.  1.
         14    1    3    3    0    0  0.60143372142E+02 -0.70583578548E+02 -0.37210546329E+02  0.99919425196E+02  0.00000000000E+00 0. -1.
         13    1    5    5    0    0 -0.16792512264E+02  0.13344312361E+02 -0.44418006937E+01  0.21904080304E+02  0.00000000000E+00 0. -1.
        -14    1    5    5    0    0  0.68213637148E+02 -0.35900221221E+02 -0.66858783675E+01  0.77373297372E+02  0.00000000000E+00 0.  1.
          5    1    4    4  501    0 -0.89776564549E+02  0.12513451897E+03 -0.22880888003E+03  0.27584317168E+03  0.41800000000E+01 0.  1.
         -5    1    4    4    0  501 -0.49954717865E+02  0.85584504457E+02 -0.21909976590E+02  0.10157608338E+03  0.41800000000E+01 0.  1.
</event>
<event>
11    1  0.1003949E-008  0.1384514E+03  0.7561462E-02  0.1109300E+00
         22   -1    0    0    0    0  0.00000000000E+00  0.00000000000E+00  0.51315225440E+03  0.51315225440E+03  0.00000000000E+00 0.  1.
         22   -1    0    0    0    0 -0.00000000000E+00 -0.00000000000E+00 -0.29695997812E+03  0.29695997812E+03  0.00000000000E+00 0. -1.
         24    2    1    2    0    0  0.40136593626E+02 -0.41438042953E+02 -0.22696711382E+03  0.24715263571E+03  0.79008208621E+02 0.  0.
         25    2    1    2    0    0 -0.61630978643E+02  0.44736738288E+02  0.41698738551E+02  0.15227169618E+03  0.12509249130E+03 0.  0.
        -24    2    1    2    0    0  0.21494385016E+02 -0.32986953356E+01  0.40146065155E+03  0.41068790064E+03  0.83791449478E+02 0.  0.
        -13    1    3    3    0    0  0.14363063066E+02  0.19532693998E+02 -0.11105821311E+03  0.11367387745E+03  0.00000000000E+00 0.  1.
         14    1    3    3    0    0  0.25773530560E+02 -0.60970736951E+02 -0.11590890071E+03  0.13347875825E+03  0.00000000000E+00 0. -1.
         11    1    5    5    0    0 -0.16897707019E+01 -0.13019467795E+02  0.60098903881E+01  0.14438858998E+02  0.00000000000E+00 0. -1.
        -12    1    5    5    0    0  0.23184155718E+02  0.97207724590E+01  0.39545076117E+03  0.39624904164E+03  0.00000000000E+00 0.  1.
          5    1    4    4  501    0 -0.67300918538E+02  0.10405124152E+02  0.76758612221E+02  0.10269876920E+03  0.41800000000E+01 0.  1.
         -5    1    4    4    0  501  0.56699398955E+01  0.34331614137E+02 -0.35059873669E+02  0.49572926980E+02  0.41800000000E+01 0.  1.
</event>
<event>
11    1  0.1003949E-008  0.2151468E+03  0.7561462E-02  0.1044301E+00
         22   -1    0    0    0    0  0.00000000000E+00  0.00000000000E+00  0.22684830518E+03  0.22684830518E+03  0.00000000000E+00 0.  1.
         22   -1    0    0    0    0 -0.00000000000E+00 -0.00000000000E+00 -0.51934798692E+03  0.51934798692E+03  0.00000000000E+00 0. -1.
         24    2    1    2    0    0  0.13362451577E+03 -0.12259896906E+03 -0.40054622868E+03  0.44670441712E+03  0.78876717346E+02 0.  0.
         25    2    1    2    0    0 -0.94794585912E+02  0.95464877507E+02  0.92211834318E+02  0.20554801568E+03  0.12508959992E+03 0.  0.
        -24    2    1    2    0    0 -0.38829929853E+02  0.27134091556E+02  0.15834712624E+02  0.93943859288E+02  0.79565621955E+02 0.  0.
        -13    1    3    3    0    0  0.84869522328E+02 -0.38625199919E+02 -0.13596038619E+03  0.16486348444E+03  0.00000000000E+00 0.  1.
         14    1    3    3    0    0  0.48754993437E+02 -0.83973769145E+02 -0.26458584249E+03  0.28184093268E+03  0.00000000000E+00 0. -1.
         11    1    5    5    0    0 -0.37196559595E+02 -0.83167258265E+01  0.36586898451E+02  0.52833257637E+02  0.00000000000E+00 0. -1.
        -12    1    5    5    0    0 -0.16333702578E+01  0.35450817383E+02 -0.20752185828E+02  0.41110601651E+02  0.00000000000E+00 0.  1.
          5    1    4    4  501    0 -0.95416683870E+01 -0.89329323243E+01 -0.23925024058E+02  0.27581151022E+02  0.41800000000E+01 0. -1.
         -5    1    4    4    0  501 -0.85252917525E+02  0.10439780983E+03  0.11613685838E+03  0.17796686466E+03  0.41800000000E+01 0. -1.
</event>
<event>
11    1  0.1003949E-008  0.1640450E+03  0.7561462E-02  0.1083333E+00
         22   -1    0    0    0    0  0.00000000000E+00  0.00000000000E+00  0.73605233229E+03  0.73605233229E+03  0.00000000000E+00 0. -1.
         22   -1    0    0    0    0 -0.00000000000E+00 -0.00000000000E+00 -0.14677860131E+04  0.14677860131E+04  0.00000000000E+00 0. -1.
        -24    2    1    2    0    0  0.85979021456E+02  0.63498947175E+02 -0.14178078863E+04  0.14240762618E+04  0.79934277474E+02 0.  0.
         25    2    1    2    0    0 -0.92447765434E+02  0.50473762899E+01  0.10063416638E+03  0.18532740697E+03  0.12508775716E+03 0.  0.
         24    2    1    2    0    0  0.64687439785E+01 -0.68546323465E+02  0.58544003907E+03  0.59443467660E+03  0.76629643655E+02 0.  0.
        -13    1    5    5    0    0  0.87319475279E+01  0.89462510822E+01  0.19193698542E+02  0.22905902728E+02  0.00000000000E+00 0.  1.
         14    1    5    5    0    0 -0.22632035494E+01 -0.77492574547E+02  0.56624634053E+03  0.57152877387E+03  0.00000000000E+00 0. -1.
         13    1    3    3    0    0  0.66005540034E+02  0.74180982903E+02 -0.84390065097E+03  0.84972222417E+03  0.00000000000E+00 0. -1.
        -14    1    3    3    0    0  0.19973481422E+02 -0.10682035728E+02 -0.57390723529E+03  0.57435403765E+03  0.00000000000E+00 0.  1.
          5    1    4    4  501    0 -0.10537003995E+03 -0.26460800957E+02  0.40359661654E+02  0.11597152235E+03  0.41800000000E+01 0. -1.
         -5    1    4    4    0  501  0.12922274516E+02  0.31508177247E+02  0.60274504724E+02  0.69355884623E+02  0.41800000000E+01 0. -1.
</event>
<event>
11    1  0.1003949E-008  0.1503425E+03  0.7561462E-02  0.1096529E+00
         22   -1    0    0    0    0  0.00000000000E+00  0.00000000000E+00  0.11159247151E+03  0.11159247151E+03  0.00000000000E+00 0. -1.
         22   -1    0    0    0    0 -0.00000000000E+00 -0.00000000000E+00 -0.61187448007E+03  0.61187448007E+03  0.00000000000E+00 0. -1.
        -24    2    1    2    0    0  0.58359411154E+02  0.13910611021E+02 -0.38076387171E+03  0.39350441880E+03  0.79153494195E+02 0.  0.
         25    2    1    2    0    0 -0.46550323650E+02  0.72797057723E+02 -0.13756537197E+03  0.20502115203E+03  0.12507236693E+03 0.  0.
         24    2    1    2    0    0 -0.11809087504E+02 -0.86707668744E+02  0.18047235123E+02  0.12494138076E+03  0.87332534395E+02 0.  0.
        -11    1    5    5    0    0 -0.72862030908E+01 -0.14435147354E+00 -0.26499488647E+02  0.27483312962E+02  0.00000000000E+00 0.  1.
         12    1    5    5    0    0 -0.45228844134E+01 -0.86563317270E+02  0.44546723770E+02  0.97458067798E+02  0.00000000000E+00 0. -1.
         11    1    3    3    0    0  0.53031892447E+02  0.37340173131E+02 -0.34045165393E+03  0.34657466556E+03  0.00000000000E+00 0. -1.
        -12    1    3    3    0    0  0.53275187071E+01 -0.23429562110E+02 -0.40312217777E+02  0.46929753231E+02  0.00000000000E+00 0.  1.
          5    1    4    4  501    0 -0.15782308488E+02  0.10198982357E+03 -0.68748334774E+02  0.12407582886E+03  0.41800000000E+01 0. -1.
         -5    1    4    4    0  501 -0.30768015162E+02 -0.29192765846E+02 -0.68817037200E+02  0.80945323174E+02  0.41800000000E+01 0. -1.
</event>
<event>
11    1  0.1003949E-008  0.1836253E+03  0.7561462E-02  0.1066748E+00
         22   -1    0    0    0    0  0.00000000000E+00  0.00000000000E+00  0.12404279892E+04  0.12404279892E+04  0.00000000000E+00 0.  1.
         22   -1    0    0    0    0 -0.00000000000E+00 -0.00000000000E+00 -0.30669776689E+03  0.30669776689E+03  0.00000000000E+00 0. -1.
        -24    2    1    2    0    0 -0.14856946640E+03  0.75100487609E+01 -0.23232921250E+03  0.28730977132E+03  0.80254311656E+02 0.  0.
         25    2    1    2    0    0  0.55836006880E+02  0.79763440192E+02  0.10957943294E+03  0.19270353472E+03  0.12508850513E+03 0.  0.
         24    2    1    2    0    0  0.92733459517E+02 -0.87273488953E+02  0.10564800019E+04  0.10671124501E+04  0.79767351161E+02 0.  0.
        -13    1    5    5    0    0  0.15304356173E+02 -0.53837877737E+02  0.62263189775E+03  0.62514256014E+03  0.00000000000E+00 0.  1.
         14    1    5    5    0    0  0.77429103344E+02 -0.33435611216E+02  0.43384810413E+03  0.44196988993E+03  0.00000000000E+00 0. -1.
         11    1    3    3    0    0 -0.96535492415E+02  0.82510458906E+01 -0.20882932685E+03  0.23021048805E+03  0.00000000000E+00 0. -1.
        -12    1    3    3    0    0 -0.52033973982E+02 -0.74099712971E+00 -0.23499885649E+02  0.57099283276E+02  0.00000000000E+00 0.  1.
          5    1    4    4  501    0  0.53794178732E+02  0.21153414981E+02 -0.10597195789E+02  0.58915648086E+02  0.41800000000E+01 0. -1.
         -5    1    4    4    0  501  0.20418281485E+01  0.58610025211E+02  0.12017662873E+03  0.13378788663E+03  0.41800000000E+01 0. -1.
</event>
<event>
11    1  0.1003949E-008  0.1526556E+03  0.7561462E-02  0.1094196E+00
         22   -1    0    0    0    0  0.00000000000E+00  0.00000000000E+00  0.44007391957E+02  0.44007391957E+02  0.00000000000E+00 0. -1.
         22   -1    0    0    0    0 -0.00000000000E+00 -0.00000000000E+00 -0.18430646782E+04  0.18430646782E+04  0.00000000000E+00 0.  1.
         24    2    1    2    0    0 -0.74350591612E+02  0.47282100782E+02 -0.14500537463E+04  0.14548915540E+04  0.79309263051E+02 0.  0.
         25    2    1    2    0    0  0.95792581447E+02  0.23879772807E+01 -0.22880860701E+03  0.27782603441E+03  0.12510797601E+03 0.  0.
        -24    2    1    2    0    0 -0.21441989834E+02 -0.49670078063E+02 -0.12019493299E+03  0.15435448180E+03  0.80321905808E+02 0.  0.
        -13    1    3    3    0    0 -0.83768605492E+02  0.55813009754E+02 -0.13820445656E+04  0.13857053989E+04  0.00000000000E+00 0.  1.
         14    1    3    3    0    0  0.94180138798E+01 -0.85309089716E+01 -0.68009180742E+02  0.69186155107E+02  0.00000000000E+00 0. -1.
         11    1    5    5    0    0 -0.10140986855E+02  0.20035482743E+02 -0.49877854221E+02  0.54699730573E+02  0.00000000000E+00 0. -1.
        -12    1    5    5    0    0 -0.11301002980E+02 -0.69705560805E+02 -0.70317078766E+02  0.99654751225E+02  0.00000000000E+00 0.  1.
          5    1    4    4  501    0  0.12580088058E+03 -0.59691467263E+01 -0.18779601543E+03  0.22615549536E+03  0.41800000000E+01 0. -1.
         -5    1    4    4    0  501 -0.30008299135E+02  0.83571240071E+01 -0.41012591574E+02  0.51670539055E+02  0.41800000000E+01 0. -1.
</event>
<event>
11    1  0.1003949E-008  0.1343294E+03  0.7561462E-02  0.1114061E+00
         22   -1    0    0    0    0  0.00000000000E+00  0.00000000000E+00  0.47273124739E+03  0.47273124739E+03  0.00000000000E+00 0. -1.
         22   -1    0    0    0    0 -0.00000000000E+00 -0.00000000000E+00 -0.17769904274E+03  0.17769904274E+03  0.00000000000E+00 0.  1.
         24    2    1    2    0    0  0.91555577164E+01 -0.42161241155E+02 -0.11911748533E+03  0.14797396662E+03  0.76458648919E+02 0.  0.
         25    2    1    2    0    0  0.40646699482E+02  0.43079144312E+02  0.91117243470E+02  0.16570549881E+03  0.12509193989E+03 0.  0.
        -24    2    1    2    0    0 -0.49802257198E+02 -0.91790315702E+00  0.32303244651E+03  0.33675082471E+03  0.81055839257E+02 0.  0.
        -13    1    3    3    0    0 -0.11879751817E+02 -0.58703854032E+02 -0.70755854480E+02  0.92702006045E+02  0.00000000000E+00 0.  1.
         14    1    3    3    0    0  0.21035309534E+02  0.16542612877E+02 -0.48361630845E+02  0.55271960577E+02  0.00000000000E+00 0. -1.
         11    1    5    5    0    0 -0.26977132542E+02  0.13427906322E+02  0.29936225943E+03  0.30087511814E+03  0.00000000000E+00 0. -1.
        -12    1    5    5    0    0 -0.22825124656E+02 -0.14345809479E+02  0.23670187079E+02  0.35875706565E+02  0.00000000000E+00 0.  1.
          5    1    4    4  501    0 -0.13192369010E+02 -0.18763752880E+02  0.79424098511E+02  0.82775460413E+02  0.41800000000E+01 0.  1.
         -5    1    4    4    0  501  0.53839068492E+02  0.61842897192E+02  0.11693144959E+02  0.82930038395E+02  0.41800000000E+01 0.  1.
</event>
<event>
11    1  0.1003949E-008  0.1686409E+03  0.7561462E-02  0.1079221E+00
         22   -1    0    0    0    0  0.00000000000E+00  0.00000000000E+00  0.19759518410E+04  0.19759518410E+04  0.00000000000E+00 0. -1.
         22   -1    0    0    0    0 -0.00000000000E+00 -0.00000000000E+00 -0.75423371954E+03  0.75423371954E+03  0.00000000000E+00 0.  1.
        -24    2    1    2    0    0  0.12152033711E+02  0.11362713813E+03 -0.71083222072E+03  0.72462404476E+03  0.82089961568E+02 0.  0.
         25    2    1    2    0    0 -0.34392709102E+01 -0.85684633719E+02  0.12641692098E+03  0.19743979477E+03  0.12509016591E+03 0.  0.
         24    2    1    2    0    0 -0.87127628012E+01 -0.27942504411E+02  0.18061334212E+04  0.18081217211E+04  0.79558324750E+02 0.  0.
        -11    1    5    5    0    0 -0.37945514531E+02  0.18904193233E+01  0.55930511935E+03  0.56059401735E+03  0.00000000000E+00 0.  1.
         12    1    5    5    0    0  0.29232751730E+02 -0.29832923734E+02  0.12468283019E+04  0.12475277037E+04  0.00000000000E+00 0. -1.
         13    1    3    3    0    0  0.31165687193E+02  0.25788617833E+02 -0.11191682880E+03  0.11900306482E+03  0.00000000000E+00 0. -1.
        -14    1    3    3    0    0 -0.19013653481E+02  0.87838520297E+02 -0.59891539192E+03  0.60562097994E+03  0.00000000000E+00 0.  1.
          5    1    4    4  501    0 -0.45203081270E+02  0.83681735957E+01  0.23339236983E+02  0.51725595875E+02  0.41800000000E+01 0. -1.
         -5    1    4    4    0  501  0.41763810360E+02 -0.94052807315E+02  0.10307768400E+03  0.14571419889E+03  0.41800000000E+01 0. -1.
</event>
<event>
11    1  0.1003949E-008  0.1367652E+03  0.7561462E-02  0.1111225E+00
         22   -1    0    0    0    0  0.00000000000E+00  0.00000000000E+00  0.44105140373E+03  0.44105140373E+03  0.00000000000E+00 0. -1.
         22   -1    0    0    0    0 -0.00000000000E+00 -0.00000000000E+00 -0.55218451853E+03  0.55218451853E+03  0.00000000000E+00 0. -1.
        -24    2    1    2    0    0 -0.51326351599E+02 -0.91000639399E+01 -0.47903868342E+03  0.48829758352E+03  0.78989013985E+02 0.  0.
         25    2    1    2    0    0  0.74536204826E+02  0.55617116794E+02  0.36905547456E+02  0.16019325529E+03  0.12510375732E+03 0.  0.
         24    2    1    2    0    0 -0.23209853227E+02 -0.46517052854E+02  0.33100002116E+03  0.34474508344E+03  0.81151864155E+02 0.  0.
        -13    1    5    5    0    0 -0.39725629632E+02 -0.17844899952E+02  0.75886894272E+02  0.87495067440E+02  0.00000000000E+00 0.  1.
         14    1    5    5    0    0  0.16515776405E+02 -0.28672152902E+02  0.25511312689E+03  0.25725001601E+03  0.00000000000E+00 0. -1.
         11    1    3    3    0    0 -0.60556297883E+02 -0.27926756517E+02 -0.42729103505E+03  0.43246340605E+03  0.00000000000E+00 0. -1.
        -12    1    3    3    0    0  0.92299462842E+01  0.18826692577E+02 -0.51747648372E+02  0.55834177470E+02  0.00000000000E+00 0.  1.
          5    1    4    4  501    0  0.86104521606E+02  0.55349790446E+02 -0.17922872186E+02  0.10400139273E+03  0.41800000000E+01 0. -1.
         -5    1    4    4    0  501 -0.11568316780E+02  0.26732634787E+00  0.54828419642E+02  0.56191862551E+02  0.41800000000E+01 0. -1.
</event>
<event>
11    1  0.1003949E-008  0.1613469E+03  0.7561462E-02  0.1085817E+00
         22   -1    0    0    0    0  0.00000000000E+00  0.00000000000E+00  0.23446880751E+03  0.23446880751E+03  0.00000000000E+00 0. -1.
         22   -1    0    0    0    0 -0.00000000000E+00 -0.00000000000E+00 -0.71652400239E+03  0.71652400239E+03  0.00000000000E+00 0.  1.
         24    2    1    2    0    0 -0.91501077071E+02 -0.25701880768E+02 -0.43250546164E+03  0.45026388277E+03  0.81508011873E+02 0.  0.
         25    2    1    2    0    0  0.11313293864E+03  0.57435639046E+02 -0.23491176785E+03  0.29483255256E+03  0.12507909871E+03 0.  0.
        -24    2    1    2    0    0 -0.21631861570E+02 -0.31733758278E+02  0.18536203460E+03  0.20589637457E+03  0.80989285330E+02 0.  0.
        -13    1    3    3    0    0 -0.65838312587E+02 -0.45174813680E+02 -0.38275244584E+03  0.39099217638E+03  0.00000000000E+00 0.  1.
         14    1    3    3    0    0 -0.25662764484E+02  0.19472932911E+02 -0.49753015802E+02  0.59271706391E+02  0.00000000000E+00 0. -1.
         13    1    5    5    0    0 -0.49950708008E+02 -0.44773294656E+01  0.97435047284E+02  0.10958425137E+03  0.00000000000E+00 0. -1.
        -14    1    5    5    0    0  0.28318846438E+02 -0.27256428812E+02  0.87926987320E+02  0.96312123196E+02  0.00000000000E+00 0.  1.
          5    1    4    4  501    0  0.76461574291E+02  0.60117729926E+02 -0.23854696290E+03  0.25764828683E+03  0.41800000000E+01 0.  1.
         -5    1    4    4    0  501  0.36671364350E+02 -0.26820908795E+01  0.36351950540E+01  0.37184265730E+02  0.41800000000E+01 0.  1.
</event>
<event>
11    1  0.1003949E-008  0.1358099E+03  0.7561462E-02  0.1112330E+00
         22   -1    0    0    0    0  0.00000000000E+00  0.00000000000E+00  0.18988508343E+04  0.18988508343E+04  0.00000000000E+00 0.  1.
         22   -1    0    0    0    0 -0.00000000000E+00 -0.00000000000E+00 -0.13089095755E+03  0.13089095755E+03  0.00000000000E+00 0.  1.
         24    2    1    2    0    0  0.16083999446E+02  0.41959373259E+01 -0.92171210579E+02  0.12352253704E+03  0.80535608087E+02 0.  0.
         25    2    1    2    0    0  0.12479025181E+02  0.41183272865E+02  0.18051160223E+03  0.22379352194E+03  0.12508922371E+03 0.  0.
        -24    2    1    2    0    0 -0.28563024627E+02 -0.45379210191E+02  0.16796194851E+04  0.16824257329E+04  0.80991436672E+02 0.  0.
        -11    1    3    3    0    0  0.70593831464E+01 -0.27524609501E+02 -0.85201185063E+02  0.89814703444E+02  0.00000000000E+00 0.  1.
         12    1    3    3    0    0  0.90246162992E+01  0.31720546826E+02 -0.69700255160E+01  0.33707833600E+02  0.00000000000E+00 0. -1.
         11    1    5    5    0    0  0.13813896611E+02 -0.31096491653E+02  0.27536303898E+03  0.27745741794E+03  0.00000000000E+00 0. -1.
        -12    1    5    5    0    0 -0.42376921238E+02 -0.14282718538E+02  0.14042564461E+04  0.14049683150E+04  0.00000000000E+00 0.  1.
          5    1    4    4  501    0  0.46350575242E+02 -0.22282695802E+02  0.11647147363E+03  0.12738905340E+03  0.41800000000E+01 0. -1.
         -5    1    4    4    0  501 -0.33871550060E+02  0.63465968667E+02  0.64040128598E+02  0.96404468533E+02  0.41800000000E+01 0. -1.
</event>
<event>
11    1  0.1003949E-008  0.1476616E+03  0.7561462E-02  0.1099292E+00
         22   -1    0    0    0    0  0.00000000000E+00  0.00000000000E+00  0.16067937008E+04  0.16067937008E+04  0.00000000000E+00 0.  1.
         22   -1    0    0    0    0 -0.00000000000E+00 -0.00000000000E+00 -0.59530403820E+03  0.59530403820E+03  0.00000000000E+00 0.  1.
         24    2    1    2    0    0 -0.25249395428E+02 -0.41225763536E+02 -0.51933240427E+03  0.52804023961E+03  0.82360506165E+02 0.  0.
         25    2    1    2    0    0 -0.23190910982E+01  0.11376133165E+03  0.33255147410E+02  0.17233823532E+03  0.12509014255E+03 0.  0.
        -24    2    1    2    0    0  0.27568486526E+02 -0.72535568109E+02  0.14975669194E+04  0.15017192640E+04  0.80203738511E+02 0.  0.
        -13    1    3    3    0    0 -0.35551505891E+02 -0.58001573333E+02 -0.29036084866E+03  0.29822393350E+03  0.00000000000E+00 0.  1.
         14    1    3    3    0    0  0.10302110464E+02  0.16775809796E+02 -0.22897155562E+03  0.22981630611E+03  0.00000000000E+00 0. -1.
         11    1    5    5    0    0 -0.17520438124E+00  0.97609989937E+01  0.29249868127E+02  0.30836059790E+02  0.00000000000E+00 0. -1.
        -12    1    5    5    0    0  0.27743690907E+02 -0.82296567102E+02  0.14683170513E+04  0.14708832042E+04  0.00000000000E+00 0.  1.
          5    1    4    4  501    0 -0.37547124381E+02  0.25912775241E+02  0.58488722081E+02  0.74294424290E+02  0.41800000000E+01 0.  1.
         -5    1    4    4    0  501  0.35228033283E+02  0.87848556404E+02 -0.25233574671E+02  0.98043811033E+02  0.41800000000E+01 0.  1.
</event>
<event>
11    1  0.1003949E-008  0.2635665E+03  0.7561462E-02  0.1016910E+00
         22   -1    0    0    0    0  0.00000000000E+00  0.00000000000E+00  0.41199110118E+03  0.41199110118E+03  0.00000000000E+00 0. -1.
         22   -1    0    0    0    0 -0.00000000000E+00 -0.00000000000E+00 -0.11098690468E+04  0.11098690468E+04  0.00000000000E+00 0.  1.
        -24    2    1    2    0    0 -0.22343516280E+03  0.30051623789E+02 -0.92816177317E+03  0.95855966158E+03  0.80783510464E+02 0.  0.
         25    2    1    2    0    0  0.31184646775E+03 -0.63715807425E+02  0.51822323065E+02  0.34589064773E+03  0.12508742326E+03 0.  0.
         24    2    1    2    0    0 -0.88411304950E+02  0.33664183637E+02  0.17846150446E+03  0.21740983870E+03  0.80428187146E+02 0.  0.
        -13    1    5    5    0    0 -0.21838273292E+02 -0.17121481121E+02  0.95842044449E+02  0.99778518631E+02  0.00000000000E+00 0.  1.
         14    1    5    5    0    0 -0.66573031658E+02  0.50785664757E+02  0.82619460008E+02  0.11763132007E+03  0.00000000000E+00 0. -1.
         11    1    3    3    0    0 -0.10115156054E+02 -0.70492959017E+01 -0.15974222346E+03  0.16021731152E+03  0.00000000000E+00 0. -1.
        -12    1    3    3    0    0 -0.21332000675E+03  0.37100919690E+02 -0.76841954971E+03  0.79834235006E+03  0.00000000000E+00 0.  1.
          5    1    4    4  501    0  0.25451928543E+03 -0.34803135118E+02  0.88612304947E+02  0.27177368868E+03  0.41800000000E+01 0. -1.
         -5    1    4    4    0  501  0.57327182320E+02 -0.28912672307E+02 -0.36789981881E+02  0.74116959055E+02  0.41800000000E+01 0. -1.
</event>
<event>
11    1  0.1003949E-008  0.1314317E+03  0.7561462E-02  0.1117522E+00
         22   -1    0    0    0    0  0.00000000000E+00  0.00000000000E+00  0.11984361666E+03  0.11984361666E+03  0.00000000000E+00 0.  1.
         22   -1    0    0    0    0 -0.00000000000E+00 -0.00000000000E+00 -0.95847061256E+03  0.95847061256E+03  0.00000000000E+00 0.  1.
        -24    2    1    2    0    0  0.10596189478E+02  0.42390257084E+02 -0.64208988395E+03  0.64910531347E+03  0.84552207404E+02 0.  0.
         25    2    1    2    0    0 -0.17566231517E+01 -0.27393502867E+02 -0.28350644210E+03  0.31109129129E+03  0.12509356130E+03 0.  0.
         24    2    1    2    0    0 -0.88395663259E+01 -0.14996754217E+02  0.86969330153E+02  0.11811762446E+03  0.78006847465E+02 0.  0.
        -13    1    5    5    0    0 -0.31092930902E+02  0.20556842795E+02  0.33136803263E+02  0.49873859569E+02  0.00000000000E+00 0.  1.
         14    1    5    5    0    0  0.22253364576E+02 -0.35553597012E+02  0.53832526889E+02  0.68243764893E+02  0.00000000000E+00 0. -1.
         13    1    3    3    0    0  0.56395246640E+01  0.49474446938E+02 -0.17529184311E+03  0.18222720818E+03  0.00000000000E+00 0. -1.
        -14    1    3    3    0    0  0.49566648136E+01 -0.70841898540E+01 -0.46679804084E+03  0.46687810529E+03  0.00000000000E+00 0.  1.
          5    1    4    4  501    0  0.16825329607E+02 -0.46872195315E+02 -0.27904562720E+03  0.28348550028E+03  0.41800000000E+01 0. -1.
         -5    1    4    4    0  501 -0.18581952759E+02  0.19478692448E+02 -0.44608149041E+01  0.27605791013E+02  0.41800000000E+01 0. -1.
</event>
<event>
11    1  0.1003949E-008  0.2823150E+03  0.7561462E-02  0.1007967E+00
         22   -1    0    0    0    0  0.00000000000E+00  0.00000000000E+00  0.49250871434E+03  0.49250871434E+03  0.00000000000E+00 0. -1.
         22   -1    0    0    0    0 -0.00000000000E+00 -0.00000000000E+00 -0.79585162948E+03  0.79585162948E+03  0.00000000000E+00 0.  1.
         24    2    1    2    0    0  0.16129229421E+03 -0.17231526489E+03 -0.35686862235E+03  0.43508187292E+03  0.78951047100E+02 0.  0.
         25    2    1    2    0    0 -0.25650822855E+03  0.13572461351E+03 -0.32490922689E+03  0.45324377900E+03  0.12508507288E+03 0.  0.
        -24    2    1    2    0    0  0.95215934334E+02  0.36590651386E+02  0.37843493410E+03  0.40003469190E+03  0.80061260672E+02 0.  0.
        -11    1    3    3    0    0  0.16046441410E+03 -0.12990454091E+03 -0.29706304358E+03  0.36176023801E+03  0.00000000000E+00 0.  1.
         12    1    3    3    0    0  0.82788011126E+00 -0.42410723986E+02 -0.59805578772E+02  0.73321634915E+02  0.00000000000E+00 0. -1.
         13    1    5    5    0    0  0.88565359606E+02  0.14470343146E+02  0.35838024709E+03  0.36944500979E+03  0.00000000000E+00 0. -1.
        -14    1    5    5    0    0  0.66505747285E+01  0.22120308240E+02  0.20054687003E+02  0.30589682111E+02  0.00000000000E+00 0.  1.
          5    1    4    4  501    0 -0.74000838859E+02  0.10489215692E+03 -0.10590457764E+03  0.16646843755E+03  0.41800000000E+01 0.  1.
         -5    1    4    4    0  501 -0.18250738969E+03  0.30832456589E+02 -0.21900464925E+03  0.28677534145E+03  0.41800000000E+01 0.  1.
</event>
<event>
11    1  0.1003949E-008  0.1339974E+03  0.7561462E-02  0.1114453E+00
         22   -1    0    0    0    0  0.00000000000E+00  0.00000000000E+00  0.92981883866E+02  0.92981883866E+02  0.00000000000E+00 0.  1.
         22   -1    0    0    0    0 -0.00000000000E+00 -0.00000000000E+00 -0.22824301292E+04  0.22824301292E+04  0.00000000000E+00 0. -1.
        -24    2    1    2    0    0 -0.41122583159E+02  0.27721634987E+02 -0.19233301821E+04  0.19255986894E+04  0.79194490120E+02 0.  0.
         25    2    1    2    0    0  0.31581051273E+02 -0.84833756611E+01 -0.32414849494E+03  0.34898289713E+03  0.12508990869E+03 0.  0.
         24    2    1    2    0    0  0.95415318862E+01 -0.19238259326E+02  0.58030431692E+02  0.10083042657E+03  0.79612137689E+02 0.  0.
        -11    1    5    5    0    0  0.71733441030E+01  0.21304416732E+02  0.55799454486E+02  0.60157411504E+02  0.00000000000E+00 0.  1.
         12    1    5    5    0    0  0.23681877832E+01 -0.40542676058E+02  0.22309772054E+01  0.40673015067E+02  0.00000000000E+00 0. -1.
         11    1    3    3    0    0 -0.60715214803E+02  0.10819545431E+02 -0.16176891975E+04  0.16188643364E+04  0.00000000000E+00 0. -1.
        -12    1    3    3    0    0  0.19592631643E+02  0.16902089557E+02 -0.30564098454E+03  0.30673435295E+03  0.00000000000E+00 0.  1.
          5    1    4    4  501    0 -0.42410744772E+02 -0.98550254436E+00 -0.19754616177E+03  0.20209305014E+03  0.41800000000E+01 0.  1.
         -5    1    4    4    0  501  0.73991796045E+02 -0.74978731167E+01 -0.12660233317E+03  0.14688984699E+03  0.41800000000E+01 0.  1.
</event>
<event>
11    1  0.1003949E-008  0.1476969E+03  0.7561462E-02  0.1099256E+00
         22   -1    0    0    0    0  0.00000000000E+00  0.00000000000E+00  0.65272166495E+03  0.65272166495E+03  0.00000000000E+00 0.  1.
         22   -1    0    0    0    0 -0.00000000000E+00 -0.00000000000E+00 -0.15624522252E+04  0.15624522252E+04  0.00000000000E+00 0.  1.
        -24    2    1    2    0    0  0.20595712442E+02  0.41584196961E+02 -0.14662407206E+04  0.14692483455E+04  0.81703250114E+02 0.  0.
         25    2    1    2    0    0 -0.95792334172E+02 -0.20935185780E+02 -0.18592705495E+02  0.16002479441E+03  0.12509113813E+03 0.  0.
         24    2    1    2    0    0  0.75196621730E+02 -0.20649011181E+02  0.57510286585E+03  0.58590075028E+03  0.80345935121E+02 0.  0.
        -13    1    5    5    0    0  0.82041206167E+02  0.26492545184E+01  0.50692110354E+03  0.51352388773E+03  0.00000000000E+00 0.  1.
         14    1    5    5    0    0 -0.68445844372E+01 -0.23298265700E+02  0.68181762309E+02  0.72376862548E+02  0.00000000000E+00 0. -1.
         13    1    3    3    0    0 -0.42466066496E+01 -0.69628193632E+01 -0.15781383848E+02  0.17764194259E+02  0.00000000000E+00 0. -1.
        -14    1    3    3    0    0  0.24842319092E+02  0.48547016324E+02 -0.14504593367E+04  0.14514841512E+04  0.00000000000E+00 0.  1.
          5    1    4    4  501    0 -0.82847618510E+02  0.38611166303E+02 -0.33000920051E+02  0.97268099499E+02  0.41800000000E+01 0.  1.
         -5    1    4    4    0  501 -0.12944715662E+02 -0.59546352082E+02  0.14408214555E+02  0.62756694914E+02  0.41800000000E+01 0.  1.
</event>
<event>
11    1  0.1003949E-008  0.1622941E+03  0.7561462E-02  0.1084939E+00
         22   -1    0    0    0    0  0.00000000000E+00  0.00000000000E+00  0.68946179152E+03  0.68946179152E+03  0.00000000000E+00 0. -1.
         22   -1    0    0    0    0 -0.00000000000E+00 -0.00000000000E+00 -0.47318732598E+03  0.47318732598E+03  0.00000000000E+00 0.  1.
        -24    2    1    2    0    0  0.21175870200E+02  0.21078543903E+02 -0.34232157531E+03  0.35289376861E+03  0.80356882147E+02 0.  0.
         25    2    1    2    0    0 -0.12265703826E+03 -0.32063945907E+02 -0.51545461181E+02  0.18541305292E+03  0.12509284537E+03 0.  0.
         24    2    1    2    0    0  0.10148116806E+03  0.10985402004E+02  0.61014150203E+03  0.62434229598E+03  0.84329968114E+02 0.  0.
        -11    1    5    5    0    0  0.63331768510E+01 -0.20252687833E+02  0.23857570361E+03  0.23951752931E+03  0.00000000000E+00 0.  1.
         12    1    5    5    0    0  0.95147991204E+02  0.31238089837E+02  0.37156579842E+03  0.38482476667E+03  0.00000000000E+00 0. -1.
         13    1    3    3    0    0 -0.10257982237E+02 -0.15843637775E+02 -0.22282389807E+02  0.29201916941E+02  0.00000000000E+00 0. -1.
        -14    1    3    3    0    0  0.31433852437E+02  0.36922181678E+02 -0.32003918550E+03  0.32369185166E+03  0.00000000000E+00 0.  1.
          5    1    4    4  501    0 -0.59342906405E+01 -0.45148735023E+02  0.17663179666E+02  0.49021264728E+02  0.41800000000E+01 0.  1.
         -5    1    4    4    0  501 -0.11672274761E+03  0.13084789116E+02 -0.69208640848E+02  0.13639178819E+03  0.41800000000E+01 0.  1.
</event>
<event>
11    1  0.1003949E-008  0.1937614E+03  0.7561462E-02  0.1059025E+00
         22   -1    0    0    0    0  0.00000000000E+00  0.00000000000E+00  0.23971760086E+04  0.23971760086E+04  0.00000000000E+00 0.  1.
         22   -1    0    0    0    0 -0.00000000000E+00 -0.00000000000E+00 -0.97550529322E+02  0.97550529322E+02  0.00000000000E+00 0.  1.
         24    2    1    2    0    0  0.19729113607E+02 -0.10288467514E+03 -0.16130575094E+02  0.13254902045E+03  0.79589905564E+02 0.  0.
         25    2    1    2    0    0 -0.76295176483E+02 -0.50566243240E+02  0.29534767182E+03  0.33355040589E+03  0.12509087541E+03 0.  0.
        -24    2    1    2    0    0  0.56566062876E+02  0.15345091838E+03  0.20204083826E+04  0.20286271116E+04  0.80814737071E+02 0.  0.
        -13    1    3    3    0    0 -0.19204269431E+02 -0.79035569806E+02 -0.26845889865E+02  0.85651194163E+02  0.00000000000E+00 0.  1.
         14    1    3    3    0    0  0.38933383038E+02 -0.23849105334E+02  0.10715314772E+02  0.46897826289E+02  0.00000000000E+00 0. -1.
         13    1    5    5    0    0  0.34122224488E+02  0.49649352662E+02  0.37626403462E+03  0.38105643700E+03  0.00000000000E+00 0. -1.
        -14    1    5    5    0    0  0.22443838387E+02  0.10380156572E+03  0.16441443479E+04  0.16475706746E+04  0.00000000000E+00 0.  1.
          5    1    4    4  501    0 -0.63567869152E+01  0.35498047247E+02  0.34525072081E+02  0.50099631740E+02  0.41800000000E+01 0.  1.
         -5    1    4    4    0  501 -0.69938389568E+02 -0.86064290487E+02  0.26082259974E+03  0.28345077415E+03  0.41800000000E+01 0.  1.
</event>
<event>
11    1  0.1003949E-008  0.1513545E+03  0.7561462E-02  0.1095503E+00
         22   -1    0    0    0    0  0.00000000000E+00  0.00000000000E+00  0.18177101211E+03  0.18177101211E+03  0.00000000000E+00 0. -1.
         22   -1    0    0    0    0 -0.00000000000E+00 -0.00000000000E+00 -0.94426587041E+03  0.94426587041E+03  0.00000000000E+00 0.  1.
         24    2    1    2    0    0  0.22697583982E+02 -0.46997591618E+02 -0.80265029526E+03  0.80872481071E+03  0.84049800925E+02 0.  0.
         25    2    1    2    0    0  0.81698018373E+01 -0.43968586353E+02 -0.69232966176E+02  0.14980267536E+03  0.12509058995E+03 0.  0.
        -24    2    1    2    0    0 -0.30867385819E+02  0.90966177972E+02  0.10938840313E+03  0.16750939646E+03  0.82860932404E+02 0.  0.
        -11    1    3    3    0    0  0.17592212192E+02  0.26824607642E+01 -0.59078151523E+03  0.59104947361E+03  0.00000000000E+00 0.  1.
         12    1    3    3    0    0  0.51053717902E+01 -0.49680052383E+02 -0.21186878003E+03  0.21767533709E+03  0.00000000000E+00 0. -1.
         11    1    5    5    0    0 -0.54374998923E+02  0.58635584534E+02  0.45104299850E+02  0.91810512179E+02  0.00000000000E+00 0. -1.
        -12    1    5    5    0    0  0.23507613104E+02  0.32330593437E+02  0.64284103284E+02  0.75698884277E+02  0.00000000000E+00 0.  1.
          5    1    4    4  501    0 -0.50051387554E+02 -0.20764147604E+02  0.25608960848E+01  0.54408839453E+02  0.41800000000E+01 0. -1.
         -5    1    4    4    0  501  0.58221189391E+02 -0.23204438749E+02 -0.71793862260E+02  0.95393835912E+02  0.41800000000E+01 0. -1.
</event>
<event>
11    1  0.1003949E-008  0.1420895E+03  0.7561462E-02  0.1105247E+00
         22   -1    0    0    0    0  0.00000000000E+00  0.00000000000E+00  0.12100625791E+03  0.12100625791E+03  0.00000000000E+00 0. -1.
         22   -1    0    0    0    0 -0.00000000000E+00 -0.00000000000E+00 -0.15758132411E+04  0.15758132411E+04  0.00000000000E+00 0. -1.
        -24    2    1    2    0    0 -0.47785190627E+02 -0.56953744089E+02 -0.66345925012E+03  0.67215944285E+03  0.78057585348E+02 0.  0.
         25    2    1    2    0    0  0.52879521546E+02  0.30442224783E+02 -0.88662058437E+03  0.89747643040E+03  0.12507961324E+03 0.  0.
         24    2    1    2    0    0 -0.50943309188E+01  0.26511519305E+02  0.95272851294E+02  0.12718362576E+03  0.79811938984E+02 0.  0.
        -11    1    5    5    0    0  0.95813267166E+01 -0.24858597828E+02  0.52017464970E+02  0.58442864146E+02  0.00000000000E+00 0.  1.
         12    1    5    5    0    0 -0.14675657635E+02  0.51370117133E+02  0.43255386324E+02  0.68740761614E+02  0.00000000000E+00 0. -1.
         11    1    3    3    0    0  0.17921377994E+02 -0.30557953714E+02 -0.27824489435E+03  0.28049097233E+03  0.00000000000E+00 0. -1.
        -12    1    3    3    0    0 -0.65706568622E+02 -0.26395790374E+02 -0.38521435577E+03  0.39166847052E+03  0.00000000000E+00 0.  1.
          5    1    4    4  501    0 -0.12683736541E+02  0.36379952275E+02 -0.66794492842E+03  0.66906821618E+03  0.41800000000E+01 0.  1.
         -5    1    4    4    0  501  0.65563258087E+02 -0.59377274921E+01 -0.21867565595E+03  0.22840821422E+03  0.41800000000E+01 0.  1.
</event>
<event>
11    1  0.1003949E-008  0.1860047E+03  0.7561462E-02  0.1064887E+00
         22   -1    0    0    0    0  0.00000000000E+00  0.00000000000E+00  0.49996342469E+03  0.49996342469E+03  0.00000000000E+00 0.  1.
         22   -1    0    0    0    0 -0.00000000000E+00 -0.00000000000E+00 -0.14769868778E+04  0.14769868778E+04  0.00000000000E+00 0. -1.
        -24    2    1    2    0    0 -0.21488303213E+02  0.55197521234E+02 -0.12036699908E+04  0.12076849777E+04  0.78568727900E+02 0.  0.
         25    2    1    2    0    0 -0.77004775047E+02 -0.14956693936E+03 -0.21389898516E+03  0.29950094641E+03  0.12509211132E+03 0.  0.
         24    2    1    2    0    0  0.98493078260E+02  0.94369418130E+02  0.44054552284E+03  0.46976437843E+03  0.89396532412E+02 0.  0.
        -11    1    5    5    0    0  0.95824298428E+02  0.72790704436E+02  0.24441711607E+03  0.27243441312E+03  0.00000000000E+00 0.  1.
         12    1    5    5    0    0  0.26687798322E+01  0.21578713694E+02  0.19612840677E+03  0.19732996531E+03  0.00000000000E+00 0. -1.
         11    1    3    3    0    0 -0.19845154108E+02  0.53033672471E+02 -0.12036365272E+04  0.12049677548E+04  0.00000000000E+00 0. -1.
        -12    1    3    3    0    0 -0.16431491049E+01  0.21638487631E+01 -0.33463654200E-01  0.27172228960E+01  0.00000000000E+00 0.  1.
          5    1    4    4  501    0 -0.89532318667E+02 -0.56798143740E+02 -0.15820509779E+03  0.19049511959E+03  0.41800000000E+01 0. -1.
         -5    1    4    4    0  501  0.12527543620E+02 -0.92768795625E+02 -0.55693887364E+02  0.10900582682E+03  0.41800000000E+01 0. -1.
</event>
<event>
11    1  0.1003949E-008  0.3303907E+03  0.7561462E-02  0.9880910E-01
         22   -1    0    0    0    0  0.00000000000E+00  0.00000000000E+00  0.22097733100E+04  0.22097733100E+04  0.00000000000E+00 0. -1.
         22   -1    0    0    0    0 -0.00000000000E+00 -0.00000000000E+00 -0.90994212260E+03  0.90994212260E+03  0.00000000000E+00 0.  1.
         24    2    1    2    0    0 -0.62802420674E+02 -0.14439320625E+03 -0.81136011803E+03  0.83045478396E+03  0.80971383954E+02 0.  0.
         25    2    1    2    0    0  0.15555654370E+03  0.40946061338E+03  0.61788888078E+03  0.76765219665E+03  0.12508954322E+03 0.  0.
        -24    2    1    2    0    0 -0.92754123030E+02 -0.26506740713E+03  0.14933024247E+04  0.15216084520E+04  0.80474169857E+02 0.  0.
        -11    1    3    3    0    0 -0.54868133198E+02 -0.97331325991E+02 -0.70603366317E+03  0.71481986024E+03  0.00000000000E+00 0.  1.
         12    1    3    3    0    0 -0.79342874752E+01 -0.47061880257E+02 -0.10532645486E+03  0.11563492372E+03  0.00000000000E+00 0. -1.
         13    1    5    5    0    0 -0.78963325149E+02 -0.22751395822E+03  0.13922491642E+04  0.14129244647E+04  0.00000000000E+00 0. -1.
        -14    1    5    5    0    0 -0.13790797881E+02 -0.37553448913E+02  0.10105326051E+03  0.10868398728E+03  0.00000000000E+00 0.  1.
          5    1    4    4  501    0  0.22488006497E+02  0.21733356972E+03  0.25299576938E+03  0.33431111661E+03  0.41800000000E+01 0. -1.
         -5    1    4    4    0  501  0.13306853721E+03  0.19212704365E+03  0.36489311140E+03  0.43334108003E+03  0.41800000000E+01 0. -1.
</event>
<event>
11    1  0.1003949E-008  0.1533555E+03  0.7561462E-02  0.1093499E+00
         22   -1    0    0    0    0  0.00000000000E+00  0.00000000000E+00  0.10315562120E+04  0.10315562120E+04  0.00000000000E+00 0. -1.
         22   -1    0    0    0    0 -0.00000000000E+00 -0.00000000000E+00 -0.78664619500E+02  0.78664619500E+02  0.00000000000E+00 0.  1.
        -24    2    1    2    0    0 -0.11040866721E+02  0.87957331914E+02  0.24337068645E+02  0.11921699981E+03  0.75907886014E+02 0.  0.
         25    2    1    2    0    0  0.63193775508E+01 -0.88787904634E+02  0.17364786602E+03  0.23178399330E+03  0.12508801556E+03 0.  0.
         24    2    1    2    0    0  0.47214891698E+01  0.83057272068E+00  0.75490665784E+03  0.75921983839E+03  0.80670432247E+02 0.  0.
        -11    1    5    5    0    0  0.25738267448E+02 -0.29105221354E+02  0.25120531528E+03  0.25419221614E+03  0.00000000000E+00 0.  1.
         12    1    5    5    0    0 -0.21016778278E+02  0.29935794075E+02  0.50370134256E+03  0.50502762225E+03  0.00000000000E+00 0. -1.
         11    1    3    3    0    0 -0.39707244097E+01 -0.13538229521E+02 -0.16620907078E+01  0.14206085190E+02  0.00000000000E+00 0. -1.
        -12    1    3    3    0    0 -0.70701423110E+01  0.10149556143E+03  0.25999159352E+02  0.10501091462E+03  0.00000000000E+00 0.  1.
          5    1    4    4  501    0  0.38526792153E+02 -0.36788682803E+02  0.65988269206E+01  0.53839927681E+02  0.41800000000E+01 0. -1.
         -5    1    4    4    0  501 -0.32207414602E+02 -0.51999221831E+02  0.16704903910E+03  0.17794406562E+03  0.41800000000E+01 0. -1.
</event>
<event>
11    1  0.1003949E-008  0.1291984E+03  0.7561462E-02  0.1120258E+00
         22   -1    0    0    0    0  0.00000000000E+00  0.00000000000E+00  0.14413141867E+04  0.14413141867E+04  0.00000000000E+00 0. -1.
         22   -1    0    0    0    0 -0.00000000000E+00 -0.00000000000E+00 -0.69369032583E+03  0.69369032583E+03  0.00000000000E+00 0.  1.
        -24    2    1    2    0    0 -0.54589596297E+01  0.67157860282E+01 -0.44698709959E+03  0.45407573402E+03  0.79450632509E+02 0.  0.
         25    2    1    2    0    0  0.15481371286E+02  0.24057942947E+02 -0.22483290794E+03  0.25887192355E+03  0.12508548611E+03 0.  0.
         24    2    1    2    0    0 -0.10022411656E+02 -0.30773728975E+02  0.14194438684E+04  0.14220568550E+04  0.79858199569E+02 0.  0.
        -13    1    5    5    0    0 -0.29197299300E+02 -0.30058817650E+02  0.35870063364E+03  0.36114008276E+03  0.00000000000E+00 0.  1.
         14    1    5    5    0    0  0.19174887644E+02 -0.71491132420E+00  0.10607432348E+04  0.10609167722E+04  0.00000000000E+00 0. -1.
         13    1    3    3    0    0  0.43494731613E+01 -0.34070380599E+02 -0.13590615837E+03  0.14017914479E+03  0.00000000000E+00 0. -1.
        -14    1    3    3    0    0 -0.98084327910E+01  0.40786166628E+02 -0.31108094122E+03  0.31389658923E+03  0.00000000000E+00 0.  1.
          5    1    4    4  501    0 -0.55118869553E+02  0.91126171184E+01 -0.96886868687E+02  0.11191812764E+03  0.41800000000E+01 0.  1.
         -5    1    4    4    0  501  0.70600240838E+02  0.14945325828E+02 -0.12794603925E+03  0.14695379591E+03  0.41800000000E+01 0.  1.
</event>
<event>
11    1  0.1003949E-008  0.1355698E+03  0.7561462E-02  0.1112609E+00
         22   -1    0    0    0    0  0.00000000000E+00  0.00000000000E+00  0.62585070378E+03  0.62585070378E+03  0.00000000000E+00 0.  1.
         22   -1    0    0    0    0 -0.00000000000E+00 -0.00000000000E+00 -0.46903012979E+03  0.46903012979E+03  0.00000000000E+00 0. -1.
         24    2    1    2    0    0  0.42644735422E+02 -0.30479511251E+02 -0.41291266425E+03  0.42434653582E+03  0.82616826965E+02 0.  0.
         25    2    1    2    0    0 -0.23105515547E+02  0.53032404557E+02  0.54221873917E+02  0.14809103337E+03  0.12507854242E+03 0.  0.
        -24    2    1    2    0    0 -0.19539219875E+02 -0.22552893306E+02  0.51551136432E+03  0.52244326437E+03  0.79401408262E+02 0.  0.
        -11    1    3    3    0    0  0.47727866033E+02 -0.20393594140E+02 -0.11443380832E+03  0.12565406625E+03  0.00000000000E+00 0.  1.
         12    1    3    3    0    0 -0.50831306112E+01 -0.10085917111E+02 -0.29847885593E+03  0.29869246957E+03  0.00000000000E+00 0. -1.
         13    1    5    5    0    0  0.15279488534E+02 -0.40718229761E+02  0.32741531728E+03  0.33029112461E+03  0.00000000000E+00 0. -1.
        -14    1    5    5    0    0 -0.34818708409E+02  0.18165336455E+02  0.18809604704E+03  0.19215213976E+03  0.00000000000E+00 0.  1.
          5    1    4    4  501    0 -0.62114306229E+02  0.56221936444E+02  0.35927137955E+01  0.83961140822E+02  0.41800000000E+01 0.  1.
         -5    1    4    4    0  501  0.39008790681E+02 -0.31895318866E+01  0.50629160121E+02  0.64129892551E+02  0.41800000000E+01 0.  1.
</event>
<event>
11    1  0.1003949E-008  0.2123785E+03  0.7561462E-02  0.1046100E+00
         22   -1    0    0    0    0  0.00000000000E+00  0.00000000000E+00  0.11412933281E+04  0.11412933281E+04  0.00000000000E+00 0. -1.
         22   -1    0    0    0    0 -0.00000000000E+00 -0.00000000000E+00 -0.18671512724E+03  0.18671512724E+03  0.00000000000E+00 0. -1.
         24    2    1    2    0    0 -0.11964904746E+03 -0.11485516832E+03 -0.22550003810E+02  0.18564045315E+03  0.80288672467E+02 0.  0.
         25    2    1    2    0    0  0.13633920876E+03  0.12121822601E+03  0.70388986987E+02  0.23212879114E+03  0.12508768134E+03 0.  0.
        -24    2    1    2    0    0 -0.16690161302E+02 -0.63630576955E+01  0.90673921767E+03  0.91023921104E+03  0.77719768800E+02 0.  0.
        -13    1    3    3    0    0 -0.36732815681E+02 -0.83429784613E+02  0.88186539738E+01  0.91583826991E+02  0.00000000000E+00 0.  1.
         14    1    3    3    0    0 -0.82916231777E+02 -0.31425383706E+02 -0.31368657784E+02  0.94056626158E+02  0.00000000000E+00 0. -1.
         13    1    5    5    0    0 -0.20526628163E+02 -0.11693018355E+02  0.90157594657E+03  0.90188538993E+03  0.00000000000E+00 0. -1.
        -14    1    5    5    0    0  0.38364668614E+01  0.53299606593E+01  0.51632711029E+01  0.83538211071E+01  0.00000000000E+00 0.  1.
          5    1    4    4  501    0  0.99774286485E+02  0.58003486197E+01  0.30073009586E+02  0.10445291089E+03  0.41800000000E+01 0.  1.
         -5    1    4    4    0  501  0.36564922274E+02  0.11541787740E+03  0.40315977401E+02  0.12767588025E+03  0.41800000000E+01 0.  1.
</event>
<event>
11    1  0.1003949E-008  0.1637209E+03  0.7561462E-02  0.1083629E+00
         22   -1    0    0    0    0  0.00000000000E+00  0.00000000000E+00  0.81457687900E+02  0.81457687900E+02  0.00000000000E+00 0. -1.
         22   -1    0    0    0    0 -0.00000000000E+00 -0.00000000000E+00 -0.10557116451E+04  0.10557116451E+04  0.00000000000E+00 0. -1.
        -24    2    1    2    0    0  0.64580585029E+02 -0.96270241492E+02 -0.72233235012E+03  0.73576419721E+03  0.78398459844E+02 0.  0.
         25    2    1    2    0    0  0.39723108287E+02  0.94318193448E+02 -0.20678436498E+03  0.26245031485E+03  0.12508615917E+03 0.  0.
         24    2    1    2    0    0 -0.10430369332E+03  0.19520480445E+01 -0.45137242138E+02  0.13895482098E+03  0.79924969289E+02 0.  0.
        -11    1    5    5    0    0 -0.87897705950E+02  0.22329618742E+02 -0.60119793713E+02  0.10880720647E+03  0.00000000000E+00 0.  1.
         12    1    5    5    0    0 -0.16405987366E+02 -0.20377570698E+02  0.14982551574E+02  0.30147614510E+02  0.00000000000E+00 0. -1.
         13    1    3    3    0    0  0.52830546874E+02 -0.10942633643E+03 -0.65394984797E+03  0.66514328791E+03  0.00000000000E+00 0. -1.
        -14    1    3    3    0    0  0.11750038155E+02  0.13156094934E+02 -0.68382502151E+02  0.70620909304E+02  0.00000000000E+00 0.  1.
          5    1    4    4  501    0  0.43923479375E+02 -0.17258414086E+02 -0.83979382660E+02  0.96421646994E+02  0.41800000000E+01 0. -1.
         -5    1    4    4    0  501 -0.42003710872E+01  0.11157660753E+03 -0.12280498232E+03  0.16602866785E+03  0.41800000000E+01 0. -1.
</event>
<event>
11    1  0.1003949E-008  0.1410503E+03  0.7561462E-02  0.1106391E+00
         22   -1    0    0    0    0  0.00000000000E+00  0.00000000000E+00  0.72286379923E+03  0.72286379923E+03  0.00000000000E+00 0.  1.
         22   -1    0    0    0    0 -0.00000000000E+00 -0.00000000000E+00 -0.39164824126E+03  0.39164824126E+03  0.00000000000E+00 0.  1.
         24    2    1    2    0    0  0.64096158508E+02  0.64380802037E+01 -0.35908030706E+03  0.37361937661E+03  0.80641213070E+02 0.  0.
         25    2    1    2    0    0 -0.10879762771E+03  0.25440828642E+02  0.37604068827E+03  0.41175089200E+03  0.12509211915E+03 0.  0.
        -24    2    1    2    0    0  0.44701469205E+02 -0.31878908846E+02  0.31425517677E+03  0.32914177188E+03  0.81015453423E+02 0.  0.
        -11    1    3    3    0    0  0.42450047721E+02  0.30100788527E+02 -0.10162151215E+03  0.11417090589E+03  0.00000000000E+00 0.  1.
         12    1    3    3    0    0  0.21646110787E+02 -0.23662708323E+02 -0.25745879492E+03  0.25944847072E+03  0.00000000000E+00 0. -1.
         11    1    5    5    0    0 -0.32320470623E+01  0.23276197228E+02  0.10159011311E+03  0.10427261657E+03  0.00000000000E+00 0. -1.
        -12    1    5    5    0    0  0.47933516267E+02 -0.55155106074E+02  0.21266506366E+03  0.22486915531E+03  0.00000000000E+00 0.  1.
          5    1    4    4  501    0  0.83843767616E+01  0.29684566421E+02  0.18466248887E+03  0.18726766526E+03  0.41800000000E+01 0. -1.
         -5    1    4    4    0  501 -0.11718200447E+03 -0.42437377788E+01  0.19137819940E+03  0.22448322674E+03  0.41800000000E+01 0. -1.
</event>
<event>
11    1  0.1003949E-008  0.1285097E+03  0.7561462E-02  0.1121114E+00
         22   -1    0    0    0    0  0.00000000000E+00  0.00000000000E+00  0.25128025849E+04  0.25128025849E+04  0.00000000000E+00 0.  1.
         22   -1    0    0    0    0 -0.00000000000E+00 -0.00000000000E+00 -0.26036804115E+03  0.26036804115E+03  0.00000000000E+00 0. -1.
        -24    2    1    2    0    0 -0.17683817372E+02 -0.23085374587E+02 -0.22969828255E+03  0.24512976422E+03  0.80508685124E+02 0.  0.
         25    2    1    2    0    0  0.23859253318E+02  0.28989649733E+02  0.16954660670E+03  0.21402266067E+03  0.12509989479E+03 0.  0.
         24    2    1    2    0    0 -0.61754359457E+01 -0.59042751460E+01  0.23125862196E+04  0.23140182012E+04  0.80945758078E+02 0.  0.
        -11    1    5    5    0    0 -0.14481904491E+02 -0.40785007210E+02  0.15284158006E+04  0.15290284503E+04  0.00000000000E+00 0.  1.
         12    1    5    5    0    0  0.83064685448E+01  0.34880732064E+02  0.78417041907E+03  0.78498975091E+03  0.00000000000E+00 0. -1.
         11    1    3    3    0    0 -0.34038129403E+02  0.93949097018E+01 -0.18066327737E+03  0.18408171656E+03  0.00000000000E+00 0. -1.
        -12    1    3    3    0    0  0.16354312031E+02 -0.32480284289E+02 -0.49035005188E+02  0.61048047661E+02  0.00000000000E+00 0.  1.
          5    1    4    4  501    0  0.27800923227E+02  0.71416832908E+02  0.63344186366E+02  0.99514891856E+02  0.41800000000E+01 0.  1.
         -5    1    4    4    0  501 -0.39416699091E+01 -0.42427183175E+02  0.10620242033E+03  0.11450776881E+03  0.41800000000E+01 0.  1.
</event>
<event>
11    1  0.1003949E-008  0.1390767E+03  0.7561462E-02  0.1108594E+00
         22   -1    0    0    0    0  0.00000000000E+00  0.00000000000E+00  0.70131634450E+03  0.70131634450E+03  0.00000000000E+00 0. -1.
         22   -1    0    0    0    0 -0.00000000000E+00 -0.00000000000E+00 -0.71048853923E+03  0.71048853923E+03  0.00000000000E+00 0. -1.
        -24    2    1    2    0    0 -0.46008271270E+02 -0.40992207688E+02 -0.38477056375E+03  0.39805929009E+03  0.81275393453E+02 0.  0.
         25    2    1    2    0    0  0.64751241155E+02  0.11250557661E+02 -0.30053838304E+03  0.33210057936E+03  0.12509267306E+03 0.  0.
         24    2    1    2    0    0 -0.18742969885E+02  0.29741650026E+02  0.67613675206E+03  0.68164501428E+03  0.79013627571E+02 0.  0.
        -13    1    5    5    0    0 -0.84353395648E+01 -0.13348372167E+02  0.49198759237E+03  0.49224092175E+03  0.00000000000E+00 0.  1.
         14    1    5    5    0    0 -0.10307630320E+02  0.43090022193E+02  0.18414915969E+03  0.18940409253E+03  0.00000000000E+00 0. -1.
         13    1    3    3    0    0 -0.62798725279E+02 -0.40127908797E+02 -0.21683883471E+03  0.22928804853E+03  0.00000000000E+00 0. -1.
        -14    1    3    3    0    0  0.16790454009E+02 -0.86429889118E+00 -0.16793172904E+03  0.16877124155E+03  0.00000000000E+00 0.  1.
          5    1    4    4  501    0  0.49375918060E+02  0.64921865288E+02 -0.21374090551E+03  0.22881319229E+03  0.41800000000E+01 0. -1.
         -5    1    4    4    0  501  0.15375323096E+02 -0.53671307627E+02 -0.86797477526E+02  0.10328738707E+03  0.41800000000E+01 0. -1.
</event>
<event>
11    1  0.1003949E-008  0.1441640E+03  0.7561462E-02  0.1102996E+00
         22   -1    0    0    0    0  0.00000000000E+00  0.00000000000E+00  0.11302097408E+04  0.11302097408E+04  0.00000000000E+00 0. -1.
         22   -1    0    0    0    0 -0.00000000000E+00 -0.00000000000E+00 -0.44987857740E+03  0.44987857740E+03  0.00000000000E+00 0.  1.
        -24    2    1    2    0    0  0.70959981819E+02 -0.46300234850E+01 -0.41889599073E+03  0.43248099677E+03  0.80679646629E+02 0.  0.
         25    2    1    2    0    0 -0.93643135763E+02  0.46046833843E+02  0.28687737461E+03  0.32990270562E+03  0.12509124401E+03 0.  0.
         24    2    1    2    0    0  0.22683153944E+02 -0.41416810358E+02  0.81234977953E+03  0.81770461583E+03  0.80615115145E+02 0.  0.
        -13    1    5    5    0    0  0.29918701374E+02  0.79349529898E+01  0.53575137510E+03  0.53664478763E+03  0.00000000000E+00 0.  1.
         14    1    5    5    0    0 -0.72355474295E+01 -0.49351763347E+02  0.27659840443E+03  0.28105982820E+03  0.00000000000E+00 0. -1.
         13    1    3    3    0    0 -0.77588282849E+01  0.11975792871E+02 -0.15207370992E+02  0.20853852491E+02  0.00000000000E+00 0. -1.
        -14    1    3    3    0    0  0.78718810104E+02 -0.16605816356E+02 -0.40368861974E+03  0.41162714428E+03  0.00000000000E+00 0.  1.
          5    1    4    4  501    0 -0.66333815722E+02  0.55756224461E+02  0.28781297948E+03  0.30060391753E+03  0.41800000000E+01 0. -1.
         -5    1    4    4    0  501 -0.27309320041E+02 -0.97093906184E+01 -0.93560486947E+00  0.29298788093E+02  0.41800000000E+01 0. -1.
</event>
<event>
11    1  0.1003949E-008  0.1251270E+03  0.7561462E-02  0.1125406E+00
         22   -1    0    0    0    0  0.00000000000E+00  0.00000000000E+00  0.17776043431E+03  0.17776043431E+03  0.00000000000E+00 0.  1.
         22   -1    0    0    0    0 -0.00000000000E+00 -0.00000000000E+00 -0.43700946593E+03  0.43700946593E+03  0.00000000000E+00 0. -1.
         24    2    1    2    0    0  0.10033233183E+02  0.63112008664E+01 -0.31741421381E+03  0.32771257135E+03  0.80642726086E+02 0.  0.
         25    2    1    2    0    0 -0.59476065081E+01 -0.57309523180E+01 -0.63558604114E+02  0.14055489201E+03  0.12509102155E+03 0.  0.
        -24    2    1    2    0    0 -0.40856266752E+01 -0.58024854830E+00  0.12172378631E+03  0.14650243688E+03  0.81420235968E+02 0.  0.
        -11    1    3    3    0    0 -0.11810934190E+02 -0.17780623140E+02 -0.22513982377E+02  0.31024637439E+02  0.00000000000E+00 0.  1.
         12    1    3    3    0    0  0.21844167374E+02  0.24091824007E+02 -0.29490023143E+03  0.29668793391E+03  0.00000000000E+00 0. -1.
         13    1    5    5    0    0  0.12288650119E+02  0.35372950118E+02  0.35233098639E+02  0.51416220801E+02  0.00000000000E+00 0. -1.
        -14    1    5    5    0    0 -0.16374276794E+02 -0.35953198666E+02  0.86490687667E+02  0.95086216077E+02  0.00000000000E+00 0.  1.
          5    1    4    4  501    0  0.40923125457E+02  0.34054204723E+02 -0.57755180533E+02  0.78660818295E+02  0.41800000000E+01 0.  1.
         -5    1    4    4    0  501 -0.46870731966E+02 -0.39785157041E+02 -0.58034235818E+01  0.61894073715E+02  0.41800000000E+01 0.  1.
</event>
<event>
11    1  0.1003949E-008  0.2249726E+03  0.7561462E-02  0.1038146E+00
         22   -1    0    0    0    0  0.00000000000E+00  0.00000000000E+00  0.16627203286E+04  0.16627203286E+04  0.00000000000E+00 0.  1.
         22   -1    0    0    0    0 -0.00000000000E+00 -0.00000000000E+00 -0.87483531343E+03  0.87483531343E+03  0.00000000000E+00 0.  1.
         24    2    1    2    0    0 -0.98155769301E+02 -0.73402832148E+02 -0.48094626912E+03  0.50322843232E+03  0.83108426155E+02 0.  0.
         25    2    1    2    0    0  0.27724723861E+03  0.11907489744E+03 -0.30437758992E+03  0.44647181551E+03  0.12508597958E+03 0.  0.
        -24    2    1    2    0    0 -0.17909146931E+03 -0.45672065289E+02  0.15732088743E+04  0.15878553942E+04  0.11017667208E+03 0.  0.
        -13    1    3    3    0    0 -0.72915487474E+02 -0.19065993145E+02 -0.36519379404E+03  0.37288964535E+03  0.00000000000E+00 0.  1.
         14    1    3    3    0    0 -0.25240281827E+02 -0.54336839003E+02 -0.11575247508E+03  0.13033878696E+03  0.00000000000E+00 0. -1.
         11    1    5    5    0    0 -0.31245060010E+02  0.30662893986E+02  0.20891188511E+03  0.21344939116E+03  0.00000000000E+00 0. -1.
        -12    1    5    5    0    0 -0.14784640930E+03 -0.76334959275E+02  0.13642969891E+04  0.13744060031E+04  0.00000000000E+00 0.  1.
          5    1    4    4  501    0  0.20317826300E+03  0.53765884850E+02 -0.26921675348E+03  0.34156596681E+03  0.41800000000E+01 0. -1.
         -5    1    4    4    0  501  0.74068975611E+02  0.65309012587E+02 -0.35160836437E+02  0.10490584870E+03  0.41800000000E+01 0. -1.
</event>
<event>
11    1  0.1003949E-008  0.1396669E+03  0.7561462E-02  0.1107931E+00
         22   -1    0    0    0    0  0.00000000000E+00  0.00000000000E+00  0.17095722889E+04  0.17095722889E+04  0.00000000000E+00 0.  1.
         22   -1    0    0    0    0 -0.00000000000E+00 -0.00000000000E+00 -0.23001107178E+04  0.23001107178E+04  0.00000000000E+00 0. -1.
        -24    2    1    2    0    0  0.96763077303E+01  0.76293381821E+01 -0.21831083248E+04  0.21846306496E+04  0.80605706835E+02 0.  0.
         25    2    1    2    0    0 -0.15433474640E+02 -0.69390253764E+02 -0.69979002744E+02  0.15999420051E+03  0.12509150217E+03 0.  0.
         24    2    1    2    0    0  0.57571669097E+01  0.61760915582E+02  0.16625488986E+04  0.16650581566E+04  0.67098948739E+02 0.  0.
        -11    1    5    5    0    0 -0.16424599125E+02  0.24287196819E+02  0.12243090644E+04  0.12246600837E+04  0.00000000000E+00 0.  1.
         12    1    5    5    0    0  0.22181766035E+02  0.37473718764E+02  0.43823983418E+03  0.44039807289E+03  0.00000000000E+00 0. -1.
         13    1    3    3    0    0 -0.12841349846E+02  0.33218856421E+02 -0.16758409143E+04  0.16762193063E+04  0.00000000000E+00 0. -1.
        -14    1    3    3    0    0  0.22517657576E+02 -0.25589518239E+02 -0.50726741044E+03  0.50841134334E+03  0.00000000000E+00 0.  1.
          5    1    4    4  501    0 -0.43154188608E+02 -0.75255708126E+02 -0.27235077702E+01  0.86894162603E+02  0.41800000000E+01 0. -1.
         -5    1    4    4    0  501  0.27720713968E+02  0.58654543618E+01 -0.67255494974E+02  0.73100037907E+02  0.41800000000E+01 0. -1.
</event>
<event>
11    1  0.1003949E-008  0.1264353E+03  0.7561462E-02  0.1123728E+00
         22   -1    0    0    0    0  0.00000000000E+00  0.00000000000E+00  0.32676747887E+03  0.32676747887E+03  0.00000000000E+00 0.  1.
         22   -1    0    0    0    0 -0.00000000000E+00 -0.00000000000E+00 -0.67735746647E+03  0.67735746647E+03  0.00000000000E+00 0.  1.
        -24    2    1    2    0    0  0.14231261276E+01 -0.12157823598E+02 -0.57839106681E+03  0.58400321048E+03  0.79835366347E+02 0.  0.
         25    2    1    2    0    0 -0.19315925351E+02  0.15135616990E+02 -0.44039262033E+02  0.13486728850E+03  0.12509011565E+03 0.  0.
         24    2    1    2    0    0  0.17892799224E+02 -0.29777933921E+01  0.27184034124E+03  0.28525444636E+03  0.84521645307E+02 0.  0.
        -11    1    5    5    0    0 -0.13548028715E+02  0.31666982020E+02  0.16599121895E+03  0.16952708221E+03  0.00000000000E+00 0.  1.
         12    1    5    5    0    0  0.31440827939E+02 -0.34644775412E+02  0.10584912228E+03  0.11572736415E+03  0.00000000000E+00 0. -1.
         13    1    3    3    0    0  0.20077005596E+02  0.28636591560E+02 -0.21018089638E+03  0.21307076226E+03  0.00000000000E+00 0. -1.
        -14    1    3    3    0    0 -0.18653879468E+02 -0.40794415159E+02 -0.36821017044E+03  0.37093244822E+03  0.00000000000E+00 0.  1.
          5    1    4    4  501    0  0.50285789218E+02  0.19749219197E+02 -0.34752932596E+02  0.64373371670E+02  0.41800000000E+01 0. -1.
         -5    1    4    4    0  501 -0.69601714569E+02 -0.46136022069E+01 -0.92863294375E+01  0.70493916835E+02  0.41800000000E+01 0. -1.
</event>
<event>
11    1  0.1003949E-008  0.1735335E+03  0.7561462E-02  0.1074997E+00
         22   -1    0    0    0    0  0.00000000000E+00  0.00000000000E+00  0.17479555622E+03  0.17479555622E+03  0.00000000000E+00 0. -1.
         22   -1    0    0    0    0 -0.00000000000E+00 -0.00000000000E+00 -0.55061758809E+03  0.55061758809E+03  0.00000000000E+00 0.  1.
         24    2    1    2    0    0 -0.39599273153E+02  0.97103374940E+02 -0.33813715294E+03  0.36270643225E+03  0.78879997067E+02 0.  0.
         25    2    1    2    0    0 -0.75355097967E+02 -0.13079925453E+03 -0.79858575677E+02  0.21168722972E+03  0.12508898969E+03 0.  0.
        -24    2    1    2    0    0  0.11495437112E+03  0.33695879595E+02  0.42173696757E+02  0.15101948233E+03  0.81721133161E+02 0.  0.
        -11    1    3    3    0    0 -0.35187827495E+02  0.86752985939E+02 -0.33874045529E+03  0.35143898449E+03  0.00000000000E+00 0.  1.
         12    1    3    3    0    0 -0.44114456575E+01  0.10350389001E+02  0.60330234478E+00  0.11267447758E+02  0.00000000000E+00 0. -1.
         11    1    5    5    0    0  0.35065073528E+02  0.48412138675E+02  0.63208804140E+00  0.59780382132E+02  0.00000000000E+00 0. -1.
        -12    1    5    5    0    0  0.79889297593E+02 -0.14716259080E+02  0.41541608716E+02  0.91239100203E+02  0.00000000000E+00 0.  1.
          5    1    4    4  501    0 -0.89787349817E+02 -0.10447347543E+03 -0.10422886448E+03  0.17279352952E+03  0.41800000000E+01 0.  1.
         -5    1    4    4    0  501  0.14432251850E+02 -0.26325779109E+02  0.24370288799E+02  0.38893700201E+02  0.41800000000E+01 0.  1.
</event>
<event>
11    1  0.1003949E-008  0.1514481E+03  0.7561462E-02  0.1095408E+00
         22   -1    0    0    0    0  0.00000000000E+00  0.00000000000E+00  0.18993559988E+03  0.18993559988E+03  0.00000000000E+00 0.  1.
         22   -1    0    0    0    0 -0.00000000000E+00 -0.00000000000E+00 -0.10042157137E+04  0.10042157137E+04  0.00000000000E+00 0. -1.
         24    2    1    2    0    0  0.79844359135E+02  0.28203684362E+02 -0.89736489646E+03  0.90489596290E+03  0.80014853508E+02 0.  0.
         25    2    1    2    0    0 -0.10378657287E+03 -0.41529532200E+01 -0.87131534242E+01  0.16282924103E+03  0.12509413640E+03 0.  0.
        -24    2    1    2    0    0  0.23942213733E+02 -0.24050731142E+02  0.91797936035E+02  0.12642610969E+03  0.80031449341E+02 0.  0.
        -11    1    3    3    0    0 -0.35484946430E+01 -0.14281322641E+02 -0.43596481727E+02  0.46013054773E+02  0.00000000000E+00 0.  1.
         12    1    3    3    0    0  0.83392853778E+02  0.42485007003E+02 -0.85376841473E+03  0.85888290813E+03  0.00000000000E+00 0. -1.
         11    1    5    5    0    0  0.23161998904E+02  0.34512388258E+01 -0.65384386229E+01  0.24313379491E+02  0.00000000000E+00 0. -1.
        -12    1    5    5    0    0  0.78021482894E+00 -0.27501969968E+02  0.98336374658E+02  0.10211273020E+03  0.00000000000E+00 0.  1.
          5    1    4    4  501    0 -0.22005061076E+02  0.37214368571E+02  0.39919046956E+02  0.58992666078E+02  0.41800000000E+01 0.  1.
         -5    1    4    4    0  501 -0.81781511792E+02 -0.41367321791E+02 -0.48632200380E+02  0.10383657495E+03  0.41800000000E+01 0.  1.
</event>
<event>
11    1  0.1003949E-008  0.2403651E+03  0.7561462E-02  0.1029161E+00
         22   -1    0    0    0    0  0.00000000000E+00  0.00000000000E+00  0.42609150066E+03  0.42609150066E+03  0.00000000000E+00 0.  1.
         22   -1    0    0    0    0 -0.00000000000E+00 -0.00000000000E+00 -0.63698566234E+03  0.63698566234E+03  0.00000000000E+00 0.  1.
         24    2    1    2    0    0  0.18025873079E+02 -0.29101820976E+02 -0.32384131766E+03  0.33563110055E+03  0.81260005850E+02 0.  0.
         25    2    1    2    0    0  0.17390693962E+01  0.23043310306E+03 -0.21135164476E+03  0.33677896916E+03  0.12509243373E+03 0.  0.
        -24    2    1    2    0    0 -0.19764942475E+02 -0.20133128209E+03  0.32429880074E+03  0.39066709329E+03  0.80784450971E+02 0.  0.
        -11    1    3    3    0    0  0.28851453818E+02 -0.14480863675E+02 -0.31256445820E+03  0.31422705537E+03  0.00000000000E+00 0.  1.
         12    1    3    3    0    0 -0.10825580739E+02 -0.14620957301E+02 -0.11276859462E+02  0.21404045180E+02  0.00000000000E+00 0. -1.
         11    1    5    5    0    0  0.31427458106E+02 -0.70188038626E+02  0.10772456122E+03  0.13235795019E+03  0.00000000000E+00 0. -1.
        -12    1    5    5    0    0 -0.51192400582E+02 -0.13114324346E+03  0.21657423952E+03  0.25830914310E+03  0.00000000000E+00 0.  1.
          5    1    4    4  501    0 -0.23721575977E+02  0.22384129769E+03 -0.15175872498E+03  0.27150657952E+03  0.41800000000E+01 0.  1.
         -5    1    4    4    0  501  0.25460645373E+02  0.65918053753E+01 -0.59592919779E+02  0.65272389636E+02  0.41800000000E+01 0.  1.
</event>
<event>
11    1  0.1003949E-008  0.2866132E+03  0.7561462E-02  0.1006022E+00
         22   -1    0    0    0    0  0.00000000000E+00  0.00000000000E+00  0.10334891292E+04  0.10334891292E+04  0.00000000000E+00 0. -1.
         22   -1    0    0    0    0 -0.00000000000E+00 -0.00000000000E+00 -0.28218874735E+03  0.28218874735E+03  0.00000000000E+00 0. -1.
         24    2    1    2    0    0 -0.52731445573E+02  0.11746403520E+03 -0.17269237494E+03  0.22889740619E+03  0.77414218841E+02 0.  0.
         25    2    1    2    0    0 -0.11838215952E+03  0.15582261196E+03  0.29625243964E+03  0.37644057019E+03  0.12508786032E+03 0.  0.
        -24    2    1    2    0    0  0.17111360509E+03 -0.27328664716E+03  0.62774031719E+03  0.71033990022E+03  0.80990188609E+02 0.  0.
        -13    1    3    3    0    0  0.16054069805E+02  0.35892450229E+02 -0.72769468212E+02  0.82712735685E+02  0.00000000000E+00 0.  1.
         14    1    3    3    0    0 -0.68785515378E+02  0.81571584971E+02 -0.99922906730E+02  0.14618467050E+03  0.00000000000E+00 0. -1.
         11    1    5    5    0    0  0.66916667440E+02 -0.95494865643E+02  0.31420776383E+03  0.33514717453E+03  0.00000000000E+00 0. -1.
        -12    1    5    5    0    0  0.10419693765E+03 -0.17779178152E+03  0.31353255336E+03  0.37519272569E+03  0.00000000000E+00 0.  1.
          5    1    4    4  501    0 -0.75917256663E+01  0.38098238555E+01  0.11433846832E+03  0.11472971191E+03  0.41800000000E+01 0.  1.
         -5    1    4    4    0  501 -0.11079043385E+03  0.15201278810E+03  0.18191397132E+03  0.26171085828E+03  0.41800000000E+01 0.  1.
</event>
<event>
11    1  0.1003949E-008  0.1701379E+03  0.7561462E-02  0.1077912E+00
         22   -1    0    0    0    0  0.00000000000E+00  0.00000000000E+00  0.49144301998E+03  0.49144301998E+03  0.00000000000E+00 0.  1.
         22   -1    0    0    0    0 -0.00000000000E+00 -0.00000000000E+00 -0.85806321843E+03  0.85806321843E+03  0.00000000000E+00 0.  1.
         24    2    1    2    0    0  0.80201664010E+02 -0.14287597730E+02 -0.36601926385E+03  0.38365012264E+03  0.81122578409E+02 0.  0.
         25    2    1    2    0    0 -0.18714696863E+03 -0.24468373828E+02 -0.44538182693E+03  0.49963585624E+03  0.12509327679E+03 0.  0.
        -24    2    1    2    0    0  0.10694530462E+03  0.38755971558E+02  0.44478089234E+03  0.46622025952E+03  0.81190915050E+02 0.  0.
        -13    1    3    3    0    0  0.91920604954E+02  0.43019198328E+01 -0.31329214394E+03  0.32652698447E+03  0.00000000000E+00 0.  1.
         14    1    3    3    0    0 -0.11718940944E+02 -0.18589517563E+02 -0.52727119913E+02  0.57123138170E+02  0.00000000000E+00 0. -1.
         11    1    5    5    0    0  0.57115147885E+02 -0.16246384589E-01  0.95479610803E+02  0.11125869162E+03  0.00000000000E+00 0. -1.
        -12    1    5    5    0    0  0.49830156737E+02  0.38772217943E+02  0.34930128154E+03  0.35496156790E+03  0.00000000000E+00 0.  1.
          5    1    4    4  501    0 -0.11686167812E+03  0.35681045144E+02 -0.32851649578E+03  0.35052867101E+03  0.41800000000E+01 0. -1.
         -5    1    4    4    0  501 -0.70285290512E+02 -0.60149418972E+02 -0.11686533115E+03  0.14910718524E+03  0.41800000000E+01 0. -1.
</event>
<event>
11    1  0.1003949E-008  0.2864180E+03  0.7561462E-02  0.1006109E+00
         22   -1    0    0    0    0  0.00000000000E+00  0.00000000000E+00  0.40574314411E+03  0.40574314411E+03  0.00000000000E+00 0. -1.
         22   -1    0    0    0    0 -0.00000000000E+00 -0.00000000000E+00 -0.29451708596E+03  0.29451708596E+03  0.00000000000E+00 0. -1.
         24    2    1    2    0    0  0.23211509383E+02  0.26240779045E+03 -0.88140193051E+02  0.28870730157E+03  0.78654877112E+02 0.  0.
         25    2    1    2    0    0 -0.26565347201E+02 -0.24157937299E+03  0.18129058323E+03  0.32799434091E+03  0.12509077095E+03 0.  0.
        -24    2    1    2    0    0  0.33538378180E+01 -0.20828417461E+02  0.18075667980E+02  0.83558587587E+02  0.78805054308E+02 0.  0.
        -13    1    3    3    0    0  0.52207544705E+02  0.17396033705E+03 -0.63711140139E+02  0.19247580619E+03  0.00000000000E+00 0.  1.
         14    1    3    3    0    0 -0.28996035322E+02  0.88447453403E+02 -0.24429052912E+02  0.96231495385E+02  0.00000000000E+00 0. -1.
         11    1    5    5    0    0  0.53470443218E+01 -0.47087709066E+02  0.28426969514E+02  0.55262426872E+02  0.00000000000E+00 0. -1.
        -12    1    5    5    0    0 -0.19932065038E+01  0.26259291605E+02 -0.10351301534E+02  0.28296160715E+02  0.00000000000E+00 0.  1.
          5    1    4    4  501    0 -0.65806875742E+02 -0.21703883610E+03  0.14854760756E+03  0.27114620665E+03  0.41800000000E+01 0. -1.
         -5    1    4    4    0  501  0.39241528540E+02 -0.24540536892E+02  0.32742975670E+02  0.56848134260E+02  0.41800000000E+01 0. -1.
</event>
<event>
11    1  0.1003949E-008  0.7725554E+03  0.7561462E-02  0.8931723E-01
         22   -1    0    0    0    0  0.00000000000E+00  0.00000000000E+00  0.60281727759E+03  0.60281727759E+03  0.00000000000E+00 0. -1.
         22   -1    0    0    0    0 -0.00000000000E+00 -0.00000000000E+00 -0.21864114947E+04  0.21864114947E+04  0.00000000000E+00 0. -1.
         24    2    1    2    0    0  0.73541322804E+03 -0.12051588489E+03 -0.15921101426E+04  0.17598823231E+04  0.83751959475E+02 0.  0.
         25    2    1    2    0    0 -0.83886766929E+03  0.18691296523E+03  0.67909389602E+02  0.87114544814E+03  0.12508910209E+03 0.  0.
        -24    2    1    2    0    0  0.10345444125E+03 -0.66397080335E+02 -0.59393464133E+02  0.15820100100E+03  0.79928589665E+02 0.  0.
        -13    1    3    3    0    0  0.10761930019E+02 -0.10021747500E+01 -0.69611333879E+01  0.12856160780E+02  0.00000000000E+00 0.  1.
         14    1    3    3    0    0  0.72465129802E+03 -0.11951371014E+03 -0.15851490092E+04  0.17470261623E+04  0.00000000000E+00 0. -1.
         11    1    5    5    0    0  0.98718884260E+02 -0.81679904791E+02 -0.61391131905E+02  0.14207707779E+03  0.00000000000E+00 0. -1.
        -12    1    5    5    0    0  0.47355569897E+01  0.15282824456E+02  0.19976677725E+01  0.16123923216E+02  0.00000000000E+00 0.  1.
          5    1    4    4  501    0 -0.19788976994E+03  0.97709556752E+02  0.31259322406E+02  0.22293975905E+03  0.41800000000E+01 0. -1.
         -5    1    4    4    0  501 -0.64097789935E+03  0.89203408477E+02  0.36650067196E+02  0.64820568909E+03  0.41800000000E+01 0. -1.
</event>
<event>
11    1  0.1003949E-008  0.1433790E+03  0.7561462E-02  0.1103843E+00
         22   -1    0    0    0    0  0.00000000000E+00  0.00000000000E+00  0.18232862898E+04  0.18232862898E+04  0.00000000000E+00 0.  1.
         22   -1    0    0    0    0 -0.00000000000E+00 -0.00000000000E+00 -0.28236762761E+03  0.28236762761E+03  0.00000000000E+00 0.  1.
        -24    2    1    2    0    0  0.13886951559E+02 -0.71536368795E+02 -0.18275805139E+03  0.22293239792E+03  0.10482389618E+03 0.  0.
         25    2    1    2    0    0 -0.32881815286E+02  0.55188251066E+02 -0.15523673208E+02  0.14147968071E+03  0.12509419968E+03 0.  0.
         24    2    1    2    0    0  0.18994863727E+02  0.16348117729E+02  0.17392003868E+04  0.17412418388E+04  0.80480369859E+02 0.  0.
        -13    1    5    5    0    0  0.44608119397E+02  0.27634484071E+02  0.86251567463E+03  0.86411043160E+03  0.00000000000E+00 0.  1.
         14    1    5    5    0    0 -0.25613255670E+02 -0.11286366342E+02  0.87668471213E+03  0.87713140715E+03  0.00000000000E+00 0. -1.
         13    1    3    3    0    0 -0.43628176258E+02 -0.46359276113E+02 -0.76623360317E+02  0.99617968216E+02  0.00000000000E+00 0. -1.
        -14    1    3    3    0    0  0.57515127817E+02 -0.25177092682E+02 -0.10613469107E+03  0.12331442970E+03  0.00000000000E+00 0.  1.
          5    1    4    4  501    0  0.29434631809E+02 -0.24246565372E+02 -0.12633858336E+02  0.40390348581E+02  0.41800000000E+01 0.  1.
         -5    1    4    4    0  501 -0.62316447094E+02  0.79434816438E+02 -0.28898148724E+01  0.10108933213E+03  0.41800000000E+01 0.  1.
</event>
<event>
11    1  0.1003949E-008  0.1507129E+03  0.7561462E-02  0.1096153E+00
         22   -1    0    0    0    0  0.00000000000E+00  0.00000000000E+00  0.88044035627E+02  0.88044035627E+02  0.00000000000E+00 0.  1.
         22   -1    0    0    0    0 -0.00000000000E+00 -0.00000000000E+00 -0.94022726912E+03  0.94022726912E+03  0.00000000000E+00 0. -1.
         24    2    1    2    0    0 -0.48922120051E+02  0.51947316970E+01 -0.68078099385E+03  0.68725609694E+03  0.80236040067E+02 0.  0.
         25    2    1    2    0    0  0.11202018969E+03 -0.44308723682E+02 -0.16248106923E+03  0.23782225690E+03  0.12509013602E+03 0.  0.
        -24    2    1    2    0    0 -0.63098069636E+02  0.39113991985E+02 -0.89211704155E+01  0.10319295090E+03  0.71119104846E+02 0.  0.
        -13    1    3    3    0    0 -0.57567304288E+00  0.75777708614E+01 -0.37096766729E+01  0.84566962638E+01  0.00000000000E+00 0.  1.
         14    1    3    3    0    0 -0.48346447009E+02 -0.23830391644E+01 -0.67707131718E+03  0.67879940067E+03  0.00000000000E+00 0. -1.
         13    1    5    5    0    0 -0.23046697436E+02  0.54661502164E+02 -0.40115883625E-01  0.59321426912E+02  0.00000000000E+00 0. -1.
        -14    1    5    5    0    0 -0.40051372200E+02 -0.15547510179E+02 -0.88810545319E+01  0.43871523993E+02  0.00000000000E+00 0.  1.
          5    1    4    4  501    0 -0.10973536248E+02  0.75905374028E+01  0.11767349016E+02  0.18275055642E+02  0.41800000000E+01 0. -1.
         -5    1    4    4    0  501  0.12299372594E+03 -0.51899261085E+02 -0.17424841824E+03  0.21954720126E+03  0.41800000000E+01 0. -1.
</event>
<event>
11    1  0.1003949E-008  0.1322573E+03  0.7561462E-02  0.1116526E+00
         22   -1    0    0    0    0  0.00000000000E+00  0.00000000000E+00  0.66555502396E+03  0.66555502396E+03  0.00000000000E+00 0. -1.
         22   -1    0    0    0    0 -0.00000000000E+00 -0.00000000000E+00 -0.35072942597E+03  0.35072942597E+03  0.00000000000E+00 0.  1.
         24    2    1    2    0    0  0.20783198370E+02  0.18933805325E+02 -0.31974230875E+03  0.33085464257E+03  0.80244751753E+02 0.  0.
         25    2    1    2    0    0  0.25620108524E+02 -0.19092313910E+02  0.17707102063E+03  0.21914041261E+03  0.12508983844E+03 0.  0.
        -24    2    1    2    0    0 -0.46403306893E+02  0.15850858522E+00  0.45749688611E+03  0.46628939476E+03  0.77259995115E+02 0.  0.
        -13    1    3    3    0    0  0.41320547609E+02  0.84789636517E+01 -0.29087099100E+03  0.29391361636E+03  0.00000000000E+00 0.  1.
         14    1    3    3    0    0 -0.20537349240E+02  0.10454841673E+02 -0.28871317755E+02  0.36941026205E+02  0.00000000000E+00 0. -1.
         11    1    5    5    0    0  0.48714482620E+01 -0.30107484836E+02  0.14556050248E+03  0.14872138895E+03  0.00000000000E+00 0. -1.
        -12    1    5    5    0    0 -0.51274755155E+02  0.30265993421E+02  0.31193638364E+03  0.31756800581E+03  0.00000000000E+00 0.  1.
          5    1    4    4  501    0 -0.16645890244E+02  0.34612977528E+01 -0.13807350762E+02  0.22297568908E+02  0.41800000000E+01 0. -1.
         -5    1    4    4    0  501  0.42265998767E+02 -0.22553611663E+02  0.19087837139E+03  0.19684284370E+03  0.41800000000E+01 0. -1.
</event>
<event>
11    1  0.1003949E-008  0.1362564E+03  0.7561462E-02  0.1111812E+00
         22   -1    0    0    0    0  0.00000000000E+00  0.00000000000E+00  0.10060150624E+04  0.10060150624E+04  0.00000000000E+00 0. -1.
         22   -1    0    0    0    0 -0.00000000000E+00 -0.00000000000E+00 -0.16496265504E+03  0.16496265504E+03  0.00000000000E+00 0.  1.
         24    2    1    2    0    0 -0.35408582305E+02  0.62763188923E+01 -0.13421976185E+03  0.16023196129E+03  0.79788326645E+02 0.  0.
         25    2    1    2    0    0  0.21008232717E+01  0.42412119238E+02  0.29700014792E+03  0.32505767832E+03  0.12510077958E+03 0.  0.
        -24    2    1    2    0    0  0.33307759033E+02 -0.48688438130E+02  0.67827202130E+03  0.68568807785E+03  0.81456948160E+02 0.  0.
        -11    1    3    3    0    0 -0.97616804712E+01  0.40624199284E+01 -0.13407299683E+03  0.13448926403E+03  0.00000000000E+00 0.  1.
         12    1    3    3    0    0 -0.25646901833E+02  0.22138989639E+01 -0.14676502180E+00  0.25742697260E+02  0.00000000000E+00 0. -1.
         13    1    5    5    0    0  0.33035611658E+02 -0.16809821485E+02  0.60040065833E+03  0.60154374094E+03  0.00000000000E+00 0. -1.
        -14    1    5    5    0    0  0.27214737522E+00 -0.31878616645E+02  0.77871362970E+02  0.84144336911E+02  0.00000000000E+00 0.  1.
          5    1    4    4  501    0 -0.15777495712E+02  0.75504910173E+02  0.11092535792E+03  0.13517332673E+03  0.41800000000E+01 0.  1.
         -5    1    4    4    0  501  0.17878318984E+02 -0.33092790935E+02  0.18607479000E+03  0.18988435158E+03  0.41800000000E+01 0.  1.
</event>
<event>
11    1  0.1003949E-008  0.1448973E+03  0.7561462E-02  0.1102210E+00
         22   -1    0    0    0    0  0.00000000000E+00  0.00000000000E+00  0.17890249174E+03  0.17890249174E+03  0.00000000000E+00 0. -1.
         22   -1    0    0    0    0 -0.00000000000E+00 -0.00000000000E+00 -0.27287067607E+04  0.27287067607E+04  0.00000000000E+00 0.  1.
         24    2    1    2    0    0  0.42699620568E+02 -0.53797367468E+02 -0.20376946499E+04  0.20405113869E+04  0.82278913960E+02 0.  0.
         25    2    1    2    0    0 -0.11531163457E+03  0.44537967483E+02 -0.66107042380E+03  0.68406172402E+03  0.12508370568E+03 0.  0.
        -24    2    1    2    0    0  0.72612014004E+02  0.92593999853E+01  0.14896080474E+03  0.18303614149E+03  0.77166486760E+02 0.  0.
        -13    1    3    3    0    0  0.43363856584E+02 -0.31324240658E+02 -0.19166540871E+04  0.19174004594E+04  0.00000000000E+00 0.  1.
         14    1    3    3    0    0 -0.66423601620E+00 -0.22473126810E+02 -0.12104056275E+03  0.12311092750E+03  0.00000000000E+00 0. -1.
         11    1    5    5    0    0  0.59064655657E+02  0.40357668646E+02  0.11174148619E+03  0.13267831286E+03  0.00000000000E+00 0. -1.
        -12    1    5    5    0    0  0.13547358347E+02 -0.31098268661E+02  0.37219318542E+02  0.50357828633E+02  0.00000000000E+00 0.  1.
          5    1    4    4  501    0 -0.11807194963E+03  0.71850201296E+02 -0.61428753020E+03  0.62965870031E+03  0.41800000000E+01 0.  1.
         -5    1    4    4    0  501  0.27603150560E+01 -0.27312233813E+02 -0.46782893602E+02  0.54403023711E+02  0.41800000000E+01 0.  1.
</event>
<event>
11    1  0.1003949E-008  0.1360806E+03  0.7561462E-02  0.1112016E+00
         22   -1    0    0    0    0  0.00000000000E+00  0.00000000000E+00  0.17186247087E+03  0.17186247087E+03  0.00000000000E+00 0.  1.
         22   -1    0    0    0    0 -0.00000000000E+00 -0.00000000000E+00 -0.12409787934E+04  0.12409787934E+04  0.00000000000E+00 0.  1.
        -24    2    1    2    0    0  0.22897378814E+02  0.12386008446E+02 -0.11340196847E+04  0.11369724535E+04  0.77640270988E+02 0.  0.
         25    2    1    2    0    0 -0.26530952482E+02  0.43406261510E+02 -0.23433946982E+02  0.13704451936E+03  0.12507619852E+03 0.  0.
         24    2    1    2    0    0  0.36335736672E+01 -0.55792269956E+02  0.88337309177E+02  0.13882429134E+03  0.91338510106E+02 0.  0.
        -11    1    5    5    0    0 -0.11635424085E+02 -0.11955174049E+02  0.90818336160E+02  0.92337854984E+02  0.00000000000E+00 0.  1.
         12    1    5    5    0    0  0.15268997752E+02 -0.43837095907E+02 -0.24810269836E+01  0.46486436353E+02  0.00000000000E+00 0. -1.
         13    1    3    3    0    0  0.17618948900E+02  0.32734044761E+02 -0.25441238009E+03  0.25711399065E+03  0.00000000000E+00 0. -1.
        -14    1    3    3    0    0  0.52784299141E+01 -0.20348036316E+02 -0.87960730460E+03  0.87985846289E+03  0.00000000000E+00 0.  1.
          5    1    4    4  501    0 -0.54692566901E+02  0.62223145516E+02 -0.47219140556E+02  0.95446929479E+02  0.41800000000E+01 0. -1.
         -5    1    4    4    0  501  0.28161614419E+02 -0.18816884005E+02  0.23785193574E+02  0.41597589879E+02  0.41800000000E+01 0. -1.
</event>
<event>
11    1  0.1003949E-008  0.1766402E+03  0.7561462E-02  0.1072393E+00
         22   -1    0    0    0    0  0.00000000000E+00  0.00000000000E+00  0.93771585045E+03  0.93771585045E+03  0.00000000000E+00 0.  1.
         22   -1    0    0    0    0 -0.00000000000E+00 -0.00000000000E+00 -0.57945412595E+03  0.57945412595E+03  0.00000000000E+00 0. -1.
        -24    2    1    2    0    0 -0.34378566952E+02 -0.12385405541E+03 -0.44905819936E+03  0.47387531233E+03  0.79892629919E+02 0.  0.
         25    2    1    2    0    0 -0.11037394815E+01  0.10991546685E+03 -0.55383351940E+02  0.17548908867E+03  0.12508587641E+03 0.  0.
         24    2    1    2    0    0  0.35482306434E+02  0.13938588562E+02  0.86270327581E+03  0.86780557539E+03  0.85885367046E+02 0.  0.
        -13    1    5    5    0    0 -0.18550270313E+02  0.72263224500E+01  0.55260785347E+03  0.55296633892E+03  0.00000000000E+00 0.  1.
         14    1    5    5    0    0  0.54032576747E+02  0.67122661120E+01  0.31009542234E+03  0.31483923647E+03  0.00000000000E+00 0. -1.
         11    1    3    3    0    0 -0.31035222324E+02 -0.13495070233E+03 -0.42793974665E+03  0.44978584220E+03  0.00000000000E+00 0. -1.
        -12    1    3    3    0    0 -0.33433446284E+01  0.11096646918E+02 -0.21118452717E+02  0.24089470133E+02  0.00000000000E+00 0.  1.
          5    1    4    4  501    0 -0.52995127366E+02  0.32887480939E+02  0.79246255215E+01  0.63010650026E+02  0.41800000000E+01 0.  1.
         -5    1    4    4    0  501  0.51891387884E+02  0.77027985911E+02 -0.63307977461E+02  0.11247843865E+03  0.41800000000E+01 0.  1.
</event>
<event>
11    1  0.1003949E-008  0.2358425E+03  0.7561462E-02  0.1031724E+00
         22   -1    0    0    0    0  0.00000000000E+00  0.00000000000E+00  0.15835596416E+04  0.15835596416E+04  0.00000000000E+00 0. -1.
         22   -1    0    0    0    0 -0.00000000000E+00 -0.00000000000E+00 -0.32336889364E+03  0.32336889364E+03  0.00000000000E+00 0. -1.
        -24    2    1    2    0    0 -0.45873399541E+02 -0.20140617793E+02 -0.27109440846E+03  0.28724411642E+03  0.80665921250E+02 0.  0.
         25    2    1    2    0    0  0.18713186756E+03  0.14587676363E+03  0.49190066262E+03  0.56027806564E+03  0.12508750107E+03 0.  0.
         24    2    1    2    0    0 -0.14125846802E+03 -0.12573614584E+03  0.10393844938E+04  0.10594063532E+04  0.79108545875E+02 0.  0.
        -13    1    5    5    0    0  0.69305489088E+01 -0.24121988450E+02  0.11235977975E+03  0.11512872335E+03  0.00000000000E+00 0.  1.
         14    1    5    5    0    0 -0.14818901692E+03 -0.10161415739E+03  0.92702471408E+03  0.94427762985E+03  0.00000000000E+00 0. -1.
         11    1    3    3    0    0 -0.36075807069E+02 -0.27794974445E+02 -0.27101091454E+03  0.27481073534E+03  0.00000000000E+00 0. -1.
        -12    1    3    3    0    0 -0.97975924719E+01  0.76543566522E+01 -0.83493926155E-01  0.12433381086E+02  0.00000000000E+00 0.  1.
          5    1    4    4  501    0  0.20204627836E+03  0.14752875521E+03  0.44087450931E+03  0.50692725077E+03  0.41800000000E+01 0. -1.
         -5    1    4    4    0  501 -0.14914410799E+02 -0.16519915751E+01  0.51026153308E+02  0.53350814868E+02  0.41800000000E+01 0. -1.
</event>
<event>
11    1  0.1003949E-008  0.1421172E+03  0.7561462E-02  0.1105217E+00
         22   -1    0    0    0    0  0.00000000000E+00  0.00000000000E+00  0.53050356746E+03  0.53050356746E+03  0.00000000000E+00 0.  1.
         22   -1    0    0    0    0 -0.00000000000E+00 -0.00000000000E+00 -0.21756139322E+04  0.21756139322E+04  0.00000000000E+00 0.  1.
        -24    2    1    2    0    0  0.70701211589E+02 -0.63054808375E+01 -0.17260239798E+04  0.17290724085E+04  0.74122833489E+02 0.  0.
         25    2    1    2    0    0 -0.45209197966E+02 -0.24539072729E+02 -0.43384907078E+03  0.45444279981E+03  0.12508878611E+03 0.  0.
         24    2    1    2    0    0 -0.25492013623E+02  0.30844553567E+02  0.51476268584E+03  0.52260229140E+03  0.80816477230E+02 0.  0.
        -11    1    5    5    0    0 -0.51896293240E+02  0.12559405731E+02  0.23432095008E+03  0.24032742576E+03  0.00000000000E+00 0.  1.
         12    1    5    5    0    0  0.26404279617E+02  0.18285147836E+02  0.28044173576E+03  0.28227486564E+03  0.00000000000E+00 0. -1.
         11    1    3    3    0    0 -0.12525838093E+02  0.49263865321E+01 -0.49712049239E+03  0.49730267430E+03  0.00000000000E+00 0. -1.
        -12    1    3    3    0    0  0.83227049682E+02 -0.11231867370E+02 -0.12289034874E+04  0.12317697342E+04  0.00000000000E+00 0.  1.
          5    1    4    4  501    0 -0.59973615705E+02  0.59070446465E+01 -0.86965158771E+02  0.10588738828E+03  0.41800000000E+01 0.  1.
         -5    1    4    4    0  501  0.14764417739E+02 -0.30446117376E+02 -0.34688391201E+03  0.34855541153E+03  0.41800000000E+01 0.  1.
</event>
<event>
11    1  0.1003949E-008  0.1326220E+03  0.7561462E-02  0.1116089E+00
         22   -1    0    0    0    0  0.00000000000E+00  0.00000000000E+00  0.56499219078E+03  0.56499219078E+03  0.00000000000E+00 0. -1.
         22   -1    0    0    0    0 -0.00000000000E+00 -0.00000000000E+00 -0.13983444594E+03  0.13983444594E+03  0.00000000000E+00 0.  1.
         24    2    1    2    0    0 -0.10841027247E+02  0.24838420061E+02 -0.99081762466E+02  0.12450310006E+03  0.70351626058E+02 0.  0.
         25    2    1    2    0    0 -0.33654657282E+02 -0.32353307609E+02  0.17941265603E+03  0.22363534960E+03  0.12507795960E+03 0.  0.
        -24    2    1    2    0    0  0.44495684529E+02  0.75148875473E+01  0.34482685128E+03  0.35668818706E+03  0.79275254323E+02 0.  0.
        -11    1    3    3    0    0  0.33106666726E+01  0.89394831786E+01 -0.10250272227E+03  0.10294504818E+03  0.00000000000E+00 0.  1.
         12    1    3    3    0    0 -0.14151693920E+02  0.15898936883E+02  0.34209598025E+01  0.21558051878E+02  0.00000000000E+00 0. -1.
         11    1    5    5    0    0  0.59451342492E+02 -0.17456865012E+02  0.24394386083E+03  0.25168991139E+03  0.00000000000E+00 0. -1.
        -12    1    5    5    0    0 -0.14955657963E+02  0.24971752560E+02  0.10088299045E+03  0.10499827566E+03  0.00000000000E+00 0.  1.
          5    1    4    4  501    0 -0.33883187564E+02 -0.17049998568E+02  0.19658567105E+03  0.20025526538E+03  0.41800000000E+01 0. -1.
         -5    1    4    4    0  501  0.22853028266E+00 -0.15303309041E+02 -0.17173015015E+02  0.23380084226E+02  0.41800000000E+01 0. -1.
</event>
<event>
11    1  0.1003949E-008  0.1517896E+03  0.7561462E-02  0.1095064E+00
         22   -1    0    0    0    0  0.00000000000E+00  0.00000000000E+00  0.39323617356E+03  0.39323617356E+03  0.00000000000E+00 0.  1.
         22   -1    0    0    0    0 -0.00000000000E+00 -0.00000000000E+00 -0.94369406256E+03  0.94369406256E+03  0.00000000000E+00 0. -1.
         24    2    1    2    0    0 -0.52488619088E+01  0.89604470654E+01 -0.80326456530E+03  0.80736658662E+03  0.80616395122E+02 0.  0.
         25    2    1    2    0    0  0.75968640481E+02  0.40026017574E+02 -0.83619307348E+02  0.17324496548E+03  0.12509321757E+03 0.  0.
        -24    2    1    2    0    0 -0.70719778572E+02 -0.48986464640E+02  0.33642598365E+03  0.35631868402E+03  0.79872406436E+02 0.  0.
        -11    1    3    3    0    0  0.15103360369E+02  0.31883074708E+02 -0.18447275741E+03  0.18781597422E+03  0.00000000000E+00 0.  1.
         12    1    3    3    0    0 -0.20352222278E+02 -0.22922627642E+02 -0.61879180789E+03  0.61955061240E+03  0.00000000000E+00 0. -1.
         13    1    5    5    0    0 -0.50920543554E+02 -0.71031400032E+02  0.23856232941E+03  0.25406760234E+03  0.00000000000E+00 0. -1.
        -14    1    5    5    0    0 -0.19799235018E+02  0.22044935392E+02  0.97863654242E+02  0.10225108168E+03  0.00000000000E+00 0.  1.
          5    1    4    4  501    0  0.88380021716E+02  0.39047319081E+02 -0.86097277368E+01  0.97094393132E+02  0.41800000000E+01 0.  1.
         -5    1    4    4    0  501 -0.12411381235E+02  0.97869849332E+00 -0.75009579611E+02  0.76150572344E+02  0.41800000000E+01 0.  1.
</event>
<event>
11    1  0.1277398E-008  0.2057638E+03  0.7561462E-02  0.1050521E+00
         22   -1    0    0    0    0  0.00000000000E+00  0.00000000000E+00  0.58550549656E+03  0.58550549656E+03  0.00000000000E+00 0.  1.
         22   -1    0    0    0    0 -0.00000000000E+00 -0.00000000000E+00 -0.74949688172E+03  0.74949688172E+03  0.00000000000E+00 0.  1.
        -24    2    1    2    0    0 -0.16358127159E+02  0.34903726762E+02 -0.40516652962E+03  0.41472239583E+03  0.79679924794E+02 0.  0.
         25    2    1    2    0    0  0.10050211705E+03  0.10625477067E+03 -0.29568579417E+03  0.35280410695E+03  0.12509954911E+03 0.  0.
         24    2    1    2    0    0 -0.84143989896E+02 -0.14115849743E+03  0.53686093863E+03  0.56747587550E+03  0.82481933903E+02 0.  0.
        -11    1    5    5    0    0 -0.88994267497E+02 -0.83965285551E+02  0.41701777594E+03  0.43459633486E+03  0.00000000000E+00 0.  1.
         12    1    5    5    0    0  0.48502776014E+01 -0.57193211880E+02  0.11984316269E+03  0.13287954064E+03  0.00000000000E+00 0. -1.
         13    1    3    3    0    0  0.29038600808E+02  0.10114056034E+02 -0.84709905675E+02  0.90118269989E+02  0.00000000000E+00 0. -1.
        -14    1    3    3    0    0 -0.45396727966E+02  0.24789670728E+02 -0.32045662394E+03  0.32460412584E+03  0.00000000000E+00 0.  1.
          5    1    4    4  501    0  0.10963940920E+03  0.36006523645E+02 -0.22355537191E+03  0.25161825550E+03  0.41800000000E+01 0.  1.
         -5    1    4    4    0  501 -0.91372921448E+01  0.70248247024E+02 -0.72130422261E+02  0.10118585145E+03  0.41800000000E+01 0.  1.
</event>
<event>
11    1  0.1003949E-008  0.1274947E+03  0.7561462E-02  0.1122386E+00
         22   -1    0    0    0    0  0.00000000000E+00  0.00000000000E+00  0.66284561657E+03  0.66284561657E+03  0.00000000000E+00 0. -1.
         22   -1    0    0    0    0 -0.00000000000E+00 -0.00000000000E+00 -0.12589907178E+03  0.12589907178E+03  0.00000000000E+00 0.  1.
        -24    2    1    2    0    0 -0.42346451374E+01  0.26345439090E+02 -0.80861551536E+02  0.12339030559E+03  0.89300406593E+02 0.  0.
         25    2    1    2    0    0  0.23073223956E+02 -0.49952178485E+00  0.18344980293E+03  0.22323527483E+03  0.12509010572E+03 0.  0.
         24    2    1    2    0    0 -0.18838578818E+02 -0.25845917305E+02  0.43435829340E+03  0.44211910793E+03  0.76021543395E+02 0.  0.
        -13    1    5    5    0    0 -0.15662934919E+02  0.23486752731E+02  0.92709484996E+02  0.96912350566E+02  0.00000000000E+00 0.  1.
         14    1    5    5    0    0 -0.31756438992E+01 -0.49332670036E+02  0.34164880840E+03  0.34520675736E+03  0.00000000000E+00 0. -1.
         11    1    3    3    0    0  0.18299605659E+01  0.63462782912E+01  0.19649375974E+02  0.20729736612E+02  0.00000000000E+00 0. -1.
        -12    1    3    3    0    0 -0.60646057033E+01  0.19999160799E+02 -0.10051092751E+03  0.10266056898E+03  0.00000000000E+00 0.  1.
          5    1    4    4  501    0  0.63778766875E+02 -0.35014397059E+02  0.93304342176E+02  0.11839303938E+03  0.41800000000E+01 0.  1.
         -5    1    4    4    0  501 -0.40705542919E+02  0.34514875274E+02  0.90145460753E+02  0.10484223545E+03  0.41800000000E+01 0.  1.
</event>
<event>
11    1  0.1003949E-008  0.1904176E+03  0.7561462E-02  0.1061515E+00
         22   -1    0    0    0    0  0.00000000000E+00  0.00000000000E+00  0.13754173486E+04  0.13754173486E+04  0.00000000000E+00 0. -1.
         22   -1    0    0    0    0 -0.00000000000E+00 -0.00000000000E+00 -0.57921830197E+02  0.57921830197E+02  0.00000000000E+00 0.  1.
        -24    2    1    2    0    0  0.84664009949E+02  0.79348633053E+02  0.24319846667E+03  0.28041566615E+03  0.77609609448E+02 0.  0.
         25    2    1    2    0    0 -0.14701190661E+03 -0.10300735033E+03  0.29815992710E+03  0.36982348034E+03  0.12508816721E+03 0.  0.
         24    2    1    2    0    0  0.62347896657E+02  0.23658717278E+02  0.77613712458E+03  0.78310003226E+03  0.80061409294E+02 0.  0.
        -11    1    5    5    0    0 -0.65757576439E+01  0.22270291193E+02  0.73300601190E+02  0.76890731517E+02  0.00000000000E+00 0.  1.
         12    1    5    5    0    0  0.68923654301E+02  0.13884260855E+01  0.70283652339E+03  0.70620930074E+03  0.00000000000E+00 0. -1.
         11    1    3    3    0    0 -0.20164897814E+01  0.46603155024E+02  0.73056300092E+02  0.86678389880E+02  0.00000000000E+00 0. -1.
        -12    1    3    3    0    0  0.86680499730E+02  0.32745478030E+02  0.17014216658E+03  0.19373727626E+03  0.00000000000E+00 0.  1.
          5    1    4    4  501    0 -0.39305293819E+02  0.28518953357E+02  0.66436058351E+02  0.82398173960E+02  0.41800000000E+01 0.  1.
         -5    1    4    4    0  501 -0.10770661279E+03 -0.13152630369E+03  0.23172386875E+03  0.28742530638E+03  0.41800000000E+01 0.  1.
</event>
<event>
11    1  0.1003949E-008  0.2645352E+03  0.7561462E-02  0.1016429E+00
         22   -1    0    0    0    0  0.00000000000E+00  0.00000000000E+00  0.28787695446E+03  0.28787695446E+03  0.00000000000E+00 0. -1.
         22   -1    0    0    0    0 -0.00000000000E+00 -0.00000000000E+00 -0.15233333189E+04  0.15233333189E+04  0.00000000000E+00 0.  1.
         24    2    1    2    0    0 -0.32998196918E+02  0.29328268135E+02 -0.97385434861E+03  0.97788813123E+03  0.76966723962E+02 0.  0.
         25    2    1    2    0    0  0.26231723941E+03 -0.18896988037E+02 -0.44302236050E+03  0.53017019410E+03  0.12507674668E+03 0.  0.
        -24    2    1    2    0    0 -0.22931904249E+03 -0.10431280098E+02  0.18142034468E+03  0.30315194801E+03  0.79320408890E+02 0.  0.
        -11    1    3    3    0    0 -0.34894772354E+02  0.32873664190E+02 -0.97244721419E+03  0.97362821823E+03  0.00000000000E+00 0.  1.
         12    1    3    3    0    0  0.18965754360E+01 -0.35453960550E+01 -0.14071344124E+01  0.42599130068E+01  0.00000000000E+00 0. -1.
         13    1    5    5    0    0 -0.20364387128E+03  0.81355760395E+01  0.17920761591E+03  0.27138972624E+03  0.00000000000E+00 0. -1.
        -14    1    5    5    0    0 -0.25675171205E+02 -0.18566856138E+02  0.22127287723E+01  0.31762221771E+02  0.00000000000E+00 0.  1.
          5    1    4    4  501    0  0.25921498830E+03 -0.45013222310E+02 -0.38498331348E+03  0.46631344009E+03  0.41800000000E+01 0. -1.
         -5    1    4    4    0  501  0.31022511045E+01  0.26116234273E+02 -0.58039047012E+02  0.63856754009E+02  0.41800000000E+01 0. -1.
</event>
<event>
11    1  0.1003949E-008  0.1951427E+03  0.7561462E-02  0.1058013E+00
         22   -1    0    0    0    0  0.00000000000E+00  0.00000000000E+00  0.58938750768E+03  0.58938750768E+03  0.00000000000E+00 0. -1.
         22   -1    0    0    0    0 -0.00000000000E+00 -0.00000000000E+00 -0.16324654358E+03  0.16324654358E+03  0.00000000000E+00 0. -1.
         24    2    1    2    0    0 -0.40977717465E+01  0.76264254967E+01 -0.87322643055E+02  0.11865387664E+03  0.79865789632E+02 0.  0.
         25    2    1    2    0    0  0.89071579075E+02  0.11749412187E+03  0.21015987059E+03  0.28557633435E+03  0.12509219266E+03 0.  0.
        -24    2    1    2    0    0 -0.84973807328E+02 -0.12512054736E+03  0.30330373656E+03  0.34840384026E+03  0.80724097961E+02 0.  0.
        -13    1    3    3    0    0  0.34254149874E+02 -0.11424153314E+02 -0.29079718157E+02  0.46362571872E+02  0.00000000000E+00 0.  1.
         14    1    3    3    0    0 -0.38351921620E+02  0.19050578811E+02 -0.58242924899E+02  0.72291304773E+02  0.00000000000E+00 0. -1.
         11    1    5    5    0    0 -0.46301466826E+02 -0.85898611637E+02  0.26192370493E+03  0.27951104543E+03  0.00000000000E+00 0. -1.
        -12    1    5    5    0    0 -0.38672340502E+02 -0.39221935726E+02  0.41380031630E+02  0.68892794831E+02  0.00000000000E+00 0.  1.
          5    1    4    4  501    0 -0.18857220275E+02  0.48189656498E+02  0.11383712282E+03  0.12511674821E+03  0.41800000000E+01 0.  1.
         -5    1    4    4    0  501  0.10792879935E+03  0.69304465368E+02  0.96322747767E+02  0.16045958615E+03  0.41800000000E+01 0.  1.
</event>
<event>
11    1  0.1346425E-008  0.1475729E+03  0.7561462E-02  0.1099385E+00
         22   -1    0    0    0    0  0.00000000000E+00  0.00000000000E+00  0.82678695553E+03  0.82678695553E+03  0.00000000000E+00 0.  1.
         22   -1    0    0    0    0 -0.00000000000E+00 -0.00000000000E+00 -0.34170558188E+03  0.34170558188E+03  0.00000000000E+00 0. -1.
        -24    2    1    2    0    0 -0.30157533596E+02 -0.14562403079E+02 -0.22490571889E+03  0.23749724613E+03  0.68562519753E+02 0.  0.
         25    2    1    2    0    0 -0.21555541767E+02  0.73831347021E+02 -0.55800494024E+02  0.15706651069E+03  0.12506192252E+03 0.  0.
         24    2    1    2    0    0  0.51713075362E+02 -0.59268943942E+02  0.76578758657E+03  0.77392878058E+03  0.79674837908E+02 0.  0.
        -11    1    5    5    0    0  0.53113398080E+02 -0.58865823346E+02  0.76755444253E+03  0.77163854262E+03  0.00000000000E+00 0.  1.
         12    1    5    5    0    0 -0.14003227176E+01 -0.40312059559E+00 -0.17668559621E+01  0.22902379612E+01  0.00000000000E+00 0. -1.
         13    1    3    3    0    0 -0.39037588831E+02 -0.32433170084E+02 -0.11367101998E+03  0.12448672478E+03  0.00000000000E+00 0. -1.
        -14    1    3    3    0    0  0.88800552358E+01  0.17870767006E+02 -0.11123469891E+03  0.11301052135E+03  0.00000000000E+00 0.  1.
          5    1    4    4  501    0 -0.17665773150E+02  0.36051280118E+02  0.38214254922E+02  0.55583954684E+02  0.41800000000E+01 0. -1.
         -5    1    4    4    0  501 -0.38897686170E+01  0.37780066903E+02 -0.94014748946E+02  0.10148255601E+03  0.41800000000E+01 0. -1.
</event>
<event>
11    1  0.1003949E-008  0.1671942E+03  0.7561462E-02  0.1080500E+00
         22   -1    0    0    0    0  0.00000000000E+00  0.00000000000E+00  0.13340037620E+04  0.13340037620E+04  0.00000000000E+00 0.  1.
         22   -1    0    0    0    0 -0.00000000000E+00 -0.00000000000E+00 -0.47500099072E+03  0.47500099072E+03  0.00000000000E+00 0. -1.
        -24    2    1    2    0    0  0.11003720514E+03 -0.17536730707E+02 -0.40954150688E+03  0.43179951222E+03  0.79440855099E+02 0.  0.
         25    2    1    2    0    0 -0.10652549405E+03 -0.40138537496E-01  0.74647335309E+02  0.18046465887E+03  0.12509031113E+03 0.  0.
         24    2    1    2    0    0 -0.35117110824E+01  0.17576869244E+02  0.11938969428E+04  0.11967405816E+04  0.80478762103E+02 0.  0.
        -11    1    5    5    0    0  0.38467545518E+02  0.89110357184E+01  0.60197015946E+03  0.60326381584E+03  0.00000000000E+00 0.  1.
         12    1    5    5    0    0 -0.41979256600E+02  0.86658335261E+01  0.59192678333E+03  0.59347676575E+03  0.00000000000E+00 0. -1.
         13    1    3    3    0    0  0.67613505023E+02 -0.50980749926E+01 -0.35583403116E+03  0.36223671012E+03  0.00000000000E+00 0. -1.
        -14    1    3    3    0    0  0.42423700114E+02 -0.12438655714E+02 -0.53707475718E+02  0.69562802095E+02  0.00000000000E+00 0.  1.
          5    1    4    4  501    0  0.25529509734E+02 -0.13179444916E+02  0.26266621976E+02  0.39151774744E+02  0.41800000000E+01 0. -1.
         -5    1    4    4    0  501 -0.13205500379E+03  0.13139306379E+02  0.48380713333E+02  0.14131288413E+03  0.41800000000E+01 0. -1.
</event>
<event>
11    1  0.1003949E-008  0.1482134E+03  0.7561462E-02  0.1098718E+00
         22   -1    0    0    0    0  0.00000000000E+00  0.00000000000E+00  0.10339149963E+04  0.10339149963E+04  0.00000000000E+00 0. -1.
         22   -1    0    0    0    0 -0.00000000000E+00 -0.00000000000E+00 -0.24201811596E+03  0.24201811596E+03  0.00000000000E+00 0.  1.
         24    2    1    2    0    0  0.11977854608E+02 -0.21677805534E+02 -0.14827081265E+03  0.16946951188E+03  0.78245033825E+02 0.  0.
         25    2    1    2    0    0 -0.90080627160E+02  0.87896478050E+01 -0.50477909219E+01  0.15447947554E+03  0.12508657351E+03 0.  0.
        -24    2    1    2    0    0  0.78102772552E+02  0.12888157729E+02  0.94521548395E+03  0.95198412488E+03  0.81088317495E+02 0.  0.
        -13    1    3    3    0    0 -0.52043894751E+01 -0.46748981412E+02 -0.11582226286E+03  0.12500939767E+03  0.00000000000E+00 0.  1.
         14    1    3    3    0    0  0.17182244083E+02  0.25071175877E+02 -0.32448549796E+02  0.44460114209E+02  0.00000000000E+00 0. -1.
         13    1    5    5    0    0  0.53961031693E+02 -0.31236924060E+01  0.86518852291E+03  0.86687526818E+03  0.00000000000E+00 0. -1.
        -14    1    5    5    0    0  0.24141740859E+02  0.16011850135E+02  0.80026961032E+02  0.85108856699E+02  0.00000000000E+00 0.  1.
          5    1    4    4  501    0 -0.94520803088E+02  0.53414569955E+02 -0.10289136043E+02  0.10913586588E+03  0.41800000000E+01 0.  1.
         -5    1    4    4    0  501  0.44401759280E+01 -0.44624922150E+02  0.52413451215E+01  0.45343609669E+02  0.41800000000E+01 0.  1.
</event>
<event>
11    1  0.1003949E-008  0.1298751E+03  0.7561462E-02  0.1119423E+00
         22   -1    0    0    0    0  0.00000000000E+00  0.00000000000E+00  0.41162165615E+03  0.41162165615E+03  0.00000000000E+00 0.  1.
         22   -1    0    0    0    0 -0.00000000000E+00 -0.00000000000E+00 -0.52218608505E+03  0.52218608505E+03  0.00000000000E+00 0. -1.
        -24    2    1    2    0    0  0.20636171346E+02  0.27019652347E+02 -0.46599121705E+03  0.47479406681E+03  0.84413733079E+02 0.  0.
         25    2    1    2    0    0 -0.51169269610E+02 -0.32474349632E+02  0.58886311239E+02  0.15095672360E+03  0.12508979659E+03 0.  0.
         24    2    1    2    0    0  0.30533098265E+02  0.54546972850E+01  0.29654047691E+03  0.30805695079E+03  0.77464873820E+02 0.  0.
        -13    1    5    5    0    0  0.28029063908E+02  0.33014843869E+02  0.25144404402E+03  0.25514645914E+03  0.00000000000E+00 0.  1.
         14    1    5    5    0    0  0.25040343570E+01 -0.27560146584E+02  0.45096432888E+02  0.52910491653E+02  0.00000000000E+00 0. -1.
         13    1    3    3    0    0  0.36828057594E+02  0.47984841823E+02 -0.38095694709E+03  0.38572923976E+03  0.00000000000E+00 0. -1.
        -14    1    3    3    0    0 -0.16191886248E+02 -0.20965189476E+02 -0.85034269957E+02  0.89064827048E+02  0.00000000000E+00 0.  1.
          5    1    4    4  501    0 -0.77491358380E+02  0.15131434626E+02  0.13975248456E+02  0.80291038770E+02  0.41800000000E+01 0.  1.
         -5    1    4    4    0  501  0.26322088770E+02 -0.47605784258E+02  0.44911062783E+02  0.70665684829E+02  0.41800000000E+01 0.  1.
</event>
<event>
11    1  0.1003949E-008  0.1325644E+03  0.7561462E-02  0.1116158E+00
         22   -1    0    0    0    0  0.00000000000E+00  0.00000000000E+00  0.28807175281E+04  0.28807175281E+04  0.00000000000E+00 0. -1.
         22   -1    0    0    0    0 -0.00000000000E+00 -0.00000000000E+00 -0.71564620255E+02  0.71564620255E+02  0.00000000000E+00 0.  1.
         24    2    1    2    0    0  0.13166673912E+02 -0.43103679897E+02 -0.34704803116E+02  0.97246338096E+02  0.78874193443E+02 0.  0.
         25    2    1    2    0    0  0.99723313135E+01  0.14399574664E+02  0.86520346449E+03  0.87437477721E+03  0.12508965146E+03 0.  0.
        -24    2    1    2    0    0 -0.23139005225E+02  0.28704105233E+02  0.19786542464E+04  0.19806610330E+04  0.81155169665E+02 0.  0.
        -11    1    3    3    0    0  0.46136518108E+02 -0.18805734792E+02 -0.17217800010E+02  0.52713248822E+02  0.00000000000E+00 0.  1.
         12    1    3    3    0    0 -0.32969844196E+02 -0.24297945105E+02 -0.17487003107E+02  0.44533089274E+02  0.00000000000E+00 0. -1.
         11    1    5    5    0    0  0.24658890969E+02 -0.82370269486E+01  0.84346148232E+03  0.84386206318E+03  0.00000000000E+00 0. -1.
        -12    1    5    5    0    0 -0.47797896195E+02  0.36941132182E+02  0.11351927641E+04  0.11367989699E+04  0.00000000000E+00 0.  1.
          5    1    4    4  501    0  0.57718231629E+02 -0.66220289022E+01  0.23929175413E+03  0.24627882882E+03  0.41800000000E+01 0. -1.
         -5    1    4    4    0  501 -0.47745900316E+02  0.21021603566E+02  0.62591171036E+03  0.62809594839E+03  0.41800000000E+01 0. -1.
</event>
<event>
11    1  0.1003949E-008  0.2415466E+03  0.7561462E-02  0.1028501E+00
         22   -1    0    0    0    0  0.00000000000E+00  0.00000000000E+00  0.17312831480E+04  0.17312831480E+04  0.00000000000E+00 0.  1.
         22   -1    0    0    0    0 -0.00000000000E+00 -0.00000000000E+00 -0.10710234083E+03  0.10710234083E+03  0.00000000000E+00 0. -1.
        -24    2    1    2    0    0 -0.14854838825E+02 -0.12623431538E+03  0.67630639354E+01  0.15212076445E+03  0.83301976725E+02 0.  0.
         25    2    1    2    0    0  0.20283148781E+03 -0.59297620276E-02  0.73301553752E+03  0.77077906773E+03  0.12509188831E+03 0.  0.
         24    2    1    2    0    0 -0.18797664898E+03  0.12624024514E+03  0.88440220570E+03  0.91548565664E+03  0.68373284312E+02 0.  0.
        -13    1    5    5    0    0 -0.19080830583E+03  0.11986764791E+03  0.81005729254E+03  0.84081441459E+03  0.00000000000E+00 0.  1.
         14    1    5    5    0    0  0.28316568465E+01  0.63725972306E+01  0.74344913156E+02  0.74671242042E+02  0.00000000000E+00 0. -1.
         11    1    3    3    0    0 -0.42046411970E+02 -0.76638051608E+02 -0.19805836895E+02  0.89630144979E+02  0.00000000000E+00 0. -1.
        -12    1    3    3    0    0  0.27191573145E+02 -0.49596263773E+02  0.26568900831E+02  0.62490619469E+02  0.00000000000E+00 0.  1.
          5    1    4    4  501    0  0.83113628363E+02  0.60808365432E+02  0.28556124588E+03  0.30359221017E+03  0.41800000000E+01 0. -1.
         -5    1    4    4    0  501  0.11971785944E+03 -0.60814295194E+02  0.44745429164E+03  0.46718685756E+03  0.41800000000E+01 0. -1.
</event>
<event>
11    1  0.1003949E-008  0.1836503E+03  0.7561462E-02  0.1066728E+00
         22   -1    0    0    0    0  0.00000000000E+00  0.00000000000E+00  0.72103986343E+03  0.72103986343E+03  0.00000000000E+00 0.  1.
         22   -1    0    0    0    0 -0.00000000000E+00 -0.00000000000E+00 -0.36821222700E+03  0.36821222700E+03  0.00000000000E+00 0. -1.
         24    2    1    2    0    0  0.25350631384E+02 -0.13041554927E+03 -0.30682555074E+03  0.34413478421E+03  0.81461408766E+02 0.  0.
         25    2    1    2    0    0 -0.55898869115E+01  0.15921745047E+03  0.22957109482E+03  0.30615655426E+03  0.12508998669E+03 0.  0.
        -24    2    1    2    0    0 -0.19760744472E+02 -0.28801901199E+02  0.43008209234E+03  0.43896075195E+03  0.80597140579E+02 0.  0.
        -11    1    3    3    0    0  0.98841629842E+01 -0.45819686343E+02 -0.33539638581E+02  0.57637207519E+02  0.00000000000E+00 0.  1.
         12    1    3    3    0    0  0.15466468400E+02 -0.84595862925E+02 -0.27328591216E+03  0.28649757669E+03  0.00000000000E+00 0. -1.
         13    1    5    5    0    0 -0.24066805346E+01  0.28168611805E+02  0.13479052344E+03  0.13772344757E+03  0.00000000000E+00 0. -1.
        -14    1    5    5    0    0 -0.17354063938E+02 -0.56970513004E+02  0.29529156889E+03  0.30123730438E+03  0.00000000000E+00 0.  1.
          5    1    4    4  501    0 -0.49407522647E+02  0.14702297946E+03  0.19306120029E+03  0.24768318320E+03  0.41800000000E+01 0.  1.
         -5    1    4    4    0  501  0.43817635735E+02  0.12194471010E+02  0.36509894531E+02  0.58473371062E+02  0.41800000000E+01 0.  1.
</event>
<event>
11    1  0.1003949E-008  0.1720508E+03  0.7561462E-02  0.1076261E+00
         22   -1    0    0    0    0  0.00000000000E+00  0.00000000000E+00  0.10201623030E+04  0.10201623030E+04  0.00000000000E+00 0. -1.
         22   -1    0    0    0    0 -0.00000000000E+00 -0.00000000000E+00 -0.38082639211E+03  0.38082639211E+03  0.00000000000E+00 0. -1.
        -24    2    1    2    0    0  0.42557444092E+02  0.62854358724E+02 -0.32264439716E+03  0.34463436882E+03  0.94401454949E+02 0.  0.
         25    2    1    2    0    0  0.72437124015E+02 -0.99484821616E+02  0.14902954407E+03  0.23022091948E+03  0.12508996799E+03 0.  0.
         24    2    1    2    0    0 -0.11499456811E+03  0.36630462892E+02  0.81295076396E+03  0.82613340681E+03  0.83916146909E+02 0.  0.
        -11    1    5    5    0    0 -0.75231364648E+02  0.41894235318E+02  0.31462165849E+03  0.32619269331E+03  0.00000000000E+00 0.  1.
         12    1    5    5    0    0 -0.39763203459E+02 -0.52637724264E+01  0.49832910547E+03  0.49994071350E+03  0.00000000000E+00 0. -1.
         13    1    3    3    0    0  0.56776881338E+02  0.39958992933E+02 -0.30408592231E+03  0.31191117890E+03  0.00000000000E+00 0. -1.
        -14    1    3    3    0    0 -0.14219437246E+02  0.22895365791E+02 -0.18558474844E+02  0.32723189924E+02  0.00000000000E+00 0.  1.
          5    1    4    4  501    0  0.10086360447E+03 -0.78809309616E+02  0.14671279610E+03  0.19474724884E+03  0.41800000000E+01 0.  1.
         -5    1    4    4    0  501 -0.28426480456E+02 -0.20675512000E+02  0.23167479687E+01  0.35473670641E+02  0.41800000000E+01 0.  1.
</event>
<event>
11    1  0.1003949E-008  0.1331660E+03  0.7561462E-02  0.1115439E+00
         22   -1    0    0    0    0  0.00000000000E+00  0.00000000000E+00  0.32071059160E+03  0.32071059160E+03  0.00000000000E+00 0.  1.
         22   -1    0    0    0    0 -0.00000000000E+00 -0.00000000000E+00 -0.24953938224E+03  0.24953938224E+03  0.00000000000E+00 0. -1.
         24    2    1    2    0    0 -0.39538025412E+01 -0.10283359585E+02 -0.18116531801E+03  0.19888360068E+03  0.81316874816E+02 0.  0.
         25    2    1    2    0    0 -0.27734328062E+02  0.42114611966E+02  0.41671733133E+02  0.14115792718E+03  0.12508474555E+03 0.  0.
        -24    2    1    2    0    0  0.31688130604E+02 -0.31831252381E+02  0.21066479424E+03  0.23020844599E+03  0.81233655724E+02 0.  0.
        -11    1    3    3    0    0  0.17360750915E+02  0.20976369793E+02 -0.21210551805E+02  0.34515087569E+02  0.00000000000E+00 0.  1.
         12    1    3    3    0    0 -0.21314553456E+02 -0.31259729378E+02 -0.15995476620E+03  0.16436851311E+03  0.00000000000E+00 0. -1.
         11    1    5    5    0    0 -0.16456421493E+02 -0.15501531022E+02  0.12932772958E+02  0.26045496516E+02  0.00000000000E+00 0. -1.
        -12    1    5    5    0    0  0.48144552097E+02 -0.16329721359E+02  0.19773202128E+03  0.20416294947E+03  0.00000000000E+00 0.  1.
          5    1    4    4  501    0 -0.25153538204E+02  0.53176163693E+02 -0.31591156476E+02  0.66902006224E+02  0.41800000000E+01 0.  1.
         -5    1    4    4    0  501 -0.25807898582E+01 -0.11061551727E+02  0.73262889609E+02  0.74255920954E+02  0.41800000000E+01 0.  1.
</event>
<event>
11    1  0.1003949E-008  0.1406854E+03  0.7561462E-02  0.1106795E+00
         22   -1    0    0    0    0  0.00000000000E+00  0.00000000000E+00  0.11191841389E+04  0.11191841389E+04  0.00000000000E+00 0.  1.
         22   -1    0    0    0    0 -0.00000000000E+00 -0.00000000000E+00 -0.12588803689E+04  0.12588803689E+04  0.00000000000E+00 0.  1.
         24    2    1    2    0    0 -0.53464438923E+02  0.29241806488E+02 -0.99164197739E+03  0.99679569460E+03  0.80835116062E+02 0.  0.
         25    2    1    2    0    0  0.11556048030E+03 -0.13854873312E+02 -0.23444881536E+03  0.29010361826E+03  0.12509068781E+03 0.  0.
        -24    2    1    2    0    0 -0.62096041379E+02 -0.15386933176E+02  0.10863945627E+04  0.10911651949E+04  0.79345199625E+02 0.  0.
        -11    1    3    3    0    0 -0.12081610122E+02  0.15229727983E+02 -0.80001304014E+03  0.80024919514E+03  0.00000000000E+00 0.  1.
         12    1    3    3    0    0 -0.41382828801E+02  0.14012078505E+02 -0.19162893724E+03  0.19654649947E+03  0.00000000000E+00 0. -1.
         13    1    5    5    0    0  0.78851885251E+01  0.16206174339E+02  0.88236121223E+02  0.90057922324E+02  0.00000000000E+00 0. -1.
        -14    1    5    5    0    0 -0.69981229904E+02 -0.31593107515E+02  0.99815844146E+03  0.10011072726E+04  0.00000000000E+00 0.  1.
          5    1    4    4  501    0  0.98725521779E+02 -0.28363671952E+02 -0.70624277112E+02  0.12472564875E+03  0.41800000000E+01 0. -1.
         -5    1    4    4    0  501  0.16834958523E+02  0.14508798641E+02 -0.16382453825E+03  0.16537796951E+03  0.41800000000E+01 0. -1.
</event>
<event>
11    1  0.1003949E-008  0.1555263E+03  0.7561462E-02  0.1091362E+00
         22   -1    0    0    0    0  0.00000000000E+00  0.00000000000E+00  0.41193820301E+02  0.41193820301E+02  0.00000000000E+00 0. -1.
         22   -1    0    0    0    0 -0.00000000000E+00 -0.00000000000E+00 -0.18309140211E+04  0.18309140211E+04  0.00000000000E+00 0.  1.
         24    2    1    2    0    0  0.85653348734E+02 -0.14116535216E+02 -0.11092675986E+04  0.11156298127E+04  0.81360316147E+02 0.  0.
         25    2    1    2    0    0 -0.11342932076E+03 -0.41062309065E+01 -0.63420188984E+03  0.65631118523E+03  0.12509701371E+03 0.  0.
        -24    2    1    2    0    0  0.27775972028E+02  0.18222766122E+02 -0.46250712430E+02  0.10016684351E+03  0.82405669167E+02 0.  0.
        -13    1    3    3    0    0  0.90071592685E+02  0.19405618341E+01 -0.10556006365E+04  0.10594382292E+04  0.00000000000E+00 0.  1.
         14    1    3    3    0    0 -0.44182439510E+01 -0.16057097050E+02 -0.53666962027E+02  0.56191583520E+02  0.00000000000E+00 0. -1.
         11    1    5    5    0    0  0.19697941856E+01  0.34720020784E+02  0.99418163530E+01  0.36169042630E+02  0.00000000000E+00 0. -1.
        -12    1    5    5    0    0  0.25806177842E+02 -0.16497254662E+02 -0.56192528783E+02  0.63997800878E+02  0.00000000000E+00 0.  1.
          5    1    4    4  501    0 -0.11897524688E+03  0.34001057653E+02 -0.54791181424E+03  0.56172592060E+03  0.41800000000E+01 0. -1.
         -5    1    4    4    0  501  0.55459261134E+01 -0.38107288560E+02 -0.86290075602E+02  0.94585264631E+02  0.41800000000E+01 0. -1.
</event>
<event>
11    1  0.1003949E-008  0.1383185E+03  0.7561462E-02  0.1109451E+00
         22   -1    0    0    0    0  0.00000000000E+00  0.00000000000E+00  0.30891986282E+04  0.30891986282E+04  0.00000000000E+00 0. -1.
         22   -1    0    0    0    0 -0.00000000000E+00 -0.00000000000E+00 -0.21296769178E+03  0.21296769178E+03  0.00000000000E+00 0. -1.
        -24    2    1    2    0    0  0.46386147848E+02 -0.38692236273E+02 -0.18167165030E+03  0.20740614530E+03  0.79774411473E+02 0.  0.
         25    2    1    2    0    0 -0.30406097195E+01  0.45756542014E+02  0.23302808565E+03  0.26842736916E+03  0.12509299487E+03 0.  0.
         24    2    1    2    0    0 -0.43345538129E+02 -0.70643057410E+01  0.28248745011E+04  0.28263328056E+04  0.79450869837E+02 0.  0.
        -13    1    5    5    0    0 -0.25916624300E+01  0.24353151121E+02  0.18005851493E+04  0.18007516965E+04  0.00000000000E+00 0.  1.
         14    1    5    5    0    0 -0.40753875699E+02 -0.31417456862E+02  0.10242893518E+04  0.10255811090E+04  0.00000000000E+00 0. -1.
         13    1    3    3    0    0  0.42339894827E+02 -0.40428291376E+02 -0.18954817889E+03  0.19838252332E+03  0.00000000000E+00 0. -1.
        -14    1    3    3    0    0  0.40462530218E+01  0.17360551026E+01  0.78765285970E+01  0.90236219765E+01  0.00000000000E+00 0.  1.
          5    1    4    4  501    0  0.58137992710E+02  0.28228436640E+02  0.82041087950E+02  0.10452312349E+03  0.41800000000E+01 0.  1.
         -5    1    4    4    0  501 -0.61178602429E+02  0.17528105374E+02  0.15098699770E+03  0.16390424567E+03  0.41800000000E+01 0.  1.
</event>
<event>
11    1  0.1003949E-008  0.1509118E+03  0.7561462E-02  0.1095951E+00
         22   -1    0    0    0    0  0.00000000000E+00  0.00000000000E+00  0.13628823850E+04  0.13628823850E+04  0.00000000000E+00 0.  1.
         22   -1    0    0    0    0 -0.00000000000E+00 -0.00000000000E+00 -0.16374385165E+04  0.16374385165E+04  0.00000000000E+00 0. -1.
        -24    2    1    2    0    0 -0.53837915372E+02  0.62462193655E+02 -0.14537714487E+04  0.14582645982E+04  0.79272736233E+02 0.  0.
         25    2    1    2    0    0  0.96564865596E+02 -0.77561397233E+02 -0.13661423197E+03  0.22282717078E+03  0.12509179052E+03 0.  0.
         24    2    1    2    0    0 -0.42726950224E+02  0.15099203578E+02  0.13158295493E+04  0.13192291325E+04  0.83093459620E+02 0.  0.
        -11    1    5    5    0    0 -0.41543213422E+02  0.15557215551E+02  0.13168521894E+04  0.13175991629E+04  0.00000000000E+00 0.  1.
         12    1    5    5    0    0 -0.11837368016E+01 -0.45801197349E+00 -0.10226401268E+01  0.16299695127E+01  0.00000000000E+00 0. -1.
         11    1    3    3    0    0 -0.74658123478E+02  0.51972362490E+02 -0.11817024101E+04  0.11851985268E+04  0.00000000000E+00 0. -1.
        -12    1    3    3    0    0  0.20820208106E+02  0.10489831166E+02 -0.27206903857E+03  0.27306607144E+03  0.00000000000E+00 0.  1.
          5    1    4    4  501    0  0.93464148838E+02 -0.51078526751E+02 -0.15646524825E+03  0.18932355724E+03  0.41800000000E+01 0.  1.
         -5    1    4    4    0  501  0.31007167580E+01 -0.26482870482E+02  0.19851016283E+02  0.33503613549E+02  0.41800000000E+01 0.  1.
</event>
<event>
11    1  0.1003949E-008  0.1655464E+03  0.7561462E-02  0.1081974E+00
         22   -1    0    0    0    0  0.00000000000E+00  0.00000000000E+00  0.16734649185E+03  0.16734649185E+03  0.00000000000E+00 0.  1.
         22   -1    0    0    0    0 -0.00000000000E+00 -0.00000000000E+00 -0.54848576478E+03  0.54848576478E+03  0.00000000000E+00 0. -1.
         24    2    1    2    0    0 -0.10158938726E+03 -0.23869535371E+02 -0.30392065712E+03  0.33166235359E+03  0.82109637967E+02 0.  0.
         25    2    1    2    0    0  0.11496679948E+03  0.28641972407E+02 -0.18327090336E+03  0.25154205130E+03  0.12508977572E+03 0.  0.
        -24    2    1    2    0    0 -0.13377412223E+02 -0.47724370354E+01  0.10605228755E+03  0.13262785174E+03  0.78366625862E+02 0.  0.
        -13    1    3    3    0    0 -0.58007608804E+02 -0.44966280172E+02 -0.11335404457E+03  0.13504069184E+03  0.00000000000E+00 0.  1.
         14    1    3    3    0    0 -0.43581778453E+02  0.21096744801E+02 -0.19056661254E+03  0.19662166175E+03  0.00000000000E+00 0. -1.
         11    1    5    5    0    0 -0.10467469673E+02 -0.74760038703E+00 -0.11155001939E+02  0.15315381025E+02  0.00000000000E+00 0. -1.
        -12    1    5    5    0    0 -0.29099425500E+01 -0.40248366483E+01  0.11720728948E+03  0.11731247071E+03  0.00000000000E+00 0.  1.
          5    1    4    4  501    0  0.36316902789E+02 -0.34714775657E+00  0.12422441477E+02  0.38611234013E+02  0.41800000000E+01 0. -1.
         -5    1    4    4    0  501  0.78649896691E+02  0.28989120163E+02 -0.19569334484E+03  0.21293081729E+03  0.41800000000E+01 0. -1.
</event>
<event>
11    1  0.1003949E-008  0.1660532E+03  0.7561462E-02  0.1081518E+00
         22   -1    0    0    0    0  0.00000000000E+00  0.00000000000E+00  0.15482240377E+04  0.15482240377E+04  0.00000000000E+00 0. -1.
         22   -1    0    0    0    0 -0.00000000000E+00 -0.00000000000E+00 -0.10641217858E+04  0.10641217858E+04  0.00000000000E+00 0.  1.
        -24    2    1    2    0    0 -0.23164931407E+02  0.10603679864E+03 -0.10122156187E+04  0.10211233571E+04  0.79574084938E+02 0.  0.
         25    2    1    2    0    0  0.10848322500E+02 -0.13864825907E+03  0.14421675132E+03  0.23619258391E+03  0.12508972575E+03 0.  0.
         24    2    1    2    0    0  0.12316608907E+02  0.32611460423E+02  0.13521011193E+04  0.13550298825E+04  0.81934971058E+02 0.  0.
        -13    1    5    5    0    0  0.12419689481E+02  0.30553110847E+02  0.18435167409E+03  0.18727861867E+03  0.00000000000E+00 0.  1.
         14    1    5    5    0    0 -0.10308057441E+00  0.20583495760E+01  0.11677494452E+04  0.11677512638E+04  0.00000000000E+00 0. -1.
         13    1    3    3    0    0  0.17731895415E+02  0.61327251428E+00 -0.73003561247E+02  0.75128664123E+02  0.00000000000E+00 0. -1.
        -14    1    3    3    0    0 -0.40896826822E+02  0.10542352613E+03 -0.93921205742E+03  0.94599469296E+03  0.00000000000E+00 0.  1.
          5    1    4    4  501    0  0.53492315766E+02 -0.16587684118E+02  0.57983037232E+02  0.80722265312E+02  0.41800000000E+01 0.  1.
         -5    1    4    4    0  501 -0.42643993266E+02 -0.12206057495E+03  0.86233714090E+02  0.15547031860E+03  0.41800000000E+01 0.  1.
</event>
<event>
11    1  0.1003949E-008  0.2434910E+03  0.7561462E-02  0.1027425E+00
         22   -1    0    0    0    0  0.00000000000E+00  0.00000000000E+00  0.82361875644E+03  0.82361875644E+03  0.00000000000E+00 0. -1.
         22   -1    0    0    0    0 -0.00000000000E+00 -0.00000000000E+00 -0.19788872890E+03  0.19788872890E+03  0.00000000000E+00 0. -1.
         24    2    1    2    0    0  0.13798869470E+02  0.30989083946E+02 -0.11165254838E+03  0.14187518342E+03  0.80694138497E+02 0.  0.
         25    2    1    2    0    0 -0.17680279463E+03  0.10477362059E+03  0.29237589698E+03  0.37864143785E+03  0.12509569763E+03 0.  0.
        -24    2    1    2    0    0  0.16300392516E+03 -0.13576270454E+03  0.44500667895E+03  0.50099086407E+03  0.89213844240E+02 0.  0.
        -11    1    3    3    0    0 -0.32838194623E+01  0.26442392693E+02  0.21272972388E+01  0.26730301068E+02  0.00000000000E+00 0.  1.
         12    1    3    3    0    0  0.17082688933E+02  0.45466912529E+01 -0.11377984562E+03  0.11514488235E+03  0.00000000000E+00 0. -1.
         11    1    5    5    0    0  0.15261647800E+03 -0.13097697361E+03  0.44626132434E+03  0.48948536911E+03  0.00000000000E+00 0. -1.
        -12    1    5    5    0    0  0.10387447160E+02 -0.47857309273E+01 -0.12546453905E+01  0.11505494951E+02  0.00000000000E+00 0.  1.
          5    1    4    4  501    0 -0.17869843353E+03  0.11214255999E+03  0.21668701716E+03  0.30245631042E+03  0.41800000000E+01 0.  1.
         -5    1    4    4    0  501  0.18956388969E+01 -0.73689393978E+01  0.75688879812E+02  0.76185127433E+02  0.41800000000E+01 0.  1.
</event>
<event>
11    1  0.1003949E-008  0.1370968E+03  0.7561462E-02  0.1110844E+00
         22   -1    0    0    0    0  0.00000000000E+00  0.00000000000E+00  0.60994423688E+03  0.60994423688E+03  0.00000000000E+00 0. -1.
         22   -1    0    0    0    0 -0.00000000000E+00 -0.00000000000E+00 -0.43999199006E+03  0.43999199006E+03  0.00000000000E+00 0.  1.
         24    2    1    2    0    0 -0.45061566982E+02 -0.31791521189E+02 -0.36351072988E+03  0.37686683813E+03  0.82748518426E+02 0.  0.
         25    2    1    2    0    0  0.80088470651E+02  0.28294734230E+01  0.18536939372E+02  0.14970693849E+03  0.12508549181E+03 0.  0.
        -24    2    1    2    0    0 -0.35026903669E+02  0.28962047766E+02  0.51492603732E+03  0.52336245032E+03  0.81815318258E+02 0.  0.
        -13    1    3    3    0    0 -0.47276150369E+02  0.15163724458E+01 -0.31146252387E+03  0.31503370860E+03  0.00000000000E+00 0.  1.
         14    1    3    3    0    0  0.22145833869E+01 -0.33307893635E+02 -0.52048206015E+02  0.61833129529E+02  0.00000000000E+00 0. -1.
         13    1    5    5    0    0 -0.33258899577E+02  0.39496510896E+02  0.50803176769E+03  0.51064900446E+03  0.00000000000E+00 0. -1.
        -14    1    5    5    0    0 -0.17680040923E+01 -0.10534463130E+02  0.68942696341E+01  0.12713445862E+02  0.00000000000E+00 0.  1.
          5    1    4    4  501    0  0.58247448289E+02  0.61216312593E+02  0.23532196633E+00  0.84603368349E+02  0.41800000000E+01 0.  1.
         -5    1    4    4    0  501  0.21841022362E+02 -0.58386839170E+02  0.18301617405E+02  0.65103570146E+02  0.41800000000E+01 0.  1.
</event>
<event>
11    1  0.1003949E-008  0.1628065E+03  0.7561462E-02  0.1084467E+00
         22   -1    0    0    0    0  0.00000000000E+00  0.00000000000E+00  0.10705055519E+04  0.10705055519E+04  0.00000000000E+00 0. -1.
         22   -1    0    0    0    0 -0.00000000000E+00 -0.00000000000E+00 -0.36324107139E+03  0.36324107139E+03  0.00000000000E+00 0. -1.
         24    2    1    2    0    0  0.63377141166E+02 -0.41973773191E+02 -0.25897616264E+03  0.28185568761E+03  0.81212783263E+02 0.  0.
         25    2    1    2    0    0 -0.16263721649E+03  0.20230810118E+02  0.31948913804E+02  0.20863530588E+03  0.12509119834E+03 0.  0.
        -24    2    1    2    0    0  0.99260075321E+02  0.21742963073E+02  0.93429172934E+03  0.94325562980E+03  0.80652517905E+02 0.  0.
        -13    1    3    3    0    0  0.19770609045E+02  0.18205871058E+02 -0.26317541692E+02  0.37615737713E+02  0.00000000000E+00 0.  1.
         14    1    3    3    0    0  0.43606532121E+02 -0.60179644248E+02 -0.23265862094E+03  0.24423994990E+03  0.00000000000E+00 0. -1.
         11    1    5    5    0    0  0.77925768145E+02  0.31496090973E+02  0.41454966612E+03  0.42298446161E+03  0.00000000000E+00 0. -1.
        -12    1    5    5    0    0  0.21334307175E+02 -0.97531279000E+01  0.51974206322E+03  0.52027116819E+03  0.00000000000E+00 0.  1.
          5    1    4    4  501    0 -0.22682332819E+02  0.32449375433E+02 -0.34950920315E+02  0.52976309979E+02  0.41800000000E+01 0. -1.
         -5    1    4    4    0  501 -0.13995488367E+03 -0.12218565315E+02  0.66899834119E+02  0.15565899590E+03  0.41800000000E+01 0. -1.
</event>
<event>
11    1  0.1003949E-008  0.1629585E+03  0.7561462E-02  0.1084327E+00
         22   -1    0    0    0    0  0.00000000000E+00  0.00000000000E+00  0.23176599333E+04  0.23176599333E+04  0.00000000000E+00 0.  1.
         22   -1    0    0    0    0 -0.00000000000E+00 -0.00000000000E+00 -0.85118983073E+02  0.85118983073E+02  0.00000000000E+00 0. -1.
        -24    2    1    2    0    0 -0.49619724959E+02 -0.88463877297E+02  0.13427280745E+01  0.13004448247E+03  0.81374380553E+02 0.  0.
         25    2    1    2    0    0 -0.24868348304E+02  0.15759816951E+03  0.54359469065E+03  0.58017110924E+03  0.12509080905E+03 0.  0.
         24    2    1    2    0    0  0.74488073263E+02 -0.69134292211E+02  0.16876035315E+04  0.16925633246E+04  0.80230325053E+02 0.  0.
        -11    1    5    5    0    0  0.46550400767E+02 -0.65272105772E+02  0.15514172838E+04  0.15534873595E+04  0.00000000000E+00 0.  1.
         12    1    5    5    0    0  0.27937672497E+02 -0.38621864395E+01  0.13618624764E+03  0.13907596512E+03  0.00000000000E+00 0. -1.
         13    1    3    3    0    0 -0.65605948954E+02 -0.78529460492E+02 -0.17037877274E+02  0.10373671465E+03  0.00000000000E+00 0. -1.
        -14    1    3    3    0    0  0.15986223995E+02 -0.99344168049E+01  0.18380605349E+02  0.26307767823E+02  0.00000000000E+00 0.  1.
          5    1    4    4  501    0  0.67248096671E+00 -0.20860044430E+01 -0.57870995524E+01  0.74677015484E+01  0.41800000000E+01 0.  1.
         -5    1    4    4    0  501 -0.25540829271E+02  0.15968417395E+03  0.54938179021E+03  0.57270340769E+03  0.41800000000E+01 0.  1.
</event>
<event>
11    1  0.1003949E-008  0.1980514E+03  0.7561462E-02  0.1055910E+00
         22   -1    0    0    0    0  0.00000000000E+00  0.00000000000E+00  0.89197482028E+03  0.89197482028E+03  0.00000000000E+00 0. -1.
         22   -1    0    0    0    0 -0.00000000000E+00 -0.00000000000E+00 -0.18116728503E+03  0.18116728503E+03  0.00000000000E+00 0.  1.
         24    2    1    2    0    0 -0.30781877453E+02 -0.14928578526E+03 -0.77927523744E+02  0.19049699250E+03  0.83562165704E+02 0.  0.
         25    2    1    2    0    0  0.58445571405E+02  0.14901286359E+03  0.19025510930E+03  0.27832622857E+03  0.12509102513E+03 0.  0.
        -24    2    1    2    0    0 -0.27663693952E+02  0.27292166612E+00  0.59847994970E+03  0.60431888423E+03  0.79105683693E+02 0.  0.
        -11    1    3    3    0    0 -0.22909562415E+02 -0.15802494083E+03 -0.79930769003E+02  0.17856555605E+03  0.00000000000E+00 0.  1.
         12    1    3    3    0    0 -0.78723150385E+01  0.87391555756E+01  0.20032452583E+01  0.11931436452E+02  0.00000000000E+00 0. -1.
         11    1    5    5    0    0  0.21967801663E+02 -0.19329766036E+02  0.16600113788E+03  0.16856038070E+03  0.00000000000E+00 0. -1.
        -12    1    5    5    0    0 -0.49631495615E+02  0.19602687702E+02  0.43247881183E+03  0.43575850353E+03  0.00000000000E+00 0.  1.
          5    1    4    4  501    0  0.52972087169E+02  0.17071859746E+03  0.15653787795E+03  0.23763935106E+03  0.41800000000E+01 0. -1.
         -5    1    4    4    0  501  0.54734842358E+01 -0.21705733871E+02  0.33717231342E+02  0.40686877515E+02  0.41800000000E+01 0. -1.
</event>
<event>
11    1  0.1003949E-008  0.2423413E+03  0.7561462E-02  0.1028060E+00
         22   -1    0    0    0    0  0.00000000000E+00  0.00000000000E+00  0.20806822341E+04  0.20806822341E+04  0.00000000000E+00 0.  1.
         22   -1    0    0    0    0 -0.00000000000E+00 -0.00000000000E+00 -0.46187850711E+03  0.46187850711E+03  0.00000000000E+00 0.  1.
         24    2    1    2    0    0  0.27486273420E+02 -0.24303275161E+02 -0.42181776253E+03  0.43048191253E+03  0.77706549406E+02 0.  0.
         25    2    1    2    0    0 -0.38081783943E+02 -0.18810898213E+03  0.44796726447E+03  0.50314737785E+03  0.12508957742E+03 0.  0.
        -24    2    1    2    0    0  0.10595510523E+02  0.21241225730E+03  0.15926542251E+04  0.16089314509E+04  0.82956018306E+02 0.  0.
        -11    1    3    3    0    0 -0.66936592537E+01  0.19350768002E+01 -0.31800987062E+03  0.31808619493E+03  0.00000000000E+00 0.  1.
         12    1    3    3    0    0  0.34179932674E+02 -0.26238351961E+02 -0.10380789191E+03  0.11239571760E+03  0.00000000000E+00 0. -1.
         13    1    5    5    0    0  0.14836285938E+02  0.45845585758E+02  0.17478594427E+03  0.18130653444E+03  0.00000000000E+00 0. -1.
        -14    1    5    5    0    0 -0.42407754147E+01  0.16656667154E+03  0.14178682808E+04  0.14276249164E+04  0.00000000000E+00 0.  1.
          5    1    4    4  501    0  0.20684844975E+02 -0.41743276187E+02  0.27986811175E+02  0.54507778510E+02  0.41800000000E+01 0. -1.
         -5    1    4    4    0  501 -0.58766628918E+02 -0.14636570595E+03  0.41998045329E+03  0.44863959934E+03  0.41800000000E+01 0. -1.
</event>
<event>
11    1  0.1003949E-008  0.1494423E+03  0.7561462E-02  0.1097450E+00
         22   -1    0    0    0    0  0.00000000000E+00  0.00000000000E+00  0.14343840082E+04  0.14343840082E+04  0.00000000000E+00 0. -1.
         22   -1    0    0    0    0 -0.00000000000E+00 -0.00000000000E+00 -0.74898008405E+02  0.74898008405E+02  0.00000000000E+00 0. -1.
         24    2    1    2    0    0  0.75841377002E+02 -0.35055556968E+02 -0.13383353306E+02  0.11645046528E+03  0.80004938458E+02 0.  0.
         25    2    1    2    0    0 -0.53612898140E+02  0.17468218446E+02  0.69762792897E+03  0.71100395041E+03  0.12514954545E+03 0.  0.
        -24    2    1    2    0    0 -0.22228478862E+02  0.17587338522E+02  0.67524142409E+03  0.68182760087E+03  0.90191334135E+02 0.  0.
        -11    1    3    3    0    0  0.50340373422E+02  0.76748532353E+01  0.21918457701E+02  0.55438933580E+02  0.00000000000E+00 0.  1.
         12    1    3    3    0    0  0.25501003580E+02 -0.42730410203E+02 -0.35301811007E+02  0.61011531697E+02  0.00000000000E+00 0. -1.
         11    1    5    5    0    0 -0.15046873350E+02  0.20692938403E+02  0.67327365917E+03  0.67375962051E+03  0.00000000000E+00 0. -1.
        -12    1    5    5    0    0 -0.71816055121E+01 -0.31055998815E+01  0.19677649228E+01  0.80679803636E+01  0.00000000000E+00 0.  1.
          5    1    4    4  501    0 -0.36168057020E+02 -0.14129809532E+02  0.55583264772E+02  0.67931962939E+02  0.41800000000E+01 0. -1.
         -5    1    4    4    0  501 -0.17444841120E+02  0.31598027979E+02  0.64204466419E+03  0.64307198747E+03  0.41800000000E+01 0. -1.
</event>
<event>
11    1  0.1003949E-008  0.1824537E+03  0.7561462E-02  0.1067675E+00
         22   -1    0    0    0    0  0.00000000000E+00  0.00000000000E+00  0.29817256403E+04  0.29817256403E+04  0.00000000000E+00 0.  1.
         22   -1    0    0    0    0 -0.00000000000E+00 -0.00000000000E+00 -0.10203728096E+03  0.10203728096E+03  0.00000000000E+00 0. -1.
        -24    2    1    2    0    0  0.46500595566E+02 -0.11945495538E+03 -0.18176008936E+02  0.15383880526E+03  0.83091629842E+02 0.  0.
         25    2    1    2    0    0 -0.91200708914E+02  0.17608137838E+03  0.92910420189E+03  0.95823012171E+03  0.12509247405E+03 0.  0.
         24    2    1    2    0    0  0.44700113348E+02 -0.56626423001E+02  0.19687601664E+04  0.19716939943E+04  0.79724290280E+02 0.  0.
        -11    1    5    5    0    0  0.32859694346E+02 -0.75666489042E+02  0.16999329745E+04  0.17019333990E+04  0.00000000000E+00 0.  1.
         12    1    5    5    0    0  0.11840419002E+02  0.19040066041E+02  0.26882719190E+03  0.26976059524E+03  0.00000000000E+00 0. -1.
         13    1    3    3    0    0  0.75934719135E+01 -0.10691062824E+03 -0.29971529353E+02  0.11129167003E+03  0.00000000000E+00 0. -1.
        -14    1    3    3    0    0  0.38907123653E+02 -0.12544327141E+02  0.11795520417E+02  0.42547135230E+02  0.00000000000E+00 0.  1.
          5    1    4    4  501    0  0.79748712883E+01  0.11420978091E+03  0.53530372860E+03  0.54742581861E+03  0.41800000000E+01 0. -1.
         -5    1    4    4    0  501 -0.99175580202E+02  0.61871597475E+02  0.39380047328E+03  0.41080430310E+03  0.41800000000E+01 0. -1.
</event>
<event>
11    1  0.1003949E-008  0.1691262E+03  0.7561462E-02  0.1078795E+00
         22   -1    0    0    0    0  0.00000000000E+00  0.00000000000E+00  0.21289507162E+04  0.21289507162E+04  0.00000000000E+00 0.  1.
         22   -1    0    0    0    0 -0.00000000000E+00 -0.00000000000E+00 -0.21675381044E+03  0.21675381044E+03  0.00000000000E+00 0.  1.
        -24    2    1    2    0    0  0.11284394132E+03  0.19097106260E+01 -0.18170478409E+03  0.22902698292E+03  0.81849424301E+02 0.  0.
         25    2    1    2    0    0 -0.16293291071E+03  0.12388855973E+02  0.11941783015E+04  0.12117799730E+04  0.12509304553E+03 0.  0.
         24    2    1    2    0    0  0.50088969386E+02 -0.14298566599E+02  0.89972338842E+03  0.90489757078E+03  0.81388476302E+02 0.  0.
        -13    1    5    5    0    0  0.55835039824E+02  0.21338315292E+02  0.61411828061E+03  0.61702037077E+03  0.00000000000E+00 0.  1.
         14    1    5    5    0    0 -0.57460704375E+01 -0.35636881891E+02  0.28560510781E+03  0.28787720001E+03  0.00000000000E+00 0. -1.
         11    1    3    3    0    0  0.12979869588E+02 -0.19530860656E+02 -0.36172889091E+01  0.23727964758E+02  0.00000000000E+00 0. -1.
        -12    1    3    3    0    0  0.99864071733E+02  0.21440571282E+02 -0.17808749518E+03  0.20529901817E+03  0.00000000000E+00 0.  1.
          5    1    4    4  501    0 -0.16705741992E+03 -0.15645723324E+02  0.85003387987E+03  0.86644563565E+03  0.41800000000E+01 0.  1.
         -5    1    4    4    0  501  0.41245092135E+01  0.28034579298E+02  0.34414442158E+03  0.34533433730E+03  0.41800000000E+01 0.  1.
</event>
<event>
11    1  0.1003949E-008  0.1254663E+03  0.7561462E-02  0.1124968E+00
         22   -1    0    0    0    0  0.00000000000E+00  0.00000000000E+00  0.43612077936E+02  0.43612077936E+02  0.00000000000E+00 0. -1.
         22   -1    0    0    0    0 -0.00000000000E+00 -0.00000000000E+00 -0.17546836579E+04  0.17546836579E+04  0.00000000000E+00 0.  1.
        -24    2    1    2    0    0 -0.91755315583E+01 -0.46870517058E+01 -0.14917526375E+04  0.14944016601E+04  0.88341560838E+02 0.  0.
         25    2    1    2    0    0 -0.33321049998E+00 -0.26529668734E+00 -0.16244244734E+03  0.20502661099E+03  0.12509269006E+03 0.  0.
         24    2    1    2    0    0  0.95087420583E+01  0.49523483931E+01 -0.56876495139E+02  0.98867464760E+02  0.80155461191E+02 0.  0.
        -13    1    5    5    0    0  0.38666840249E+01  0.12601995240E+02 -0.76200477325E+02  0.77332233086E+02  0.00000000000E+00 0.  1.
         14    1    5    5    0    0  0.56420580334E+01 -0.76496468464E+01  0.19323982187E+02  0.21535231675E+02  0.00000000000E+00 0. -1.
         13    1    3    3    0    0  0.27939433026E+01  0.38290553244E+02 -0.42947330963E+03  0.43118591845E+03  0.00000000000E+00 0. -1.
        -14    1    3    3    0    0 -0.11969474861E+02 -0.42977604950E+02 -0.10622793279E+04  0.10632157417E+04  0.00000000000E+00 0.  1.
          5    1    4    4  501    0 -0.58698213944E+02 -0.18921722633E+02 -0.99099898553E+02  0.11679800598E+03  0.41800000000E+01 0. -1.
         -5    1    4    4    0  501  0.58365003444E+02  0.18656425946E+02 -0.63342548786E+02  0.88228605015E+02  0.41800000000E+01 0. -1.
</event>
<event>
11    1  0.1003949E-008  0.1416774E+03  0.7561462E-02  0.1105700E+00
         22   -1    0    0    0    0  0.00000000000E+00  0.00000000000E+00  0.89896461780E+03  0.89896461780E+03  0.00000000000E+00 0.  1.
         22   -1    0    0    0    0 -0.00000000000E+00 -0.00000000000E+00 -0.18106269866E+03  0.18106269866E+03  0.00000000000E+00 0.  1.
         24    2    1    2    0    0 -0.60741559276E+02  0.36156884676E+01 -0.12622987696E+03  0.16205020736E+03  0.81385979378E+02 0.  0.
         25    2    1    2    0    0  0.20969276552E+02 -0.60795584045E+02  0.11675771194E+03  0.18279749655E+03  0.12508696114E+03 0.  0.
        -24    2    1    2    0    0  0.39772282723E+02  0.57179895577E+02  0.72737408416E+03  0.73517961256E+03  0.81022401103E+02 0.  0.
        -11    1    3    3    0    0 -0.21243871672E+02 -0.12406668700E+02 -0.11550776251E+03  0.11809856355E+03  0.00000000000E+00 0.  1.
         12    1    3    3    0    0 -0.39497687603E+02  0.16022357168E+02 -0.10722114456E+02  0.43951643811E+02  0.00000000000E+00 0. -1.
         13    1    5    5    0    0  0.50463744691E+01 -0.63625598430E+01  0.39168724554E+03  0.39177142109E+03  0.00000000000E+00 0. -1.
        -14    1    5    5    0    0  0.34725908254E+02  0.63542455420E+02  0.33568683862E+03  0.34340819147E+03  0.00000000000E+00 0.  1.
          5    1    4    4  501    0  0.66286228805E+02 -0.65280245622E+02  0.91496477794E+02  0.13055440416E+03  0.41800000000E+01 0. -1.
         -5    1    4    4    0  501 -0.45316952253E+02  0.44846615775E+01  0.25261234151E+02  0.52243092383E+02  0.41800000000E+01 0. -1.
</event>
<event>
11    1  0.1003949E-008  0.1406172E+03  0.7561462E-02  0.1106871E+00
         22   -1    0    0    0    0  0.00000000000E+00  0.00000000000E+00  0.10915467451E+04  0.10915467451E+04  0.00000000000E+00 0.  1.
         22   -1    0    0    0    0 -0.00000000000E+00 -0.00000000000E+00 -0.50176829747E+03  0.50176829747E+03  0.00000000000E+00 0. -1.
         24    2    1    2    0    0  0.39075610034E+02  0.51449642959E+02 -0.38773435607E+03  0.40131580718E+03  0.80885580598E+02 0.  0.
         25    2    1    2    0    0 -0.48177766815E+02 -0.40586906614E+02 -0.59001507732E+02  0.15197812866E+03  0.12509108471E+03 0.  0.
        -24    2    1    2    0    0  0.91021567803E+01 -0.10862736346E+02  0.10365143115E+04  0.10400211068E+04  0.84149488095E+02 0.  0.
        -13    1    3    3    0    0  0.27867452184E+02  0.36033524497E+02 -0.73279214701E+02  0.86283562086E+02  0.00000000000E+00 0.  1.
         14    1    3    3    0    0  0.11208157850E+02  0.15416118462E+02 -0.31445514137E+03  0.31503224509E+03  0.00000000000E+00 0. -1.
         13    1    5    5    0    0  0.11298474093E+02 -0.85645365893E+00  0.16850716187E+02  0.20306049979E+02  0.00000000000E+00 0. -1.
        -14    1    5    5    0    0 -0.21963173132E+01 -0.10006282687E+02  0.10196635953E+04  0.10197150568E+04  0.00000000000E+00 0.  1.
          5    1    4    4  501    0  0.41209441796E+02 -0.18929682424E+02 -0.33213816112E+02  0.56366487832E+02  0.41800000000E+01 0.  1.
         -5    1    4    4    0  501 -0.89387208611E+02 -0.21657224189E+02 -0.25787691620E+02  0.95611640829E+02  0.41800000000E+01 0.  1.
</event>
<event>
11    1  0.1003949E-008  0.1627712E+03  0.7561462E-02  0.1084499E+00
         22   -1    0    0    0    0  0.00000000000E+00  0.00000000000E+00  0.36827666764E+04  0.36827666764E+04  0.00000000000E+00 0. -1.
         22   -1    0    0    0    0 -0.00000000000E+00 -0.00000000000E+00 -0.12653844324E+04  0.12653844324E+04  0.00000000000E+00 0.  1.
        -24    2    1    2    0    0  0.64574993604E+02  0.79919880727E+02 -0.11546564241E+04  0.11617328934E+04  0.76385473299E+02 0.  0.
         25    2    1    2    0    0 -0.10575737346E+03 -0.90030426902E+02 -0.24679774152E+02  0.18853740886E+03  0.12508862249E+03 0.  0.
         24    2    1    2    0    0  0.41182379853E+02  0.10110546175E+02  0.35967184423E+04  0.35978808065E+04  0.81021807176E+02 0.  0.
        -13    1    5    5    0    0  0.33933179360E+01  0.41914939652E+02  0.16715143186E+04  0.16720432093E+04  0.00000000000E+00 0.  1.
         14    1    5    5    0    0  0.37789061917E+02 -0.31804393477E+02  0.19252041237E+04  0.19258375972E+04  0.00000000000E+00 0. -1.
         13    1    3    3    0    0  0.25355880176E+02  0.55303665700E+00 -0.93137856668E+02  0.96529202077E+02  0.00000000000E+00 0. -1.
        -14    1    3    3    0    0  0.39219113428E+02  0.79366844070E+02 -0.10615185675E+04  0.10652036913E+04  0.00000000000E+00 0.  1.
          5    1    4    4  501    0 -0.25198937054E+02  0.22827646702E+02 -0.35574405886E+02  0.49387231516E+02  0.41800000000E+01 0. -1.
         -5    1    4    4    0  501 -0.80558436402E+02 -0.11285807360E+03  0.10894631734E+02  0.13915017734E+03  0.41800000000E+01 0. -1.
</event>
<event>
11    1  0.1003949E-008  0.1357936E+03  0.7561462E-02  0.1112349E+00
         22   -1    0    0    0    0  0.00000000000E+00  0.00000000000E+00  0.34779651772E+03  0.34779651772E+03  0.00000000000E+00 0. -1.
         22   -1    0    0    0    0 -0.00000000000E+00 -0.00000000000E+00 -0.48976093028E+03  0.48976093028E+03  0.00000000000E+00 0. -1.
        -24    2    1    2    0    0  0.16522820736E+01 -0.27626469025E+02 -0.36114388037E+03  0.37044213444E+03  0.77695050143E+02 0.  0.
         25    2    1    2    0    0  0.50570846197E+02  0.17222413349E+02 -0.76548262964E+02  0.15608103112E+03  0.12509048607E+03 0.  0.
         24    2    1    2    0    0 -0.52223128271E+02  0.10404055676E+02  0.29572773078E+03  0.31103428243E+03  0.80323935401E+02 0.  0.
        -13    1    5    5    0    0 -0.95068092026E+01 -0.32829353943E+02  0.82119481901E+02  0.88948047810E+02  0.00000000000E+00 0.  1.
         14    1    5    5    0    0 -0.42716319068E+02  0.43233409619E+02  0.21360824888E+03  0.22208623462E+03  0.00000000000E+00 0. -1.
         11    1    3    3    0    0  0.26448815559E+02 -0.16799311010E+02 -0.31783667736E+03  0.31937737893E+03  0.00000000000E+00 0. -1.
        -12    1    3    3    0    0 -0.24796533485E+02 -0.10827158016E+02 -0.43307203008E+02  0.51064755516E+02  0.00000000000E+00 0.  1.
          5    1    4    4  501    0  0.36433210219E+02 -0.48781392028E+02 -0.11220404113E+02  0.62051372938E+02  0.41800000000E+01 0.  1.
         -5    1    4    4    0  501  0.14137635978E+02  0.66003805377E+02 -0.65327858851E+02  0.94029658180E+02  0.41800000000E+01 0.  1.
</event>
<event>
11    1  0.1003949E-008  0.1312255E+03  0.7561462E-02  0.1117772E+00
         22   -1    0    0    0    0  0.00000000000E+00  0.00000000000E+00  0.31820537825E+03  0.31820537825E+03  0.00000000000E+00 0.  1.
         22   -1    0    0    0    0 -0.00000000000E+00 -0.00000000000E+00 -0.22250672239E+04  0.22250672239E+04  0.00000000000E+00 0. -1.
         24    2    1    2    0    0  0.29557075431E+02  0.23798824938E+02 -0.17822585934E+04  0.17845020699E+04  0.81005796344E+02 0.  0.
         25    2    1    2    0    0 -0.49973337020E+02 -0.27208191351E+02 -0.42496536841E+03  0.44663303849E+03  0.12509151303E+03 0.  0.
        -24    2    1    2    0    0  0.20416261589E+02  0.34093664133E+01  0.30036211616E+03  0.31213749374E+03  0.82364838750E+02 0.  0.
        -11    1    3    3    0    0 -0.27717368682E+02  0.11084092860E+01 -0.51346530157E+03  0.51421405758E+03  0.00000000000E+00 0.  1.
         12    1    3    3    0    0  0.57274444114E+02  0.22690415652E+02 -0.12687932918E+04  0.12702880123E+04  0.00000000000E+00 0. -1.
         11    1    5    5    0    0 -0.24681835552E+02 -0.11001829658E+02  0.45535963818E+02  0.52950517117E+02  0.00000000000E+00 0. -1.
        -12    1    5    5    0    0  0.45098097141E+02  0.14411196071E+02  0.25482615234E+03  0.25918697663E+03  0.00000000000E+00 0.  1.
          5    1    4    4  501    0 -0.79865723206E+02 -0.51029367699E+02 -0.24770809365E+03  0.26525327929E+03  0.41800000000E+01 0. -1.
         -5    1    4    4    0  501  0.29892386186E+02  0.23821176347E+02 -0.17725727476E+03  0.18137975921E+03  0.41800000000E+01 0. -1.
</event>
<event>
11    1  0.1003949E-008  0.1509371E+03  0.7561462E-02  0.1095925E+00
         22   -1    0    0    0    0  0.00000000000E+00  0.00000000000E+00  0.12037282792E+04  0.12037282792E+04  0.00000000000E+00 0.  1.
         22   -1    0    0    0    0 -0.00000000000E+00 -0.00000000000E+00 -0.11232671370E+03  0.11232671370E+03  0.00000000000E+00 0. -1.
         24    2    1    2    0    0 -0.83282109653E+02 -0.10933774128E+02 -0.43769657951E+02  0.12389211011E+03  0.79862474194E+02 0.  0.
         25    2    1    2    0    0  0.86323358862E+02  0.10947553331E+02  0.19017698561E+03  0.24369279904E+03  0.12508926109E+03 0.  0.
        -24    2    1    2    0    0 -0.30412492088E+01 -0.13779203556E-01  0.94499423786E+03  0.94847008377E+03  0.81068741362E+02 0.  0.
        -13    1    3    3    0    0 -0.29897369908E+02 -0.40105599635E+01  0.23138047152E+02  0.38017187490E+02  0.00000000000E+00 0.  1.
         14    1    3    3    0    0 -0.53384739745E+02 -0.69232141644E+01 -0.66907705104E+02  0.85874922616E+02  0.00000000000E+00 0. -1.
         13    1    5    5    0    0 -0.27182177366E+02  0.31378623063E+02  0.49089268016E+03  0.49264501640E+03  0.00000000000E+00 0. -1.
        -14    1    5    5    0    0  0.24140928157E+02 -0.31392402266E+02  0.45410155770E+03  0.45582506737E+03  0.00000000000E+00 0.  1.
          5    1    4    4  501    0  0.10800258875E+03 -0.20423489434E+02  0.11407261950E+03  0.15846675682E+03  0.41800000000E+01 0. -1.
         -5    1    4    4    0  501 -0.21679229883E+02  0.31371042765E+02  0.76104366113E+02  0.85226042229E+02  0.41800000000E+01 0. -1.
</event>
<event>
11    1  0.1003949E-008  0.2046930E+03  0.7561462E-02  0.1051254E+00
         22   -1    0    0    0    0  0.00000000000E+00  0.00000000000E+00  0.16641974140E+04  0.16641974140E+04  0.00000000000E+00 0.  1.
         22   -1    0    0    0    0 -0.00000000000E+00 -0.00000000000E+00 -0.11850807620E+03  0.11850807620E+03  0.00000000000E+00 0. -1.
         24    2    1    2    0    0 -0.48099738780E+02  0.15419402902E+03 -0.11812008363E+01  0.18050061990E+03  0.80558643797E+02 0.  0.
         25    2    1    2    0    0  0.10104244416E+03 -0.13913597256E+03  0.41646598229E+03  0.46761119357E+03  0.12509164464E+03 0.  0.
        -24    2    1    2    0    0 -0.52942705384E+02 -0.15058056468E+02  0.11304045563E+04  0.11345936767E+04  0.80365883182E+02 0.  0.
        -13    1    3    3    0    0 -0.37964676551E+02  0.33863788071E+02  0.25387649900E+02  0.56856007383E+02  0.00000000000E+00 0.  1.
         14    1    3    3    0    0 -0.10135062229E+02  0.12033024095E+03 -0.26568850736E+02  0.12364461251E+03  0.00000000000E+00 0. -1.
         11    1    5    5    0    0  0.40947479546E+01 -0.28961604201E+02  0.17851077406E+03  0.18089123233E+03  0.00000000000E+00 0. -1.
        -12    1    5    5    0    0 -0.57037453338E+02  0.13903547733E+02  0.95189378227E+03  0.95370244440E+03  0.00000000000E+00 0.  1.
          5    1    4    4  501    0  0.36805514776E+02 -0.79599522975E+02  0.76274845476E+02  0.11630156675E+03  0.41800000000E+01 0. -1.
         -5    1    4    4    0  501  0.64236929388E+02 -0.59536449581E+02  0.34019113682E+03  0.35130962682E+03  0.41800000000E+01 0. -1.
</event>
<event>
11    1  0.1003949E-008  0.1516852E+03  0.7561462E-02  0.1095169E+00
         22   -1    0    0    0    0  0.00000000000E+00  0.00000000000E+00  0.12777797963E+04  0.12777797963E+04  0.00000000000E+00 0.  1.
         22   -1    0    0    0    0 -0.00000000000E+00 -0.00000000000E+00 -0.21227553612E+03  0.21227553612E+03  0.00000000000E+00 0. -1.
         24    2    1    2    0    0 -0.74318379553E+02 -0.11723848644E+02 -0.15712192665E+03  0.19149975984E+03  0.79524763562E+02 0.  0.
         25    2    1    2    0    0  0.15018819428E+03  0.35175026189E+02  0.24933879189E+03  0.31876548407E+03  0.12509126479E+03 0.  0.
        -24    2    1    2    0    0 -0.75869814730E+02 -0.23451177545E+02  0.97328739498E+03  0.97979008853E+03  0.79962978038E+02 0.  0.
        -13    1    3    3    0    0 -0.32405570274E+02  0.19483280595E+01 -0.46662881762E+01  0.32797731817E+02  0.00000000000E+00 0.  1.
         14    1    3    3    0    0 -0.41912809279E+02 -0.13672176703E+02 -0.15245563847E+03  0.15870202802E+03  0.00000000000E+00 0. -1.
         11    1    5    5    0    0  0.72694627227E+01  0.98792469363E+01  0.32320841866E+02  0.34569949772E+02  0.00000000000E+00 0. -1.
        -12    1    5    5    0    0 -0.83139277453E+02 -0.33330424481E+02  0.94096655311E+03  0.94522013876E+03  0.00000000000E+00 0.  1.
          5    1    4    4  501    0  0.15525375855E+03  0.47514699864E+02  0.15877998723E+03  0.22713417399E+03  0.41800000000E+01 0. -1.
         -5    1    4    4    0  501 -0.50655642672E+01 -0.12339673676E+02  0.90558804652E+02  0.91631310085E+02  0.41800000000E+01 0. -1.
</event>
<event>
11    1  0.1003949E-008  0.3641776E+03  0.7561462E-02  0.9761799E-01
         22   -1    0    0    0    0  0.00000000000E+00  0.00000000000E+00  0.95026978105E+03  0.95026978105E+03  0.00000000000E+00 0. -1.
         22   -1    0    0    0    0 -0.00000000000E+00 -0.00000000000E+00 -0.18695348357E+03  0.18695348357E+03  0.00000000000E+00 0. -1.
         24    2    1    2    0    0  0.67945464813E+01  0.62353581129E+02  0.24169330724E+02  0.10609498099E+03  0.82084429107E+02 0.  0.
         25    2    1    2    0    0 -0.28157975756E+03 -0.23290065237E+03  0.39605633782E+03  0.55320710192E+03  0.12509037191E+03 0.  0.
        -24    2    1    2    0    0  0.27478521108E+03  0.17054707124E+03  0.34309062894E+03  0.47792118171E+03  0.78129767207E+02 0.  0.
        -13    1    3    3    0    0 -0.36958521609E+02  0.21291573522E+02  0.42152099895E+01  0.42860604497E+02  0.00000000000E+00 0.  1.
         14    1    3    3    0    0  0.43753068090E+02  0.41062007606E+02  0.19954120735E+02  0.63234376491E+02  0.00000000000E+00 0. -1.
         13    1    5    5    0    0  0.27035026849E+03  0.17806090778E+03  0.33074530950E+03  0.46280386160E+03  0.00000000000E+00 0. -1.
        -14    1    5    5    0    0  0.44349425884E+01 -0.75138365397E+01  0.12345319445E+02  0.15117320117E+02  0.00000000000E+00 0.  1.
          5    1    4    4  501    0 -0.16998761519E+03 -0.64374014264E+02  0.15787443815E+03  0.24079371597E+03  0.41800000000E+01 0. -1.
         -5    1    4    4    0  501 -0.11159214238E+03 -0.16852663811E+03  0.23818189967E+03  0.31241338595E+03  0.41800000000E+01 0. -1.
</event>
<event>
11    1  0.1003949E-008  0.2112590E+03  0.7561462E-02  0.1046836E+00
         22   -1    0    0    0    0  0.00000000000E+00  0.00000000000E+00  0.24061224291E+04  0.24061224291E+04  0.00000000000E+00 0.  1.
         22   -1    0    0    0    0 -0.00000000000E+00 -0.00000000000E+00 -0.66234504006E+02  0.66234504006E+02  0.00000000000E+00 0.  1.
        -24    2    1    2    0    0 -0.52901420523E+02  0.12706376545E+03  0.15618386494E+03  0.22309034012E+03  0.80200619738E+02 0.  0.
         25    2    1    2    0    0  0.12750227589E+03 -0.25498256538E+03  0.85485927391E+03  0.90978249174E+03  0.12508742979E+03 0.  0.
         24    2    1    2    0    0 -0.74600855363E+02  0.12791879993E+03  0.13288447863E+04  0.13394841013E+04  0.80378383483E+02 0.  0.
        -13    1    5    5    0    0 -0.12550561954E+02  0.48902768713E+02  0.20373228386E+03  0.20989483290E+03  0.00000000000E+00 0.  1.
         14    1    5    5    0    0 -0.62050293409E+02  0.79016031217E+02  0.11251125024E+04  0.11295892684E+04  0.00000000000E+00 0. -1.
         11    1    3    3    0    0 -0.52923996140E+02  0.36795658305E+02  0.91983475854E+02  0.11232021042E+03  0.00000000000E+00 0. -1.
        -12    1    3    3    0    0  0.22575616947E-01  0.90268107146E+02  0.64200389083E+02  0.11077012971E+03  0.00000000000E+00 0.  1.
          5    1    4    4  501    0  0.24951242449E+01 -0.97109662297E+01  0.18812820909E+03  0.18844156644E+03  0.41800000000E+01 0. -1.
         -5    1    4    4    0  501  0.12500715164E+03 -0.24527159915E+03  0.66673106482E+03  0.72134092530E+03  0.41800000000E+01 0. -1.
</event>
<event>
11    1  0.1003949E-008  0.1885415E+03  0.7561462E-02  0.1062936E+00
         22   -1    0    0    0    0  0.00000000000E+00  0.00000000000E+00  0.68815686650E+03  0.68815686650E+03  0.00000000000E+00 0. -1.
         22   -1    0    0    0    0 -0.00000000000E+00 -0.00000000000E+00 -0.30842577385E+03  0.30842577385E+03  0.00000000000E+00 0. -1.
         24    2    1    2    0    0  0.27466413101E+02 -0.11621433384E+02 -0.24949870000E+03  0.26370857591E+03  0.80019685978E+02 0.  0.
         25    2    1    2    0    0  0.12142762964E+03  0.60789489150E+00  0.17055632105E+03  0.24389019081E+03  0.12509167737E+03 0.  0.
        -24    2    1    2    0    0 -0.14889404274E+03  0.11013538492E+02  0.45867347160E+03  0.48898387363E+03  0.80206864628E+02 0.  0.
        -11    1    3    3    0    0  0.45813062264E+02 -0.18011782755E+02 -0.86260500132E+02  0.99318351149E+02  0.00000000000E+00 0.  1.
         12    1    3    3    0    0 -0.18346649162E+02  0.63903493711E+01 -0.16323819987E+03  0.16439022476E+03  0.00000000000E+00 0. -1.
         13    1    5    5    0    0 -0.10166419238E+03 -0.18511382237E+02  0.37092663148E+03  0.38505174357E+03  0.00000000000E+00 0. -1.
        -14    1    5    5    0    0 -0.47229850362E+02  0.29524920729E+02  0.87746840114E+02  0.10393213006E+03  0.00000000000E+00 0.  1.
          5    1    4    4  501    0  0.45093126922E+02  0.50814850688E+02  0.12354433893E+03  0.14105394439E+03  0.41800000000E+01 0.  1.
         -5    1    4    4    0  501  0.76334502718E+02 -0.50206955796E+02  0.47011982121E+02  0.10283624642E+03  0.41800000000E+01 0.  1.
</event>
<event>
11    1  0.1003949E-008  0.1276092E+03  0.7561462E-02  0.1122242E+00
         22   -1    0    0    0    0  0.00000000000E+00  0.00000000000E+00  0.18066679474E+04  0.18066679474E+04  0.00000000000E+00 0.  1.
         22   -1    0    0    0    0 -0.00000000000E+00 -0.00000000000E+00 -0.83681741804E+02  0.83681741804E+02  0.00000000000E+00 0. -1.
         24    2    1    2    0    0  0.17663650116E+02  0.28029745695E+02 -0.16143038890E+02  0.10523372130E+03  0.98569098677E+02 0.  0.
         25    2    1    2    0    0  0.21132842677E+02 -0.25251409946E+01  0.16423610033E+03  0.20754199215E+03  0.12508880236E+03 0.  0.
        -24    2    1    2    0    0 -0.38796492793E+02 -0.25504604700E+02  0.15748931442E+04  0.15775739758E+04  0.79344695940E+02 0.  0.
        -13    1    3    3    0    0 -0.39889610198E+02  0.15515627053E+02  0.39977407881E+01  0.42987179671E+02  0.00000000000E+00 0.  1.
         14    1    3    3    0    0  0.57553260314E+02  0.12514118642E+02 -0.20140779678E+02  0.62246541625E+02  0.00000000000E+00 0. -1.
         11    1    5    5    0    0 -0.23850289614E+02 -0.40835902599E+01  0.11843324433E+03  0.12087987999E+03  0.00000000000E+00 0. -1.
        -12    1    5    5    0    0 -0.14946203179E+02 -0.21421014440E+02  0.14564598999E+04  0.14566940958E+04  0.00000000000E+00 0.  1.
          5    1    4    4  501    0  0.69977595889E+02 -0.16554940501E+02  0.12038333077E+03  0.14028737901E+03  0.41800000000E+01 0.  1.
         -5    1    4    4    0  501 -0.48844753212E+02  0.14029799507E+02  0.43852769556E+02  0.67254613137E+02  0.41800000000E+01 0.  1.
</event>
<event>
11    1  0.1003949E-008  0.1935458E+03  0.7561462E-02  0.1059184E+00
         22   -1    0    0    0    0  0.00000000000E+00  0.00000000000E+00  0.16370945490E+04  0.16370945490E+04  0.00000000000E+00 0. -1.
         22   -1    0    0    0    0 -0.00000000000E+00 -0.00000000000E+00 -0.10159058055E+03  0.10159058055E+03  0.00000000000E+00 0.  1.
         24    2    1    2    0    0 -0.14823583850E+02  0.13087602773E+03  0.32868262116E+02  0.15784339411E+03  0.80535340919E+02 0.  0.
         25    2    1    2    0    0 -0.12084752758E+02 -0.23653247445E+03  0.48319577197E+03  0.55246663772E+03  0.12509028349E+03 0.  0.
        -24    2    1    2    0    0  0.26908336609E+02  0.10565644672E+03  0.10194399344E+04  0.10283750977E+04  0.80063840430E+02 0.  0.
        -13    1    3    3    0    0 -0.21317878167E+02  0.13337891919E+03  0.11719984389E+02  0.13557929801E+03  0.00000000000E+00 0.  1.
         14    1    3    3    0    0  0.64942943168E+01 -0.25028914625E+01  0.21148277727E+02  0.22264096101E+02  0.00000000000E+00 0. -1.
         11    1    5    5    0    0 -0.25756434484E+02  0.43434697913E+02  0.50475033052E+03  0.50727001001E+03  0.00000000000E+00 0. -1.
        -12    1    5    5    0    0  0.52664771092E+02  0.62221748806E+02  0.51468960386E+03  0.52110508773E+03  0.00000000000E+00 0.  1.
          5    1    4    4  501    0 -0.29918146097E+02 -0.23196726640E+03  0.37027052217E+03  0.43797447429E+03  0.41800000000E+01 0. -1.
         -5    1    4    4    0  501  0.17833393338E+02 -0.45652080481E+01  0.11292524980E+03  0.11449216342E+03  0.41800000000E+01 0. -1.
</event>
<event>
11    1  0.1003949E-008  0.4661062E+03  0.7561462E-02  0.9472620E-01
         22   -1    0    0    0    0  0.00000000000E+00  0.00000000000E+00  0.38553882600E+03  0.38553882600E+03  0.00000000000E+00 0.  1.
         22   -1    0    0    0    0 -0.00000000000E+00 -0.00000000000E+00 -0.21025009486E+04  0.21025009486E+04  0.00000000000E+00 0. -1.
         24    2    1    2    0    0 -0.46084995032E+03  0.84661542115E+02 -0.16465038049E+04  0.17136435061E+04  0.77775529686E+02 0.  0.
         25    2    1    2    0    0  0.12820153600E+03  0.17361611113E+03 -0.20745879052E+03  0.32444421175E+03  0.12508680545E+03 0.  0.
        -24    2    1    2    0    0  0.33264841431E+03 -0.25827765325E+03  0.13700047289E+03  0.44995205668E+03  0.79532446382E+02 0.  0.
        -11    1    3    3    0    0 -0.41872001632E+03  0.64730455265E+02 -0.13975178141E+04  0.14603330184E+04  0.00000000000E+00 0.  1.
         12    1    3    3    0    0 -0.42129933993E+02  0.19931086850E+02 -0.24898599082E+03  0.25331048772E+03  0.00000000000E+00 0. -1.
         11    1    5    5    0    0  0.12255324630E+03 -0.51593226457E+02  0.29208331306E+02  0.13614068390E+03  0.00000000000E+00 0. -1.
        -12    1    5    5    0    0  0.21009516802E+03 -0.20668442679E+03  0.10779214158E+03  0.31381137278E+03  0.00000000000E+00 0.  1.
          5    1    4    4  501    0  0.81318416855E+02  0.26057591186E+02 -0.34284488084E+02  0.92111788069E+02  0.41800000000E+01 0. -1.
         -5    1    4    4    0  501  0.46883119147E+02  0.14755851995E+03 -0.17317430243E+03  0.23233242368E+03  0.41800000000E+01 0. -1.
</event>
<event>
11    1  0.1003949E-008  0.1918914E+03  0.7561462E-02  0.1060410E+00
         22   -1    0    0    0    0  0.00000000000E+00  0.00000000000E+00  0.17186134206E+04  0.17186134206E+04  0.00000000000E+00 0. -1.
         22   -1    0    0    0    0 -0.00000000000E+00 -0.00000000000E+00 -0.23843251271E+03  0.23843251271E+03  0.00000000000E+00 0. -1.
         24    2    1    2    0    0 -0.12208758094E+03  0.63858511907E+02 -0.13219662537E+03  0.20713854900E+03  0.80294107885E+02 0.  0.
         25    2    1    2    0    0  0.11681621593E+03 -0.19233096871E+03  0.19074177932E+03  0.32039796243E+03  0.12504078582E+03 0.  0.
        -24    2    1    2    0    0  0.52713650094E+01  0.12847245681E+03  0.14216357540E+04  0.14295094219E+04  0.76915608913E+02 0.  0.
        -11    1    3    3    0    0  0.52411934740E+01  0.19549741485E+02 -0.36746455444E+02  0.41951930693E+02  0.00000000000E+00 0.  1.
         12    1    3    3    0    0 -0.12732877441E+03  0.44308770422E+02 -0.95450169928E+02  0.16518661831E+03  0.00000000000E+00 0. -1.
         13    1    5    5    0    0  0.84076257622E+01  0.11581044913E+03  0.13952692124E+04  0.14000924695E+04  0.00000000000E+00 0. -1.
        -14    1    5    5    0    0 -0.31362607528E+01  0.12662007681E+02  0.26366541627E+02  0.29416952381E+02  0.00000000000E+00 0.  1.
          5    1    4    4  501    0  0.34347360440E+02 -0.39057375009E+02 -0.11611321199E+02  0.53455728335E+02  0.41800000000E+01 0. -1.
         -5    1    4    4    0  501  0.82468855487E+02 -0.15327359370E+03  0.20235310052E+03  0.26694223409E+03  0.41800000000E+01 0. -1.
</event>
<event>
11    1  0.1003949E-008  0.1403051E+03  0.7561462E-02  0.1107218E+00
         22   -1    0    0    0    0  0.00000000000E+00  0.00000000000E+00  0.30516500914E+02  0.30516500914E+02  0.00000000000E+00 0. -1.
         22   -1    0    0    0    0 -0.00000000000E+00 -0.00000000000E+00 -0.44227984529E+04  0.44227984529E+04  0.00000000000E+00 0. -1.
         24    2    1    2    0    0 -0.51457270588E+01  0.20362622866E+02 -0.36350905263E+04  0.36360462126E+04  0.80671002067E+02 0.  0.
         25    2    1    2    0    0  0.42275602800E+02  0.33677920724E+02 -0.66323729648E+03  0.67709108861E+03  0.12508877610E+03 0.  0.
        -24    2    1    2    0    0 -0.37129875741E+02 -0.54040543590E+02 -0.93954129186E+02  0.14017765261E+03  0.80767492703E+02 0.  0.
        -11    1    3    3    0    0 -0.19715824786E+02  0.41649656194E+02 -0.13057335910E+04  0.13065464470E+04  0.00000000000E+00 0.  1.
         12    1    3    3    0    0  0.14570097728E+02 -0.21287033328E+02 -0.23293569353E+04  0.23294997655E+04  0.00000000000E+00 0. -1.
         11    1    5    5    0    0 -0.65261399333E+01  0.20292583336E+02 -0.87626133758E+01  0.23046970170E+02  0.00000000000E+00 0. -1.
        -12    1    5    5    0    0 -0.30603735807E+02 -0.74333126926E+02 -0.85191515810E+02  0.11713068244E+03  0.00000000000E+00 0.  1.
          5    1    4    4  501    0 -0.11230648845E+02 -0.37734160287E+02 -0.11501824868E+03  0.12164154001E+03  0.41800000000E+01 0.  1.
         -5    1    4    4    0  501  0.53506251645E+02  0.71412081011E+02 -0.54821904779E+03  0.55544954860E+03  0.41800000000E+01 0.  1.
</event>
<event>
11    1  0.1003949E-008  0.1362829E+03  0.7561462E-02  0.1111782E+00
         22   -1    0    0    0    0  0.00000000000E+00  0.00000000000E+00  0.79814863984E+03  0.79814863984E+03  0.00000000000E+00 0.  1.
         22   -1    0    0    0    0 -0.00000000000E+00 -0.00000000000E+00 -0.22798386614E+03  0.22798386614E+03  0.00000000000E+00 0. -1.
        -24    2    1    2    0    0 -0.19685897287E+02 -0.24093622425E+02 -0.17982775156E+03  0.19992290599E+03  0.81627880763E+02 0.  0.
         25    2    1    2    0    0 -0.10870273302E+02  0.67533021738E+02  0.11501410201E+03  0.18317924367E+03  0.12509004670E+03 0.  0.
         24    2    1    2    0    0  0.30556170589E+02 -0.43439399314E+02  0.63497842324E+03  0.64303035632E+03  0.86427890120E+02 0.  0.
        -11    1    5    5    0    0  0.46407358545E+02 -0.14863863479E+02  0.54722159731E+03  0.54938698013E+03  0.00000000000E+00 0.  1.
         12    1    5    5    0    0 -0.15851187956E+02 -0.28575535834E+02  0.87756825927E+02  0.93643376192E+02  0.00000000000E+00 0. -1.
         11    1    3    3    0    0 -0.41885058681E+02 -0.10628035333E+02 -0.16381420949E+03  0.16941785179E+03  0.00000000000E+00 0. -1.
        -12    1    3    3    0    0  0.22199161395E+02 -0.13465587092E+02 -0.16013542071E+02  0.30505054204E+02  0.00000000000E+00 0.  1.
          5    1    4    4  501    0  0.54649717451E+02  0.50929880721E+02  0.58451008061E+02  0.94944389571E+02  0.41800000000E+01 0. -1.
         -5    1    4    4    0  501 -0.65519990754E+02  0.16603141017E+02  0.56563093953E+02  0.88234854097E+02  0.41800000000E+01 0. -1.
</event>
<event>
11    1  0.1003949E-008  0.1295017E+03  0.7561462E-02  0.1119883E+00
         22   -1    0    0    0    0  0.00000000000E+00  0.00000000000E+00  0.19221859095E+03  0.19221859095E+03  0.00000000000E+00 0. -1.
         22   -1    0    0    0    0 -0.00000000000E+00 -0.00000000000E+00 -0.48741348378E+03  0.48741348378E+03  0.00000000000E+00 0. -1.
         24    2    1    2    0    0  0.24956163776E+02  0.19994287556E+02 -0.34823124543E+03  0.35887264986E+03  0.80634960619E+02 0.  0.
         25    2    1    2    0    0 -0.47828158436E+02 -0.94048691039E+01 -0.84640903185E+02  0.15870705866E+03  0.12509142127E+03 0.  0.
        -24    2    1    2    0    0  0.22871994660E+02 -0.10589418452E+02  0.13767725579E+03  0.16205236621E+03  0.81674223050E+02 0.  0.
        -11    1    3    3    0    0  0.39111452762E+01  0.38053079475E+02 -0.74564976264E+02  0.83804949735E+02  0.00000000000E+00 0.  1.
         12    1    3    3    0    0  0.21045018499E+02 -0.18058791919E+02 -0.27366626917E+03  0.27506770012E+03  0.00000000000E+00 0. -1.
         11    1    5    5    0    0  0.64603290663E+01 -0.41922730269E+02  0.10746922114E+03  0.11553737342E+03  0.00000000000E+00 0. -1.
        -12    1    5    5    0    0  0.16411665594E+02  0.31333311817E+02  0.30208034648E+02  0.46514992790E+02  0.00000000000E+00 0.  1.
          5    1    4    4  501    0 -0.15521189162E+02  0.24249710041E+02  0.25711010322E+02  0.38826333871E+02  0.41800000000E+01 0. -1.
         -5    1    4    4    0  501 -0.32306969274E+02 -0.33654579145E+02 -0.11035191351E+03  0.11988072479E+03  0.41800000000E+01 0. -1.
</event>
<event>
11    1  0.1003949E-008  0.1330308E+03  0.7561462E-02  0.1115600E+00
         22   -1    0    0    0    0  0.00000000000E+00  0.00000000000E+00  0.26257838846E+04  0.26257838846E+04  0.00000000000E+00 0. -1.
         22   -1    0    0    0    0 -0.00000000000E+00 -0.00000000000E+00 -0.44314289836E+03  0.44314289836E+03  0.00000000000E+00 0.  1.
        -24    2    1    2    0    0 -0.39594054013E+01  0.74939501317E+00 -0.31532676874E+03  0.32455782312E+03  0.76750055266E+02 0.  0.
         25    2    1    2    0    0 -0.17969366116E+02  0.38877083301E+02 -0.86681374693E+02  0.15809988575E+03  0.12509031709E+03 0.  0.
         24    2    1    2    0    0  0.21928771517E+02 -0.39626478314E+02  0.25846491297E+04  0.25862690741E+04  0.79532831211E+02 0.  0.
        -13    1    5    5    0    0 -0.14253565985E+02  0.48360974646E+00  0.97904280082E+02  0.98937586791E+02  0.00000000000E+00 0.  1.
         14    1    5    5    0    0  0.36182337503E+02 -0.40110088060E+02  0.24867448496E+04  0.24873314873E+04  0.00000000000E+00 0. -1.
         11    1    3    3    0    0  0.90650441219E+01  0.34740115481E+02 -0.10168709143E+03  0.10783930272E+03  0.00000000000E+00 0. -1.
        -12    1    3    3    0    0 -0.13024449523E+02 -0.33990720468E+02 -0.21363967731E+03  0.21671852040E+03  0.00000000000E+00 0.  1.
          5    1    4    4  501    0 -0.83552595508E+01  0.68612570656E+02 -0.10181146292E+03  0.12312815111E+03  0.41800000000E+01 0. -1.
         -5    1    4    4    0  501 -0.96141065654E+01 -0.29735487355E+02  0.15130088230E+02  0.34971734632E+02  0.41800000000E+01 0. -1.
</event>
<event>
11    1  0.1003949E-008  0.1330830E+03  0.7561462E-02  0.1115538E+00
         22   -1    0    0    0    0  0.00000000000E+00  0.00000000000E+00  0.46271898534E+03  0.46271898534E+03  0.00000000000E+00 0.  1.
         22   -1    0    0    0    0 -0.00000000000E+00 -0.00000000000E+00 -0.96797464298E+03  0.96797464298E+03  0.00000000000E+00 0.  1.
        -24    2    1    2    0    0  0.43726134002E+02 -0.12939231444E+02 -0.84753223825E+03  0.85241626033E+03  0.78887182055E+02 0.  0.
         25    2    1    2    0    0 -0.47140858251E+02 -0.10046812670E+02 -0.74544902554E+02  0.15338602489E+03  0.12508849337E+03 0.  0.
         24    2    1    2    0    0  0.34147242483E+01  0.22986044114E+02  0.41682148316E+03  0.42489134310E+03  0.79072663087E+02 0.  0.
        -11    1    5    5    0    0  0.14615111348E+02  0.84212457222E+01  0.39879500778E+03  0.39915157157E+03  0.00000000000E+00 0.  1.
         12    1    5    5    0    0 -0.11200387100E+02  0.14564798392E+02  0.18026475381E+02  0.25739771522E+02  0.00000000000E+00 0. -1.
         11    1    3    3    0    0 -0.68201738457E+01 -0.19607175487E+02 -0.65214209638E+02  0.68438653118E+02  0.00000000000E+00 0. -1.
        -12    1    3    3    0    0  0.50546307848E+02  0.66679440439E+01 -0.78231802861E+03  0.78397760721E+03  0.00000000000E+00 0.  1.
          5    1    4    4  501    0 -0.40844310654E+02  0.51495828736E+02 -0.61318325901E+02  0.89986041036E+02  0.41800000000E+01 0.  1.
         -5    1    4    4    0  501 -0.62965475971E+01 -0.61542641406E+02 -0.13226576653E+02  0.63399983855E+02  0.41800000000E+01 0.  1.
</event>
<event>
11    1  0.1003949E-008  0.1312879E+03  0.7561462E-02  0.1117697E+00
         22   -1    0    0    0    0  0.00000000000E+00  0.00000000000E+00  0.74476448517E+03  0.74476448517E+03  0.00000000000E+00 0. -1.
         22   -1    0    0    0    0 -0.00000000000E+00 -0.00000000000E+00 -0.10594801460E+03  0.10594801460E+03  0.00000000000E+00 0.  1.
         24    2    1    2    0    0 -0.19245558944E+02 -0.34597114737E+02 -0.66408550153E+02  0.11164389479E+03  0.80541367158E+02 0.  0.
         25    2    1    2    0    0 -0.49488283487E+01  0.55090407514E+02  0.42957040847E+03  0.45081388586E+03  0.12507189910E+03 0.  0.
        -24    2    1    2    0    0  0.24194387293E+02 -0.20493292778E+02  0.27565461225E+03  0.28825471913E+03  0.78102332973E+02 0.  0.
        -13    1    3    3    0    0 -0.31232808686E+02 -0.28436668175E+02 -0.81263923870E+02  0.91585794521E+02  0.00000000000E+00 0.  1.
         14    1    3    3    0    0  0.11987249742E+02 -0.61604465617E+01  0.14855373717E+02  0.20058100271E+02  0.00000000000E+00 0. -1.
         13    1    5    5    0    0  0.96934283738E+00 -0.45065554315E+02  0.20539275645E+03  0.21028083177E+03  0.00000000000E+00 0. -1.
        -14    1    5    5    0    0  0.23225044455E+02  0.24572261537E+02  0.70261855808E+02  0.77973887351E+02  0.00000000000E+00 0.  1.
          5    1    4    4  501    0  0.13193268375E+02  0.19921087236E+02  0.54894229568E+01  0.24870026366E+02  0.41800000000E+01 0. -1.
         -5    1    4    4    0  501 -0.18142096724E+02  0.35169320279E+02  0.42408098551E+03  0.42594385949E+03  0.41800000000E+01 0. -1.
</event>
<event>
11    1  0.1003949E-008  0.1673709E+03  0.7561462E-02  0.1080343E+00
         22   -1    0    0    0    0  0.00000000000E+00  0.00000000000E+00  0.38385655376E+03  0.38385655376E+03  0.00000000000E+00 0.  1.
         22   -1    0    0    0    0 -0.00000000000E+00 -0.00000000000E+00 -0.62170401661E+03  0.62170401661E+03  0.00000000000E+00 0. -1.
         24    2    1    2    0    0  0.88938823058E+02  0.48250735678E+02 -0.52218601770E+03  0.53485827803E+03  0.56186232737E+02 0.  0.
         25    2    1    2    0    0 -0.14129609517E+03  0.47789800945E+02  0.51375967130E+02  0.20133657858E+03  0.12509386992E+03 0.  0.
        -24    2    1    2    0    0  0.52357272109E+02 -0.96040536623E+02  0.23296258773E+03  0.26936571376E+03  0.79506300718E+02 0.  0.
        -13    1    3    3    0    0  0.74978878527E+02  0.52581041087E+02 -0.34097775522E+03  0.35306150691E+03  0.00000000000E+00 0.  1.
         14    1    3    3    0    0  0.13959944531E+02 -0.43303054094E+01 -0.18120826249E+03  0.18179677112E+03  0.00000000000E+00 0. -1.
         13    1    5    5    0    0  0.18298605076E+02  0.12037373236E+02  0.36759282247E+02  0.42789977021E+02  0.00000000000E+00 0. -1.
        -14    1    5    5    0    0  0.34058667033E+02 -0.10807790986E+03  0.19620330548E+03  0.22657573674E+03  0.00000000000E+00 0.  1.
          5    1    4    4  501    0 -0.14136426919E+03  0.74756235511E+02  0.62666045196E+02  0.17180470590E+03  0.41800000000E+01 0.  1.
         -5    1    4    4    0  501  0.68174017392E-01 -0.26966434566E+02 -0.11290078067E+02  0.29531872674E+02  0.41800000000E+01 0.  1.
</event>
<event>
11    1  0.1003949E-008  0.1693060E+03  0.7561462E-02  0.1078637E+00
         22   -1    0    0    0    0  0.00000000000E+00  0.00000000000E+00  0.26312079025E+03  0.26312079025E+03  0.00000000000E+00 0. -1.
         22   -1    0    0    0    0 -0.00000000000E+00 -0.00000000000E+00 -0.18996588189E+04  0.18996588189E+04  0.00000000000E+00 0.  1.
         24    2    1    2    0    0 -0.19464785438E+01  0.74304923918E+02 -0.14342521925E+04  0.14384173698E+04  0.80250654886E+02 0.  0.
         25    2    1    2    0    0  0.97307624908E+02 -0.13354067778E+03 -0.41869909567E+03  0.46718134173E+03  0.12509031483E+03 0.  0.
        -24    2    1    2    0    0 -0.95361146364E+02  0.59235753860E+02  0.21641325955E+03  0.25718089756E+03  0.81882186046E+02 0.  0.
        -11    1    3    3    0    0 -0.28410067189E+02  0.48095956044E+02 -0.11929983767E+04  0.11943054382E+04  0.00000000000E+00 0.  1.
         12    1    3    3    0    0  0.26463588645E+02  0.26208967874E+02 -0.24125381584E+03  0.24411193166E+03  0.00000000000E+00 0. -1.
         13    1    5    5    0    0 -0.25065948746E+02  0.25425255820E+01  0.12920600950E+03  0.13163950438E+03  0.00000000000E+00 0. -1.
        -14    1    5    5    0    0 -0.70295197618E+02  0.56693228278E+02  0.87207250044E+02  0.12554139318E+03  0.00000000000E+00 0.  1.
          5    1    4    4  501    0 -0.30075083452E+02 -0.19751691548E+02 -0.80507729201E+02  0.88281407016E+02  0.41800000000E+01 0.  1.
         -5    1    4    4    0  501  0.12738270836E+03 -0.11378898623E+03 -0.33819136647E+03  0.37889993472E+03  0.41800000000E+01 0.  1.
</event>
<event>
11    1  0.1003949E-008  0.1457240E+03  0.7561462E-02  0.1101330E+00
         22   -1    0    0    0    0  0.00000000000E+00  0.00000000000E+00  0.46205378901E+03  0.46205378901E+03  0.00000000000E+00 0. -1.
         22   -1    0    0    0    0 -0.00000000000E+00 -0.00000000000E+00 -0.31774811430E+03  0.31774811430E+03  0.00000000000E+00 0. -1.
         24    2    1    2    0    0 -0.69028687748E+02  0.31984211098E+02 -0.27023840942E+03  0.29171962134E+03  0.79269098992E+02 0.  0.
         25    2    1    2    0    0  0.18863757178E+02 -0.74276321726E+02  0.18394110798E+03  0.23526618448E+03  0.12507211140E+03 0.  0.
        -24    2    1    2    0    0  0.50164930570E+02  0.42292110629E+02  0.23060297615E+03  0.25281609749E+03  0.80206631022E+02 0.  0.
        -11    1    3    3    0    0 -0.38472475513E+02 -0.24327856070E+02 -0.12268584603E+03  0.13085791061E+03  0.00000000000E+00 0.  1.
         12    1    3    3    0    0 -0.30556212236E+02  0.56312067168E+02 -0.14755256339E+03  0.16086171073E+03  0.00000000000E+00 0. -1.
         11    1    5    5    0    0  0.36093195425E+02  0.44326426481E+01  0.19684652050E+03  0.20017722075E+03  0.00000000000E+00 0. -1.
        -12    1    5    5    0    0  0.14071735145E+02  0.37859467980E+02  0.33756455654E+02  0.52638876736E+02  0.00000000000E+00 0.  1.
          5    1    4    4  501    0 -0.32638570366E+02 -0.86186618893E+02  0.13196452314E+03  0.16101402833E+03  0.41800000000E+01 0. -1.
         -5    1    4    4    0  501  0.51502327544E+02  0.11910297166E+02  0.51976584842E+02  0.74252156150E+02  0.41800000000E+01 0. -1.
</event>
<event>
11    1  0.1003949E-008  0.1463049E+03  0.7561462E-02  0.1100715E+00
         22   -1    0    0    0    0  0.00000000000E+00  0.00000000000E+00  0.12091021584E+04  0.12091021584E+04  0.00000000000E+00 0.  1.
         22   -1    0    0    0    0 -0.00000000000E+00 -0.00000000000E+00 -0.95063690585E+03  0.95063690585E+03  0.00000000000E+00 0. -1.
        -24    2    1    2    0    0 -0.67786029259E+02  0.33598271847E+02 -0.78048081477E+03  0.78898493924E+03  0.87310609275E+02 0.  0.
         25    2    1    2    0    0  0.61445568623E+02 -0.50323197872E+02 -0.13074600118E+03  0.19761055684E+03  0.12508970063E+03 0.  0.
         24    2    1    2    0    0  0.63404606365E+01  0.16724926025E+02  0.11696920685E+04  0.11731435681E+04  0.88127021052E+02 0.  0.
        -13    1    5    5    0    0  0.36598539081E+02  0.25102922250E+02  0.96851642503E+03  0.96953270978E+03  0.00000000000E+00 0.  1.
         14    1    5    5    0    0 -0.30258078444E+02 -0.83779962253E+01  0.20117564342E+03  0.20361085835E+03  0.00000000000E+00 0. -1.
         13    1    3    3    0    0 -0.69597339364E+02  0.37735107271E+02 -0.78046379745E+03  0.78446890767E+03  0.00000000000E+00 0. -1.
        -14    1    3    3    0    0  0.18113101050E+01 -0.41368354244E+01 -0.17017324418E-01  0.45160315781E+01  0.00000000000E+00 0.  1.
          5    1    4    4  501    0  0.50223281354E+02 -0.81625345499E+02 -0.13303835075E+03  0.16401753012E+03  0.41800000000E+01 0. -1.
         -5    1    4    4    0  501  0.11222287269E+02  0.31302147627E+02  0.22923495722E+01  0.33593026719E+02  0.41800000000E+01 0. -1.
</event>
<event>
11    1  0.1003949E-008  0.1639409E+03  0.7561462E-02  0.1083428E+00
         22   -1    0    0    0    0  0.00000000000E+00  0.00000000000E+00  0.35780044423E+03  0.35780044423E+03  0.00000000000E+00 0.  1.
         22   -1    0    0    0    0 -0.00000000000E+00 -0.00000000000E+00 -0.11219613556E+04  0.11219613556E+04  0.00000000000E+00 0. -1.
        -24    2    1    2    0    0  0.10990891456E+03  0.62325271864E+01 -0.94883927259E+03  0.95848030969E+03  0.79181594803E+02 0.  0.
         25    2    1    2    0    0 -0.77425789573E+02  0.22480980786E+02 -0.12771074392E+03  0.19612614021E+03  0.12512106686E+03 0.  0.
         24    2    1    2    0    0 -0.32483124989E+02 -0.28713507972E+02  0.31238910519E+03  0.32515534989E+03  0.79116556884E+02 0.  0.
        -11    1    5    5    0    0 -0.20817978027E+02 -0.21321143303E+02  0.30964444989E+03  0.31107501460E+03  0.00000000000E+00 0.  1.
         12    1    5    5    0    0 -0.11665146963E+02 -0.73923646693E+01  0.27446552926E+01  0.14080335285E+02  0.00000000000E+00 0. -1.
         11    1    3    3    0    0  0.89035292388E+02  0.38235549419E+02 -0.71597158837E+03  0.72249882760E+03  0.00000000000E+00 0. -1.
        -12    1    3    3    0    0  0.20873622174E+02 -0.32003022232E+02 -0.23286768422E+03  0.23598148208E+03  0.00000000000E+00 0.  1.
          5    1    4    4  501    0 -0.76633174677E+02 -0.17204058143E+02 -0.13433641253E+03  0.15566748925E+03  0.41800000000E+01 0.  1.
         -5    1    4    4    0  501 -0.79261489550E+00  0.39685038929E+02  0.66256686062E+01  0.40458650962E+02  0.41800000000E+01 0.  1.
</event>
<event>
11    1  0.1003949E-008  0.1608102E+03  0.7561462E-02  0.1086318E+00
         22   -1    0    0    0    0  0.00000000000E+00  0.00000000000E+00  0.29158837643E+03  0.29158837643E+03  0.00000000000E+00 0.  1.
         22   -1    0    0    0    0 -0.00000000000E+00 -0.00000000000E+00 -0.33171369565E+03  0.33171369565E+03  0.00000000000E+00 0.  1.
        -24    2    1    2    0    0 -0.84239370166E+02 -0.60013543332E+02 -0.21684334689E+03  0.25403848153E+03  0.82562801197E+02 0.  0.
         25    2    1    2    0    0  0.76082165008E+01  0.12669455226E+03  0.45357620741E+02  0.18388228086E+03  0.12508391153E+03 0.  0.
         24    2    1    2    0    0  0.76631153665E+02 -0.66681008932E+02  0.13136040693E+03  0.18538130968E+03  0.82413486798E+02 0.  0.
        -13    1    5    5    0    0  0.54128249327E+02 -0.43040027953E+02  0.24049605897E+02  0.73216766694E+02  0.00000000000E+00 0.  1.
         14    1    5    5    0    0  0.22502904338E+02 -0.23640980980E+02  0.10731080103E+03  0.11216454299E+03  0.00000000000E+00 0. -1.
         11    1    3    3    0    0  0.33466711502E+01  0.13297587331E+02 -0.49985597375E+02  0.51832287057E+02  0.00000000000E+00 0. -1.
        -12    1    3    3    0    0 -0.87586041316E+02 -0.73311130663E+02 -0.16685774951E+03  0.20220619448E+03  0.00000000000E+00 0.  1.
          5    1    4    4  501    0  0.14627843880E+02 -0.61626983381E+01  0.48019567379E+02  0.50747452336E+02  0.41800000000E+01 0. -1.
         -5    1    4    4    0  501 -0.70196273792E+01  0.13285725060E+03 -0.26619466380E+01  0.13313482852E+03  0.41800000000E+01 0. -1.
</event>
<event>
11    1  0.1003949E-008  0.3200913E+03  0.7561462E-02  0.9920293E-01
         22   -1    0    0    0    0  0.00000000000E+00  0.00000000000E+00  0.38506142659E+03  0.38506142659E+03  0.00000000000E+00 0.  1.
         22   -1    0    0    0    0 -0.00000000000E+00 -0.00000000000E+00 -0.18970497761E+04  0.18970497761E+04  0.00000000000E+00 0. -1.
        -24    2    1    2    0    0  0.21925561442E+03 -0.19501392676E+03 -0.15367901385E+04  0.15665709780E+04  0.79481086685E+02 0.  0.
         25    2    1    2    0    0 -0.90939558482E+02  0.34442571778E+03 -0.18187167702E+03  0.41907625569E+03  0.12509405588E+03 0.  0.
         24    2    1    2    0    0 -0.12831605594E+03 -0.14941179102E+03  0.20667346600E+03  0.29646396904E+03  0.79925402000E+02 0.  0.
        -11    1    5    5    0    0 -0.99359547608E+02 -0.14234968716E+03  0.20191591032E+03  0.26628140749E+03  0.00000000000E+00 0.  1.
         12    1    5    5    0    0 -0.28956508332E+02 -0.70621038620E+01  0.47575556765E+01  0.30182561550E+02  0.00000000000E+00 0. -1.
         11    1    3    3    0    0  0.14077412954E+03 -0.93624454808E+02 -0.70697206193E+03  0.72690603962E+03  0.00000000000E+00 0. -1.
        -12    1    3    3    0    0  0.78481484880E+02 -0.10138947195E+03 -0.82981807659E+03  0.83966493837E+03  0.00000000000E+00 0.  1.
          5    1    4    4  501    0 -0.68052751281E+02  0.20893554042E+03 -0.43536577303E+02  0.22404942082E+03  0.41800000000E+01 0. -1.
         -5    1    4    4    0  501 -0.22886807201E+02  0.13549017737E+03 -0.13833509972E+03  0.19502683487E+03  0.41800000000E+01 0. -1.
</event>
<event>
11    1  0.1003949E-008  0.1523180E+03  0.7561462E-02  0.1094534E+00
         22   -1    0    0    0    0  0.00000000000E+00  0.00000000000E+00  0.41225651774E+03  0.41225651774E+03  0.00000000000E+00 0. -1.
         22   -1    0    0    0    0 -0.00000000000E+00 -0.00000000000E+00 -0.74557990476E+03  0.74557990476E+03  0.00000000000E+00 0. -1.
         24    2    1    2    0    0  0.36226525746E+02  0.18971039621E+02 -0.55081096688E+03  0.55802584841E+03  0.79547877034E+02 0.  0.
         25    2    1    2    0    0  0.96651442223E+01  0.56941733521E+02 -0.15510131101E+03  0.20746184149E+03  0.12509285738E+03 0.  0.
        -24    2    1    2    0    0 -0.45891669968E+02 -0.75912773141E+02  0.37258889087E+03  0.39234873261E+03  0.85124919260E+02 0.  0.
        -13    1    3    3    0    0 -0.11552573105E+02 -0.20481173746E+02 -0.23646028083E+03  0.23762660801E+03  0.00000000000E+00 0.  1.
         14    1    3    3    0    0  0.47779098851E+02  0.39452213366E+02 -0.31435068605E+03  0.32039924040E+03  0.00000000000E+00 0. -1.
         11    1    5    5    0    0 -0.69733970884E+02 -0.68848698510E+02  0.29128094373E+03  0.30732321449E+03  0.00000000000E+00 0. -1.
        -12    1    5    5    0    0  0.23842300916E+02 -0.70640746310E+01  0.81307947143E+02  0.85025518122E+02  0.00000000000E+00 0.  1.
          5    1    4    4  501    0  0.35396030841E+02  0.31215970865E+02  0.72965137681E+00  0.47384814313E+02  0.41800000000E+01 0.  1.
         -5    1    4    4    0  501 -0.25730886618E+02  0.25725762656E+02 -0.15583096239E+03  0.16007702718E+03  0.41800000000E+01 0.  1.
</event>
<event>
11    1  0.1003949E-008  0.1574913E+03  0.7561462E-02  0.1089461E+00
         22   -1    0    0    0    0  0.00000000000E+00  0.00000000000E+00  0.41737313179E+03  0.41737313179E+03  0.00000000000E+00 0.  1.
         22   -1    0    0    0    0 -0.00000000000E+00 -0.00000000000E+00 -0.14961581350E+03  0.14961581350E+03  0.00000000000E+00 0.  1.
         24    2    1    2    0    0 -0.86792535896E+02 -0.34383975403E+02 -0.62918366997E+02  0.13402653817E+03  0.72726817458E+02 0.  0.
         25    2    1    2    0    0  0.77291573709E+02  0.96232427791E+02  0.18336536992E+03  0.25397851755E+03  0.12509021130E+03 0.  0.
        -24    2    1    2    0    0  0.95009621876E+01 -0.61848452388E+02  0.14731031537E+03  0.17898388957E+03  0.80121185501E+02 0.  0.
        -13    1    3    3    0    0 -0.96875104075E+02 -0.38409392474E+02 -0.45972782513E+02  0.11390155377E+03  0.00000000000E+00 0.  1.
         14    1    3    3    0    0  0.10082568179E+02  0.40254170708E+01 -0.16945584484E+02  0.20124984402E+02  0.00000000000E+00 0. -1.
         13    1    5    5    0    0  0.14356431089E+02  0.16374971616E+02  0.20495057604E+02  0.29904752051E+02  0.00000000000E+00 0. -1.
        -14    1    5    5    0    0 -0.48554689015E+01 -0.78223424004E+02  0.12681525777E+03  0.14907913752E+03  0.00000000000E+00 0.  1.
          5    1    4    4  501    0  0.19220256617E+02  0.74658792883E+02  0.17506812649E+03  0.19133654886E+03  0.41800000000E+01 0. -1.
         -5    1    4    4    0  501  0.58071317092E+02  0.21573634908E+02  0.82972434375E+01  0.62641968684E+02  0.41800000000E+01 0. -1.
</event>
<event>
11    1  0.1003949E-008  0.1285720E+03  0.7561462E-02  0.1121036E+00
         22   -1    0    0    0    0  0.00000000000E+00  0.00000000000E+00  0.42340175838E+03  0.42340175838E+03  0.00000000000E+00 0. -1.
         22   -1    0    0    0    0 -0.00000000000E+00 -0.00000000000E+00 -0.15040388695E+03  0.15040388695E+03  0.00000000000E+00 0. -1.
         24    2    1    2    0    0  0.40948055026E+02 -0.35087112205E+02 -0.93909616347E+02  0.13401057796E+03  0.78942829368E+02 0.  0.
         25    2    1    2    0    0 -0.53253855354E+02  0.75177607656E+01  0.15214565273E+03  0.20417427985E+03  0.12508535913E+03 0.  0.
        -24    2    1    2    0    0  0.12305800327E+02  0.27569351440E+02  0.21476183504E+03  0.23562078752E+03  0.92103245657E+02 0.  0.
        -13    1    3    3    0    0  0.68860747230E+01 -0.17950177698E+02  0.11164287614E+02  0.22232143901E+02  0.00000000000E+00 0.  1.
         14    1    3    3    0    0  0.34061980303E+02 -0.17136934507E+02 -0.10507390396E+03  0.11177843406E+03  0.00000000000E+00 0. -1.
         11    1    5    5    0    0  0.75523366662E+01  0.33939701144E+02  0.22209869027E+03  0.22480384633E+03  0.00000000000E+00 0. -1.
        -12    1    5    5    0    0  0.47534636611E+01 -0.63703497043E+01 -0.73368552294E+01  0.10816941194E+02  0.00000000000E+00 0.  1.
          5    1    4    4  501    0 -0.53982890991E+02  0.60594241600E+02  0.76024898026E+02  0.11127925303E+03  0.41800000000E+01 0. -1.
         -5    1    4    4    0  501  0.72903563713E+00 -0.53076480834E+02  0.76120754707E+02  0.92895026820E+02  0.41800000000E+01 0. -1.
</event>
<event>
11    1  0.1003949E-008  0.1826405E+03  0.7561462E-02  0.1067527E+00
         22   -1    0    0    0    0  0.00000000000E+00  0.00000000000E+00  0.83382061360E+03  0.83382061360E+03  0.00000000000E+00 0. -1.
         22   -1    0    0    0    0 -0.00000000000E+00 -0.00000000000E+00 -0.15221947085E+03  0.15221947085E+03  0.00000000000E+00 0. -1.
        -24    2    1    2    0    0  0.25044671089E+02 -0.64489043389E+02 -0.91505006312E+02  0.13938382232E+03  0.79174563330E+02 0.  0.
         25    2    1    2    0    0 -0.12242611704E+03  0.11187302642E+03  0.51757342685E+03  0.55770398546E+03  0.12509098708E+03 0.  0.
         24    2    1    2    0    0  0.97381445949E+02 -0.47383983034E+02  0.25553272221E+03  0.28895227666E+03  0.80424238890E+02 0.  0.
        -13    1    5    5    0    0  0.38200814124E+02 -0.21476256692E+01  0.17548386773E+03  0.17960652084E+03  0.00000000000E+00 0.  1.
         14    1    5    5    0    0  0.59180631826E+02 -0.45236357365E+02  0.80048854484E+02  0.10934575582E+03  0.00000000000E+00 0. -1.
         13    1    3    3    0    0  0.42109966651E+02 -0.66451926110E+02 -0.93382113056E+02  0.12210375430E+03  0.00000000000E+00 0. -1.
        -14    1    3    3    0    0 -0.17065295563E+02  0.19628827212E+01  0.18771067447E+01  0.17280068025E+02  0.00000000000E+00 0.  1.
          5    1    4    4  501    0 -0.75572513201E+02 -0.86952213130E+01  0.23159205329E+03  0.24380148312E+03  0.41800000000E+01 0. -1.
         -5    1    4    4    0  501 -0.46853603837E+02  0.12056824774E+03  0.28598137356E+03  0.31390250234E+03  0.41800000000E+01 0. -1.
</event>
<event>
11    1  0.1003949E-008  0.1293164E+03  0.7561462E-02  0.1120112E+00
         22   -1    0    0    0    0  0.00000000000E+00  0.00000000000E+00  0.73560445920E+03  0.73560445920E+03  0.00000000000E+00 0.  1.
         22   -1    0    0    0    0 -0.00000000000E+00 -0.00000000000E+00 -0.11034466499E+03  0.11034466499E+03  0.00000000000E+00 0.  1.
        -24    2    1    2    0    0  0.10905074764E+02 -0.39495226550E+01 -0.45872841323E+02  0.93587128033E+02  0.80744743344E+02 0.  0.
         25    2    1    2    0    0  0.22723868564E+02  0.39776398796E+01  0.70462325718E+02  0.14541267436E+03  0.12509080981E+03 0.  0.
         24    2    1    2    0    0 -0.33628943328E+02 -0.28117224574E-01  0.60067030981E+03  0.60694932180E+03  0.80322795751E+02 0.  0.
        -13    1    5    5    0    0 -0.28077034662E+02  0.19286049664E+02  0.56485500028E+03  0.56588112084E+03  0.00000000000E+00 0.  1.
         14    1    5    5    0    0 -0.55519086659E+01 -0.19314166889E+02  0.35815309538E+02  0.41068200956E+02  0.00000000000E+00 0. -1.
         13    1    3    3    0    0  0.44012335552E+02 -0.58144834669E+01 -0.11571334884E+02  0.45877986984E+02  0.00000000000E+00 0. -1.
        -14    1    3    3    0    0 -0.33107260788E+02  0.18649608118E+01 -0.34301506439E+02  0.47709141050E+02  0.00000000000E+00 0.  1.
          5    1    4    4  501    0  0.15942373950E+02 -0.10393184940E+02  0.10519776133E+03  0.10698700374E+03  0.41800000000E+01 0.  1.
         -5    1    4    4    0  501  0.67814946147E+01  0.14370824820E+02 -0.34735435616E+02  0.38425670620E+02  0.41800000000E+01 0.  1.
</event>
<event>
11    1  0.1003949E-008  0.1268213E+03  0.7561462E-02  0.1123237E+00
         22   -1    0    0    0    0  0.00000000000E+00  0.00000000000E+00  0.34079749072E+03  0.34079749072E+03  0.00000000000E+00 0.  1.
         22   -1    0    0    0    0 -0.00000000000E+00 -0.00000000000E+00 -0.43823023645E+03  0.43823023645E+03  0.00000000000E+00 0. -1.
        -24    2    1    2    0    0 -0.22957813051E+02 -0.99590281716E+01 -0.38521565582E+03  0.39434321302E+03  0.80555724464E+02 0.  0.
         25    2    1    2    0    0  0.36150276529E+02  0.20423187630E+02  0.66515855063E+02  0.14764588071E+03  0.12510394890E+03 0.  0.
         24    2    1    2    0    0 -0.13192463478E+02 -0.10464159458E+02  0.22126705502E+03  0.23703863344E+03  0.83334652929E+02 0.  0.
        -11    1    5    5    0    0  0.12598762815E+02  0.27430715379E+01  0.20161503570E+03  0.20202691872E+03  0.00000000000E+00 0.  1.
         12    1    5    5    0    0 -0.25791226293E+02 -0.13207230996E+02  0.19652019319E+02  0.35011714720E+02  0.00000000000E+00 0. -1.
         11    1    3    3    0    0 -0.41026093513E+02 -0.41654259211E+01 -0.36208546010E+03  0.36442608515E+03  0.00000000000E+00 0. -1.
        -12    1    3    3    0    0  0.18068280462E+02 -0.57936022505E+01 -0.23130195717E+02  0.29917127867E+02  0.00000000000E+00 0.  1.
          5    1    4    4  501    0 -0.25408885891E+02 -0.38454152167E+02  0.27770395130E+02  0.53972220140E+02  0.41800000000E+01 0.  1.
         -5    1    4    4    0  501  0.61559162420E+02  0.58877339797E+02  0.38745459933E+02  0.93673660572E+02  0.41800000000E+01 0.  1.
</event>
<event>
11    1  0.1212994E-008  0.1707981E+03  0.7561462E-02  0.1077339E+00
         22   -1    0    0    0    0  0.00000000000E+00  0.00000000000E+00  0.33880363165E+03  0.33880363165E+03  0.00000000000E+00 0. -1.
         22   -1    0    0    0    0 -0.00000000000E+00 -0.00000000000E+00 -0.11947297720E+04  0.11947297720E+04  0.00000000000E+00 0. -1.
        -24    2    1    2    0    0  0.29549786956E+02  0.30073729445E+02 -0.75310763686E+03  0.75851880748E+03  0.80012808332E+02 0.  0.
         25    2    1    2    0    0 -0.14465907996E+03 -0.34642078035E+02 -0.40104594715E+03  0.44565899744E+03  0.12509103599E+03 0.  0.
         24    2    1    2    0    0  0.11510929301E+03  0.45683485902E+01  0.29822744365E+03  0.32935559874E+03  0.79148487849E+02 0.  0.
        -13    1    5    5    0    0  0.16982072934E+01  0.84075338247E+01 -0.16424195165E+01  0.87331595023E+01  0.00000000000E+00 0.  1.
         14    1    5    5    0    0  0.11341108571E+03 -0.38391852345E+01  0.29986986317E+03  0.32062243923E+03  0.00000000000E+00 0. -1.
         13    1    3    3    0    0  0.56652363347E+02  0.12151625997E+02 -0.48741619871E+03  0.49084794290E+03  0.00000000000E+00 0. -1.
        -14    1    3    3    0    0 -0.27102576390E+02  0.17922103448E+02 -0.26569143815E+03  0.26767086458E+03  0.00000000000E+00 0.  1.
          5    1    4    4  501    0 -0.30980030913E+02  0.45496916582E+02 -0.11525351872E+03  0.12779114880E+03  0.41800000000E+01 0.  1.
         -5    1    4    4    0  501 -0.11367904905E+03 -0.80138994617E+02 -0.28579242842E+03  0.31786784864E+03  0.41800000000E+01 0.  1.
</event>
<event>
11    1  0.1003949E-008  0.1300579E+03  0.7561462E-02  0.1119198E+00
         22   -1    0    0    0    0  0.00000000000E+00  0.00000000000E+00  0.16876113937E+03  0.16876113937E+03  0.00000000000E+00 0.  1.
         22   -1    0    0    0    0 -0.00000000000E+00 -0.00000000000E+00 -0.21742944889E+04  0.21742944889E+04  0.00000000000E+00 0.  1.
        -24    2    1    2    0    0 -0.27091105172E+02  0.29830361264E+02 -0.13806135256E+04  0.13834431531E+04  0.78724027954E+02 0.  0.
         25    2    1    2    0    0  0.21249287312E+02 -0.49018006590E+01 -0.77644597691E+03  0.78676114545E+03  0.12509670284E+03 0.  0.
         24    2    1    2    0    0  0.58418178597E+01 -0.24928560605E+02  0.15152615293E+03  0.17285132971E+03  0.79131834240E+02 0.  0.
        -13    1    5    5    0    0 -0.43280681277E+01  0.10475098516E+02  0.12937091728E+03  0.12986644717E+03  0.00000000000E+00 0.  1.
         14    1    5    5    0    0  0.10169885987E+02 -0.35403659122E+02  0.22155235652E+02  0.42984882540E+02  0.00000000000E+00 0. -1.
         13    1    3    3    0    0 -0.46091809331E+02  0.18079584238E+02 -0.47882243854E+03  0.48137537733E+03  0.00000000000E+00 0. -1.
        -14    1    3    3    0    0  0.19000704159E+02  0.11750777026E+02 -0.90179108701E+03  0.90206777580E+03  0.00000000000E+00 0.  1.
          5    1    4    4  501    0  0.52940852927E+02 -0.41554510021E+02 -0.59857564558E+03  0.60236184066E+03  0.41800000000E+01 0.  1.
         -5    1    4    4    0  501 -0.31691565615E+02  0.36652709362E+02 -0.17787033134E+03  0.18439930479E+03  0.41800000000E+01 0.  1.
</event>
<event>
11    1  0.1003949E-008  0.1381455E+03  0.7561462E-02  0.1109647E+00
         22   -1    0    0    0    0  0.00000000000E+00  0.00000000000E+00  0.37404696792E+03  0.37404696792E+03  0.00000000000E+00 0. -1.
         22   -1    0    0    0    0 -0.00000000000E+00 -0.00000000000E+00 -0.47031539797E+03  0.47031539797E+03  0.00000000000E+00 0. -1.
        -24    2    1    2    0    0 -0.30594224183E+02  0.45867407472E+00 -0.42097575384E+03  0.42957521467E+03  0.79862774785E+02 0.  0.
         25    2    1    2    0    0 -0.35246445920E+02  0.41341455237E+01  0.89566728406E+02  0.15788963770E+03  0.12509011050E+03 0.  0.
         24    2    1    2    0    0  0.65840670104E+02 -0.45928195984E+01  0.23514059539E+03  0.25689751353E+03  0.79681522503E+02 0.  0.
        -11    1    5    5    0    0  0.38793730768E+01  0.48826107440E+01 -0.54460917379E+01  0.82794527817E+01  0.00000000000E+00 0.  1.
         12    1    5    5    0    0  0.61961297027E+02 -0.94754303424E+01  0.24058668713E+03  0.24861806075E+03  0.00000000000E+00 0. -1.
         11    1    3    3    0    0  0.87580755933E+01  0.31751828861E+02 -0.21749617307E+03  0.21997606193E+03  0.00000000000E+00 0. -1.
        -12    1    3    3    0    0 -0.39352299777E+02 -0.31293154787E+02 -0.20347958077E+03  0.20959915273E+03  0.00000000000E+00 0.  1.
          5    1    4    4  501    0 -0.29858286605E+02 -0.50759572055E+02  0.83516089031E+01  0.59626111775E+02  0.41800000000E+01 0. -1.
         -5    1    4    4    0  501 -0.53881593154E+01  0.54893717578E+02  0.81215119503E+02  0.98263525920E+02  0.41800000000E+01 0. -1.
</event>
<event>
11    1  0.1003949E-008  0.1322203E+03  0.7561462E-02  0.1116571E+00
         22   -1    0    0    0    0  0.00000000000E+00  0.00000000000E+00  0.75186912362E+03  0.75186912362E+03  0.00000000000E+00 0. -1.
         22   -1    0    0    0    0 -0.00000000000E+00 -0.00000000000E+00 -0.56964500053E+03  0.56964500053E+03  0.00000000000E+00 0. -1.
         24    2    1    2    0    0  0.29510842341E+02 -0.68769812202E+01 -0.52034256515E+03  0.52725885794E+03  0.79544550322E+02 0.  0.
         25    2    1    2    0    0 -0.60956341780E+02 -0.19887442603E+02  0.75497905406E+02  0.15955556365E+03  0.12508740223E+03 0.  0.
        -24    2    1    2    0    0  0.31445499439E+02  0.26764423823E+02  0.62706878284E+03  0.63469970256E+03  0.89012921541E+02 0.  0.
        -13    1    3    3    0    0  0.46948814620E+02 -0.90519310840E+00 -0.16813041955E+03  0.17456474028E+03  0.00000000000E+00 0.  1.
         14    1    3    3    0    0 -0.17437972278E+02 -0.59717881117E+01 -0.35221214559E+03  0.35269411766E+03  0.00000000000E+00 0. -1.
         11    1    5    5    0    0  0.63583526168E+01  0.57780643231E+02  0.38604809895E+03  0.39040000779E+03  0.00000000000E+00 0. -1.
        -12    1    5    5    0    0  0.25087146822E+02 -0.31016219408E+02  0.24102068389E+03  0.24429969477E+03  0.00000000000E+00 0.  1.
          5    1    4    4  501    0 -0.88655174529E+02  0.17289822006E+02  0.66254437132E+02  0.11209728255E+03  0.41800000000E+01 0.  1.
         -5    1    4    4    0  501  0.27698832749E+02 -0.37177264609E+02  0.92434682750E+01  0.47458281102E+02  0.41800000000E+01 0.  1.
</event>
<event>
11    1  0.1024184E-008  0.1550586E+03  0.7561462E-02  0.1091819E+00
         22   -1    0    0    0    0  0.00000000000E+00  0.00000000000E+00  0.10305086657E+04  0.10305086657E+04  0.00000000000E+00 0. -1.
         22   -1    0    0    0    0 -0.00000000000E+00 -0.00000000000E+00 -0.18074485960E+04  0.18074485960E+04  0.00000000000E+00 0. -1.
        -24    2    1    2    0    0 -0.50743664129E+02 -0.12459528783E+02 -0.16233916588E+04  0.16262165589E+04  0.80309772011E+02 0.  0.
         25    2    1    2    0    0 -0.41438512922E+02  0.22035677541E+02 -0.15377482239E+03  0.20370787324E+03  0.12508988841E+03 0.  0.
         24    2    1    2    0    0  0.92182177051E+02 -0.95761487573E+01  0.10002265508E+04  0.10080328295E+04  0.84188930570E+02 0.  0.
        -11    1    5    5    0    0  0.57672602876E+02 -0.43994947321E+02  0.46916934576E+03  0.47474367770E+03  0.00000000000E+00 0.  1.
         12    1    5    5    0    0  0.34509574175E+02  0.34418798564E+02  0.53105720504E+03  0.53328915180E+03  0.00000000000E+00 0. -1.
         13    1    3    3    0    0 -0.65888058389E+02  0.10675477543E+02 -0.10110074202E+04  0.10132083723E+04  0.00000000000E+00 0. -1.
        -14    1    3    3    0    0  0.15144394260E+02 -0.23135006327E+02 -0.61238423859E+03  0.61300818662E+03  0.00000000000E+00 0.  1.
          5    1    4    4  501    0 -0.23723807639E+02 -0.70687377513E+01  0.16477498317E+02  0.30029426453E+02  0.41800000000E+01 0. -1.
         -5    1    4    4    0  501 -0.17714705283E+02  0.29104415292E+02 -0.17025232071E+03  0.17367844679E+03  0.41800000000E+01 0. -1.
</event>
<event>
11    1  0.1003949E-008  0.1400927E+03  0.7561462E-02  0.1107455E+00
         22   -1    0    0    0    0  0.00000000000E+00  0.00000000000E+00  0.90197277598E+03  0.90197277598E+03  0.00000000000E+00 0.  1.
         22   -1    0    0    0    0 -0.00000000000E+00 -0.00000000000E+00 -0.55460648475E+03  0.55460648475E+03  0.00000000000E+00 0. -1.
        -24    2    1    2    0    0  0.29211026835E+02 -0.35075456906E+02 -0.51143917893E+03  0.51996013261E+03  0.81883661317E+02 0.  0.
         25    2    1    2    0    0 -0.97139619926E+01 -0.28954737769E+02  0.82035951366E+02  0.15267609811E+03  0.12508939092E+03 0.  0.
         24    2    1    2    0    0 -0.19497064842E+02  0.64030194675E+02  0.77676951879E+03  0.78394303002E+03  0.81949909196E+02 0.  0.
        -13    1    5    5    0    0 -0.49279210650E+02  0.28078912523E+02  0.50714392722E+03  0.51030562298E+03  0.00000000000E+00 0.  1.
         14    1    5    5    0    0  0.29782145808E+02  0.35951282152E+02  0.26962559158E+03  0.27363740704E+03  0.00000000000E+00 0. -1.
         11    1    3    3    0    0  0.46171815300E+02 -0.25027656111E+02 -0.47991078109E+03  0.48277590858E+03  0.00000000000E+00 0. -1.
        -12    1    3    3    0    0 -0.16960788465E+02 -0.10047800796E+02 -0.31528397840E+02  0.37184224028E+02  0.00000000000E+00 0.  1.
          5    1    4    4  501    0 -0.66947747259E+01  0.42529975543E+02  0.66516831018E+02  0.79344691297E+02  0.41800000000E+01 0. -1.
         -5    1    4    4    0  501 -0.30191872667E+01 -0.71484713312E+02  0.15519120349E+02  0.73331406815E+02  0.41800000000E+01 0. -1.
</event>
<event>
11    1  0.1003949E-008  0.1387610E+03  0.7561462E-02  0.1108950E+00
         22   -1    0    0    0    0  0.00000000000E+00  0.00000000000E+00  0.11125339575E+03  0.11125339575E+03  0.00000000000E+00 0.  1.
         22   -1    0    0    0    0 -0.00000000000E+00 -0.00000000000E+00 -0.95949633280E+03  0.95949633280E+03  0.00000000000E+00 0. -1.
         24    2    1    2    0    0 -0.42395214263E+02 -0.26083069757E+02 -0.75404634994E+03  0.75990315798E+03  0.79932664922E+02 0.  0.
         25    2    1    2    0    0  0.63713494386E+02  0.74575837696E+02 -0.13087183111E+03  0.20590181956E+03  0.12508860135E+03 0.  0.
        -24    2    1    2    0    0 -0.21318280123E+02 -0.48492767939E+02  0.36675243992E+02  0.10494475101E+03  0.82839058621E+02 0.  0.
        -11    1    3    3    0    0 -0.20552326580E+02  0.15075628296E+02 -0.74082977299E+02  0.78345135279E+02  0.00000000000E+00 0.  1.
         12    1    3    3    0    0 -0.21842887684E+02 -0.41158698053E+02 -0.67996337264E+03  0.68155802270E+03  0.00000000000E+00 0. -1.
         13    1    5    5    0    0 -0.30695835742E+02 -0.62608306624E+02  0.61094405436E+01  0.69995425951E+02  0.00000000000E+00 0. -1.
        -14    1    5    5    0    0  0.93775556193E+01  0.14115538685E+02  0.30565803449E+02  0.34949325061E+02  0.00000000000E+00 0.  1.
          5    1    4    4  501    0  0.65965881750E+02 -0.14845827697E+02 -0.71284867299E+02  0.98340738562E+02  0.41800000000E+01 0.  1.
         -5    1    4    4    0  501 -0.22523873634E+01  0.89421665393E+02 -0.59586963808E+02  0.10756108100E+03  0.41800000000E+01 0.  1.
</event>
<event>
11    1  0.1003949E-008  0.1692359E+03  0.7561462E-02  0.1078698E+00
         22   -1    0    0    0    0  0.00000000000E+00  0.00000000000E+00  0.21426397256E+03  0.21426397256E+03  0.00000000000E+00 0.  1.
         22   -1    0    0    0    0 -0.00000000000E+00 -0.00000000000E+00 -0.21692549135E+04  0.21692549135E+04  0.00000000000E+00 0.  1.
         24    2    1    2    0    0 -0.63032133696E+02 -0.90944852770E+02 -0.18223041291E+04  0.18274296310E+04  0.80390928967E+02 0.  0.
         25    2    1    2    0    0  0.10859121223E+03  0.11027850482E+03 -0.30230000074E+03  0.36192138949E+03  0.12509357187E+03 0.  0.
        -24    2    1    2    0    0 -0.45559078536E+02 -0.19333652050E+02  0.16961318887E+03  0.19416786553E+03  0.80517739845E+02 0.  0.
        -13    1    3    3    0    0  0.18137067301E+02 -0.30699678865E+02 -0.49268091949E+03  0.49396954554E+03  0.00000000000E+00 0.  1.
         14    1    3    3    0    0 -0.81169200997E+02 -0.60245173906E+02 -0.13296232096E+04  0.13334600855E+04  0.00000000000E+00 0. -1.
         11    1    5    5    0    0 -0.35745763214E+02 -0.60569545634E+01  0.15930377728E+02  0.39600798235E+02  0.00000000000E+00 0. -1.
        -12    1    5    5    0    0 -0.98133153218E+01 -0.13276697486E+02  0.15368281114E+03  0.15456706730E+03  0.00000000000E+00 0.  1.
          5    1    4    4  501    0  0.79520553728E+02  0.10069857165E+03 -0.11583010452E+03  0.17290982133E+03  0.41800000000E+01 0. -1.
         -5    1    4    4    0  501  0.29070658504E+02  0.95799331728E+01 -0.18646989621E+03  0.18901156816E+03  0.41800000000E+01 0. -1.
</event>
<event>
11    1  0.1003949E-008  0.1498863E+03  0.7561462E-02  0.1096995E+00
         22   -1    0    0    0    0  0.00000000000E+00  0.00000000000E+00  0.78141507025E+03  0.78141507025E+03  0.00000000000E+00 0. -1.
         22   -1    0    0    0    0 -0.00000000000E+00 -0.00000000000E+00 -0.37395631251E+03  0.37395631251E+03  0.00000000000E+00 0. -1.
        -24    2    1    2    0    0  0.64064590190E+02 -0.51230374952E+02 -0.33501662449E+03  0.35311581686E+03  0.75669137674E+02 0.  0.
         25    2    1    2    0    0 -0.94164488753E+02  0.38178100781E+02  0.22180422723E+03  0.27416906985E+03  0.12508815021E+03 0.  0.
         24    2    1    2    0    0  0.30099898564E+02  0.13052274171E+02  0.52067115500E+03  0.52808649606E+03  0.81856764615E+02 0.  0.
        -11    1    5    5    0    0 -0.25655122592E+02  0.21753641090E+01  0.87594147804E+02  0.91299793284E+02  0.00000000000E+00 0.  1.
         12    1    5    5    0    0  0.55755021156E+02  0.10876910062E+02  0.43307700720E+03  0.43678670277E+03  0.00000000000E+00 0. -1.
         11    1    3    3    0    0  0.51102109192E+02 -0.33429787156E+02 -0.32156556200E+03  0.32731236900E+03  0.00000000000E+00 0. -1.
        -12    1    3    3    0    0  0.12962480998E+02 -0.17800587796E+02 -0.13451062492E+02  0.25803447864E+02  0.00000000000E+00 0.  1.
          5    1    4    4  501    0 -0.84077297017E+02 -0.28563235258E+02  0.92766656840E+02  0.12848336586E+03  0.41800000000E+01 0. -1.
         -5    1    4    4    0  501 -0.10087191737E+02  0.66741336039E+02  0.12903757039E+03  0.14568570398E+03  0.41800000000E+01 0. -1.
</event>
<event>
11    1  0.1003949E-008  0.1514898E+03  0.7561462E-02  0.1095366E+00
         22   -1    0    0    0    0  0.00000000000E+00  0.00000000000E+00  0.13464366328E+03  0.13464366328E+03  0.00000000000E+00 0.  1.
         22   -1    0    0    0    0 -0.00000000000E+00 -0.00000000000E+00 -0.11793608516E+04  0.11793608516E+04  0.00000000000E+00 0.  1.
         24    2    1    2    0    0 -0.35863810581E+02  0.25035034508E+02 -0.81376326699E+03  0.81780259506E+03  0.68391987333E+02 0.  0.
         25    2    1    2    0    0 -0.21369735443E+02 -0.88963036352E+02 -0.31636550016E+03  0.35228578217E+03  0.12508818966E+03 0.  0.
        -24    2    1    2    0    0  0.57233546025E+02  0.63928001843E+02  0.85411578791E+02  0.14391613768E+03  0.77809052708E+02 0.  0.
        -13    1    3    3    0    0 -0.29702841042E+02  0.43909263837E+02 -0.72059383603E+03  0.72254118134E+03  0.00000000000E+00 0.  1.
         14    1    3    3    0    0 -0.61609695390E+01 -0.18874229328E+02 -0.93169430960E+02  0.95261413720E+02  0.00000000000E+00 0. -1.
         13    1    5    5    0    0  0.27196751819E+02 -0.51965195561E+01 -0.28714854155E+01  0.27837251184E+02  0.00000000000E+00 0. -1.
        -14    1    5    5    0    0  0.30036794206E+02  0.69124521400E+02  0.88283064207E+02  0.11607888650E+03  0.00000000000E+00 0.  1.
          5    1    4    4  501    0 -0.35666401568E+02  0.21651001269E+02 -0.10906578797E+03  0.11684894763E+03  0.41800000000E+01 0. -1.
         -5    1    4    4    0  501  0.14296666125E+02 -0.11061403762E+03 -0.20729971220E+03  0.23543683454E+03  0.41800000000E+01 0. -1.
</event>
<event>
11    1  0.1003949E-008  0.1315263E+03  0.7561462E-02  0.1117408E+00
         22   -1    0    0    0    0  0.00000000000E+00  0.00000000000E+00  0.26441903116E+04  0.26441903116E+04  0.00000000000E+00 0. -1.
         22   -1    0    0    0    0 -0.00000000000E+00 -0.00000000000E+00 -0.27162358706E+03  0.27162358706E+03  0.00000000000E+00 0. -1.
        -24    2    1    2    0    0 -0.19590841616E+02  0.34271887198E+02 -0.22704278634E+03  0.24375177904E+03  0.79423797623E+02 0.  0.
         25    2    1    2    0    0  0.24940470865E+02 -0.54111905443E+02  0.98379493468E+02  0.16992938307E+03  0.12508934846E+03 0.  0.
         24    2    1    2    0    0 -0.53496292497E+01  0.19840018245E+02  0.25012300174E+04  0.25021327365E+04  0.63987392946E+02 0.  0.
        -13    1    5    5    0    0 -0.23449049924E+02  0.90113225371E+01  0.39545215574E+03  0.39624925155E+03  0.00000000000E+00 0.  1.
         14    1    5    5    0    0  0.18099420674E+02  0.10828695708E+02  0.21057778617E+04  0.21058834850E+04  0.00000000000E+00 0. -1.
         11    1    3    3    0    0  0.18846434745E+02  0.29777454460E+02 -0.17709009040E+03  0.18056241308E+03  0.00000000000E+00 0. -1.
        -12    1    3    3    0    0 -0.38437276361E+02  0.44944327380E+01 -0.49952695939E+02  0.63189365967E+02  0.00000000000E+00 0.  1.
          5    1    4    4  501    0  0.56280930752E+02 -0.30109784039E+02  0.11113954277E+03  0.12823265040E+03  0.41800000000E+01 0. -1.
         -5    1    4    4    0  501 -0.31340459887E+02 -0.24002121404E+02 -0.12760049300E+02  0.41696732677E+02  0.41800000000E+01 0. -1.
</event>
<event>
11    1  0.1003949E-008  0.1581347E+03  0.7561462E-02  0.1088845E+00
         22   -1    0    0    0    0  0.00000000000E+00  0.00000000000E+00  0.79594035424E+03  0.79594035424E+03  0.00000000000E+00 0. -1.
         22   -1    0    0    0    0 -0.00000000000E+00 -0.00000000000E+00 -0.93201113111E+03  0.93201113111E+03  0.00000000000E+00 0.  1.
         24    2    1    2    0    0 -0.39480687251E+02  0.89389495893E+02 -0.90720261233E+03  0.91597110425E+03  0.80232645213E+02 0.  0.
         25    2    1    2    0    0  0.29504589756E+01 -0.36720633722E+02  0.26329163900E+03  0.29381386227E+03  0.12508792248E+03 0.  0.
        -24    2    1    2    0    0  0.36530228276E+02 -0.52668862172E+02  0.50784019645E+03  0.51816651883E+03  0.80538248532E+02 0.  0.
        -11    1    3    3    0    0 -0.20486292109E+02  0.76806816451E+02 -0.85883343644E+03  0.86250440391E+03  0.00000000000E+00 0.  1.
         12    1    3    3    0    0 -0.18994395142E+02  0.12582679443E+02 -0.48369175892E+02  0.53466700340E+02  0.00000000000E+00 0. -1.
         11    1    5    5    0    0  0.49302542529E+02 -0.10819628530E+02  0.37312706871E+03  0.37652571554E+03  0.00000000000E+00 0. -1.
        -12    1    5    5    0    0 -0.12772314253E+02 -0.41849233642E+02  0.13471312775E+03  0.14164080329E+03  0.00000000000E+00 0.  1.
          5    1    4    4  501    0 -0.24746169435E+02 -0.45437078935E+02  0.25901931046E+03  0.26416921970E+03  0.41800000000E+01 0.  1.
         -5    1    4    4    0  501  0.27696628410E+02  0.87164452130E+01  0.42723285371E+01  0.29644642578E+02  0.41800000000E+01 0.  1.
</event>
<event>
11    1  0.1003949E-008  0.3077595E+03  0.7561462E-02  0.9969597E-01
         22   -1    0    0    0    0  0.00000000000E+00  0.00000000000E+00  0.71220264505E+02  0.71220264505E+02  0.00000000000E+00 0. -1.
         22   -1    0    0    0    0 -0.00000000000E+00 -0.00000000000E+00 -0.26570213279E+04  0.26570213279E+04  0.00000000000E+00 0. -1.
         24    2    1    2    0    0 -0.43212261820E+02 -0.12897517401E+01 -0.10096616650E+04  0.10136689430E+04  0.78987880138E+02 0.  0.
         25    2    1    2    0    0  0.10798109264E+02 -0.27952834374E+03 -0.11646035641E+04  0.12042431744E+04  0.12508983750E+03 0.  0.
        -24    2    1    2    0    0  0.32414152557E+02  0.28081809548E+03 -0.41153583431E+03  0.51032947502E+03  0.10566432756E+03 0.  0.
        -13    1    3    3    0    0 -0.11125586418E+01 -0.24095298718E+02 -0.10474344449E+03  0.10748493091E+03  0.00000000000E+00 0.  1.
         14    1    3    3    0    0 -0.42099703179E+02  0.22805546978E+02 -0.90491822054E+03  0.90618401214E+03  0.00000000000E+00 0. -1.
         13    1    5    5    0    0  0.22824125688E+02  0.28848848040E+03 -0.39743147995E+03  0.49162823891E+03  0.00000000000E+00 0. -1.
        -14    1    5    5    0    0  0.95900268681E+01 -0.76703849209E+01 -0.14104354360E+02  0.18701236111E+02  0.00000000000E+00 0.  1.
          5    1    4    4  501    0  0.33686604928E+02 -0.21675640453E+03 -0.66701347983E+03  0.70216990888E+03  0.41800000000E+01 0. -1.
         -5    1    4    4    0  501 -0.22888495665E+02 -0.62771939211E+02 -0.49759008423E+03  0.50207326548E+03  0.41800000000E+01 0. -1.
</event>
<event>
11    1  0.1003949E-008  0.2061129E+03  0.7561462E-02  0.1050283E+00
         22   -1    0    0    0    0  0.00000000000E+00  0.00000000000E+00  0.76514850887E+03  0.76514850887E+03  0.00000000000E+00 0. -1.
         22   -1    0    0    0    0 -0.00000000000E+00 -0.00000000000E+00 -0.22769968448E+03  0.22769968448E+03  0.00000000000E+00 0. -1.
        -24    2    1    2    0    0 -0.13156911248E+03 -0.83847586063E+02 -0.10594669919E+03  0.20551230023E+03  0.81668558383E+02 0.  0.
         25    2    1    2    0    0  0.15641189650E+03  0.11682230696E+03  0.12994190605E+03  0.26578965660E+03  0.12508840810E+03 0.  0.
         24    2    1    2    0    0 -0.24842784022E+02 -0.32974720895E+02  0.51345361754E+03  0.52154623651E+03  0.81678414044E+02 0.  0.
        -11    1    5    5    0    0  0.91986750648E+01  0.20907876516E+02  0.22384159572E+03  0.22500403307E+03  0.00000000000E+00 0.  1.
         12    1    5    5    0    0 -0.34041459087E+02 -0.53882597411E+02  0.28961202182E+03  0.29654220344E+03  0.00000000000E+00 0. -1.
         13    1    3    3    0    0 -0.11606831688E+03 -0.69441897439E+02 -0.47501621234E+02  0.14335423023E+03  0.00000000000E+00 0. -1.
        -14    1    3    3    0    0 -0.15500795596E+02 -0.14405688624E+02 -0.58445077958E+02  0.62158070002E+02  0.00000000000E+00 0.  1.
          5    1    4    4  501    0 -0.93313024083E+01  0.82588403918E+01 -0.15238610462E+02  0.20123848987E+02  0.41800000000E+01 0. -1.
         -5    1    4    4    0  501  0.16574319891E+03  0.10856346657E+03  0.14518051651E+03  0.24566580761E+03  0.41800000000E+01 0. -1.
</event>
<event>
11    1  0.1003949E-008  0.2420586E+03  0.7561462E-02  0.1028217E+00
         22   -1    0    0    0    0  0.00000000000E+00  0.00000000000E+00  0.36825961907E+03  0.36825961907E+03  0.00000000000E+00 0. -1.
         22   -1    0    0    0    0 -0.00000000000E+00 -0.00000000000E+00 -0.10260321033E+04  0.10260321033E+04  0.00000000000E+00 0. -1.
        -24    2    1    2    0    0 -0.22847575292E+02  0.20312220267E+02 -0.69605738415E+03  0.70208117818E+03  0.86530345750E+02 0.  0.
         25    2    1    2    0    0  0.22695617971E+03 -0.29358441067E+02 -0.22760295103E+03  0.34615288299E+03  0.12509072512E+03 0.  0.
         24    2    1    2    0    0 -0.20410860442E+03  0.90462208007E+01  0.26588785097E+03  0.34605766118E+03  0.85541797145E+02 0.  0.
        -11    1    5    5    0    0 -0.90348672540E+02  0.89889557837E+01  0.54207619744E+02  0.10574568546E+03  0.00000000000E+00 0.  1.
         12    1    5    5    0    0 -0.11375993188E+03  0.57265016978E-01  0.21168023123E+03  0.24031197572E+03  0.00000000000E+00 0. -1.
         13    1    3    3    0    0 -0.36578405264E+01 -0.57885123405E+01 -0.61137966533E+03  0.61141800910E+03  0.00000000000E+00 0. -1.
        -14    1    3    3    0    0 -0.19189734766E+02  0.26100732607E+02 -0.84677718814E+02  0.90663169074E+02  0.00000000000E+00 0.  1.
          5    1    4    4  501    0  0.22927402938E+03 -0.11479778249E+02 -0.17009751754E+03  0.28574289795E+03  0.41800000000E+01 0.  1.
         -5    1    4    4    0  501 -0.23178496661E+01 -0.17878662819E+02 -0.57505433495E+02  0.60409985041E+02  0.41800000000E+01 0.  1.
</event>
<event>
11    1  0.1003949E-008  0.1494799E+03  0.7561462E-02  0.1097411E+00
         22   -1    0    0    0    0  0.00000000000E+00  0.00000000000E+00  0.10050459521E+04  0.10050459521E+04  0.00000000000E+00 0. -1.
         22   -1    0    0    0    0 -0.00000000000E+00 -0.00000000000E+00 -0.23464416539E+03  0.23464416539E+03  0.00000000000E+00 0.  1.
        -24    2    1    2    0    0 -0.42392844867E+02  0.25864842115E+02 -0.17109466027E+03  0.19563266156E+03  0.80824576337E+02 0.  0.
         25    2    1    2    0    0  0.48630069948E+01  0.50656217944E+02  0.49721126541E+02  0.14390584338E+03  0.12508796937E+03 0.  0.
         24    2    1    2    0    0  0.37529837872E+02 -0.76521060059E+02  0.89177532047E+03  0.90015161257E+03  0.88009897493E+02 0.  0.
        -11    1    5    5    0    0  0.74762873710E+01 -0.32056025046E+02  0.78692114279E+02  0.85299076574E+02  0.00000000000E+00 0.  1.
         12    1    5    5    0    0  0.30053550501E+02 -0.44465035013E+02  0.81308320619E+03  0.81485253600E+03  0.00000000000E+00 0. -1.
         11    1    3    3    0    0 -0.56166031278E+02  0.27070705481E+02 -0.70595336446E+02  0.94186770264E+02  0.00000000000E+00 0. -1.
        -12    1    3    3    0    0  0.13773186411E+02 -0.12058633664E+01 -0.10049932383E+03  0.10144589129E+03  0.00000000000E+00 0.  1.
          5    1    4    4  501    0  0.47270699235E+02  0.41285888629E+02 -0.16107568575E+02  0.64930499548E+02  0.41800000000E+01 0. -1.
         -5    1    4    4    0  501 -0.42407692240E+02  0.93703293147E+01  0.65828695116E+02  0.78975343832E+02  0.41800000000E+01 0. -1.
</event>
<event>
11    1  0.1003949E-008  0.1443308E+03  0.7561462E-02  0.1102816E+00
         22   -1    0    0    0    0  0.00000000000E+00  0.00000000000E+00  0.11892020420E+04  0.11892020420E+04  0.00000000000E+00 0.  1.
         22   -1    0    0    0    0 -0.00000000000E+00 -0.00000000000E+00 -0.72133802613E+03  0.72133802613E+03  0.00000000000E+00 0.  1.
        -24    2    1    2    0    0 -0.46187100550E+02  0.56739033970E+02 -0.61118660728E+03  0.62171056265E+03  0.87306291638E+02 0.  0.
         25    2    1    2    0    0  0.68616508656E+02 -0.21190048202E+02 -0.52670670073E+02  0.15355730694E+03  0.12509357947E+03 0.  0.
         24    2    1    2    0    0 -0.22429408106E+02 -0.35548985768E+02  0.11317212932E+04  0.11352721985E+04  0.79265822019E+02 0.  0.
        -13    1    5    5    0    0 -0.38163048360E+02 -0.51847716941E+02  0.94322707828E+03  0.94542155953E+03  0.00000000000E+00 0.  1.
         14    1    5    5    0    0  0.15733640253E+02  0.16298731172E+02  0.18849421490E+03  0.18985063899E+03  0.00000000000E+00 0. -1.
         13    1    3    3    0    0 -0.10557063581E+02 -0.11598348325E+02 -0.32349955630E+03  0.32387950877E+03  0.00000000000E+00 0. -1.
        -14    1    3    3    0    0 -0.35630036969E+02  0.68337382295E+02 -0.28768705097E+03  0.29783105387E+03  0.00000000000E+00 0.  1.
          5    1    4    4  501    0  0.42188080275E+02 -0.80377675484E+00 -0.92301519461E+02  0.10157520893E+03  0.41800000000E+01 0.  1.
         -5    1    4    4    0  501  0.26428428382E+02 -0.20386271447E+02  0.39630849388E+02  0.51982098009E+02  0.41800000000E+01 0.  1.
</event>
<event>
11    1  0.1003949E-008  0.1832773E+03  0.7561462E-02  0.1067022E+00
         22   -1    0    0    0    0  0.00000000000E+00  0.00000000000E+00  0.37429743783E+03  0.37429743783E+03  0.00000000000E+00 0. -1.
         22   -1    0    0    0    0 -0.00000000000E+00 -0.00000000000E+00 -0.53078922483E+03  0.53078922483E+03  0.00000000000E+00 0.  1.
        -24    2    1    2    0    0  0.12161534950E+03 -0.34342247736E+02 -0.39408442569E+03  0.42154509697E+03  0.80175127042E+02 0.  0.
         25    2    1    2    0    0 -0.22848563806E+03  0.55654486125E+02  0.85538968066E+02  0.27975532397E+03  0.12507204966E+03 0.  0.
         24    2    1    2    0    0  0.10687028856E+03 -0.21312238389E+02  0.15205367063E+03  0.20378624171E+03  0.80827244644E+02 0.  0.
        -11    1    5    5    0    0 -0.21015250700E+01 -0.12030338885E+02 -0.43272344266E+01  0.12956481740E+02  0.00000000000E+00 0.  1.
         12    1    5    5    0    0  0.10897181363E+03 -0.92818995038E+01  0.15638090506E+03  0.19082975997E+03  0.00000000000E+00 0. -1.
         11    1    3    3    0    0  0.19491759319E+02  0.62029633813E+01 -0.11438950707E+02  0.23436190589E+02  0.00000000000E+00 0. -1.
        -12    1    3    3    0    0  0.10212359018E+03 -0.40545211117E+02 -0.38264547498E+03  0.39810890638E+03  0.00000000000E+00 0.  1.
          5    1    4    4  501    0 -0.16665485251E+03  0.24376678776E+02 -0.14209565073E+01  0.16848606427E+03  0.41800000000E+01 0. -1.
         -5    1    4    4    0  501 -0.61830785552E+02  0.31277807348E+02  0.86959924573E+02  0.11126925971E+03  0.41800000000E+01 0. -1.
</event>
<event>
11    1  0.1003949E-008  0.2160248E+03  0.7561462E-02  0.1043737E+00
         22   -1    0    0    0    0  0.00000000000E+00  0.00000000000E+00  0.60011204359E+03  0.60011204359E+03  0.00000000000E+00 0. -1.
         22   -1    0    0    0    0 -0.00000000000E+00 -0.00000000000E+00 -0.99091609488E+03  0.99091609488E+03  0.00000000000E+00 0.  1.
         24    2    1    2    0    0 -0.16567588847E+03 -0.19806006085E+02 -0.72390264533E+03  0.74706402683E+03  0.78923015410E+02 0.  0.
         25    2    1    2    0    0  0.22815230840E+03  0.12992643427E+03 -0.15761359482E+03  0.33079082424E+03  0.12508465126E+03 0.  0.
        -24    2    1    2    0    0 -0.62476419929E+02 -0.11012042818E+03  0.49071218887E+03  0.51317328739E+03  0.80737592478E+02 0.  0.
        -11    1    3    3    0    0 -0.14179611235E+03 -0.38701841064E+02 -0.50179974842E+03  0.52288331155E+03  0.00000000000E+00 0.  1.
         12    1    3    3    0    0 -0.23879776127E+02  0.18895834979E+02 -0.22210289691E+03  0.22418071528E+03  0.00000000000E+00 0. -1.
         13    1    5    5    0    0 -0.22021423638E+02 -0.38308505811E+02  0.32608820547E+03  0.32906838570E+03  0.00000000000E+00 0. -1.
        -14    1    5    5    0    0 -0.40454996291E+02 -0.71811922369E+02  0.16462398339E+03  0.18410490169E+03  0.00000000000E+00 0.  1.
          5    1    4    4  501    0  0.18050358271E+03  0.15373292158E+03 -0.13400362562E+03  0.27237804358E+03  0.41800000000E+01 0.  1.
         -5    1    4    4    0  501  0.47648725694E+02 -0.23806487313E+02 -0.23609969207E+02  0.58412780659E+02  0.41800000000E+01 0.  1.
</event>
<event>
11    1  0.1003949E-008  0.2253840E+03  0.7561462E-02  0.1037896E+00
         22   -1    0    0    0    0  0.00000000000E+00  0.00000000000E+00  0.46937730548E+03  0.46937730548E+03  0.00000000000E+00 0.  1.
         22   -1    0    0    0    0 -0.00000000000E+00 -0.00000000000E+00 -0.63078504438E+03  0.63078504438E+03  0.00000000000E+00 0.  1.
         24    2    1    2    0    0  0.16722740577E+01  0.14366415695E+03 -0.45776734534E+03  0.48634002523E+03  0.79583234329E+02 0.  0.
         25    2    1    2    0    0 -0.15831160539E+03 -0.11843372248E+02 -0.45517027361E+02  0.20717503767E+03  0.12508743576E+03 0.  0.
        -24    2    1    2    0    0  0.15663933134E+03 -0.13182078470E+03  0.34187663381E+03  0.40664728695E+03  0.81054203100E+02 0.  0.
        -13    1    3    3    0    0  0.24181976923E+02  0.11880062327E+03 -0.27525772757E+03  0.30077428860E+03  0.00000000000E+00 0.  1.
         14    1    3    3    0    0 -0.22509702866E+02  0.24863533674E+02 -0.18250961778E+03  0.18556573663E+03  0.00000000000E+00 0. -1.
         11    1    5    5    0    0  0.69477531503E+02 -0.19074448317E+02  0.74355677411E+02  0.10353612281E+03  0.00000000000E+00 0. -1.
        -12    1    5    5    0    0  0.87161799833E+02 -0.11274633638E+03  0.26752095640E+03  0.30311116415E+03  0.00000000000E+00 0.  1.
          5    1    4    4  501    0 -0.15362642253E+02  0.20189640747E+02 -0.54588559032E+02  0.60340828199E+02  0.41800000000E+01 0. -1.
         -5    1    4    4    0  501 -0.14294896314E+03 -0.32033012995E+02  0.90715316719E+01  0.14683420947E+03  0.41800000000E+01 0. -1.
</event>
<event>
11    1  0.1003949E-008  0.1524126E+03  0.7561462E-02  0.1094439E+00
         22   -1    0    0    0    0  0.00000000000E+00  0.00000000000E+00  0.30101508551E+04  0.30101508551E+04  0.00000000000E+00 0.  1.
         22   -1    0    0    0    0 -0.00000000000E+00 -0.00000000000E+00 -0.40328548246E+03  0.40328548246E+03  0.00000000000E+00 0. -1.
        -24    2    1    2    0    0 -0.79563255901E+02  0.35414279541E+02 -0.37146420082E+03  0.38967023654E+03  0.79200744101E+02 0.  0.
         25    2    1    2    0    0  0.80575145492E+02 -0.32604538754E+02  0.24077651112E+03  0.28491248148E+03  0.12508550587E+03 0.  0.
         24    2    1    2    0    0 -0.10118895911E+01 -0.28097407869E+01  0.27375530623E+04  0.27388536195E+04  0.84341339528E+02 0.  0.
        -11    1    5    5    0    0 -0.20495470501E+02  0.29577465653E+02  0.20077912093E+04  0.20081136499E+04  0.00000000000E+00 0.  1.
         12    1    5    5    0    0  0.19483580910E+02 -0.32387206440E+02  0.72976185299E+03  0.73073996958E+03  0.00000000000E+00 0. -1.
         11    1    3    3    0    0 -0.77176697576E+02  0.65730099628E+01 -0.17896027488E+03  0.19500314636E+03  0.00000000000E+00 0. -1.
        -12    1    3    3    0    0 -0.23865583248E+01  0.28841269578E+02 -0.19250392595E+03  0.19466709017E+03  0.00000000000E+00 0.  1.
          5    1    4    4  501    0 -0.19492193463E+01  0.34656778681E+02  0.21294704914E+02  0.40936885837E+02  0.41800000000E+01 0. -1.
         -5    1    4    4    0  501  0.82524364838E+02 -0.67261317435E+02  0.21948180620E+03  0.24397559564E+03  0.41800000000E+01 0. -1.
</event>
<event>
11    1  0.1003949E-008  0.8169220E+03  0.7561462E-02  0.8875778E-01
         22   -1    0    0    0    0  0.00000000000E+00  0.00000000000E+00  0.88099828004E+03  0.88099828004E+03  0.00000000000E+00 0.  1.
         22   -1    0    0    0    0 -0.00000000000E+00 -0.00000000000E+00 -0.12878093571E+04  0.12878093571E+04  0.00000000000E+00 0.  1.
        -24    2    1    2    0    0 -0.68192084218E+03 -0.40250686628E+03 -0.75447635282E+03  0.10966532979E+04  0.79912930059E+02 0.  0.
         25    2    1    2    0    0  0.62912173230E+03  0.51600382946E+03  0.39459280723E+03  0.91291009061E+03  0.12508894415E+03 0.  0.
         24    2    1    2    0    0  0.52799109876E+02 -0.11349696319E+03 -0.46927531509E+02  0.15924424868E+03  0.86528786357E+02 0.  0.
        -13    1    5    5    0    0  0.61336259716E+02 -0.30126095930E+02 -0.22665955241E+02  0.71996277258E+02  0.00000000000E+00 0.  1.
         14    1    5    5    0    0 -0.85371498407E+01 -0.83370867258E+02 -0.24261576268E+02  0.87247971425E+02  0.00000000000E+00 0. -1.
         13    1    3    3    0    0 -0.67662186877E+02 -0.31746220973E+02 -0.43031961723E+02  0.86242355074E+02  0.00000000000E+00 0. -1.
        -14    1    3    3    0    0 -0.61425865530E+03 -0.37076064530E+03 -0.71144439110E+03  0.10104109428E+04  0.00000000000E+00 0.  1.
          5    1    4    4  501    0  0.30416913396E+03  0.23190630264E+03  0.25306542090E+03  0.45864907600E+03  0.41800000000E+01 0.  1.
         -5    1    4    4    0  501  0.32495259834E+03  0.28409752682E+03  0.14152738633E+03  0.45426101461E+03  0.41800000000E+01 0.  1.
</event>
<event>
11    1  0.1003949E-008  0.1360319E+03  0.7561462E-02  0.1112072E+00
         22   -1    0    0    0    0  0.00000000000E+00  0.00000000000E+00  0.16557100808E+04  0.16557100808E+04  0.00000000000E+00 0. -1.
         22   -1    0    0    0    0 -0.00000000000E+00 -0.00000000000E+00 -0.80104388545E+02  0.80104388545E+02  0.00000000000E+00 0.  1.
         24    2    1    2    0    0 -0.12339223315E+02  0.53822984614E+02 -0.33706328395E+02  0.10407060878E+03  0.81519353124E+02 0.  0.
         25    2    1    2    0    0  0.26400818231E+02 -0.25740581681E+02  0.43219589857E+03  0.45144254813E+03  0.12508996271E+03 0.  0.
        -24    2    1    2    0    0 -0.14061594916E+02 -0.28082402933E+02  0.11771161221E+04  0.11803013124E+04  0.80761831761E+02 0.  0.
        -11    1    3    3    0    0  0.66416658014E+00  0.71754465866E+02 -0.11440684144E+02  0.72663840682E+02  0.00000000000E+00 0.  1.
         12    1    3    3    0    0 -0.13003389895E+02 -0.17931481252E+02 -0.22265644250E+02  0.31406768101E+02  0.00000000000E+00 0. -1.
         11    1    5    5    0    0 -0.37322589761E+02 -0.25926769828E+02  0.10545560450E+04  0.10555347579E+04  0.00000000000E+00 0. -1.
        -12    1    5    5    0    0  0.23260994845E+02 -0.21556331051E+01  0.12256007704E+03  0.12476655449E+03  0.00000000000E+00 0.  1.
          5    1    4    4  501    0  0.49135534895E+02 -0.39289474890E+00  0.40410688522E+03  0.40710478042E+03  0.41800000000E+01 0. -1.
         -5    1    4    4    0  501 -0.22734716664E+02 -0.25347686932E+02  0.28089013350E+02  0.44337767710E+02  0.41800000000E+01 0. -1.
</event>
<event>
11    1  0.1003949E-008  0.1624243E+03  0.7561462E-02  0.1084819E+00
         22   -1    0    0    0    0  0.00000000000E+00  0.00000000000E+00  0.99298604687E+02  0.99298604687E+02  0.00000000000E+00 0.  1.
         22   -1    0    0    0    0 -0.00000000000E+00 -0.00000000000E+00 -0.27138375670E+04  0.27138375670E+04  0.00000000000E+00 0.  1.
        -24    2    1    2    0    0 -0.96710754389E+01 -0.99274015378E+02 -0.21753418856E+04  0.21791399563E+04  0.81177397546E+02 0.  0.
         25    2    1    2    0    0  0.79125537175E+01  0.13802149670E+03 -0.49540057085E+03  0.52932085852E+03  0.12508518542E+03 0.  0.
         24    2    1    2    0    0  0.17585217214E+01 -0.38747481319E+02  0.56203494120E+02  0.10467535693E+03  0.79332451676E+02 0.  0.
        -13    1    5    5    0    0  0.29365142782E+01 -0.29560152894E+02  0.76662879733E+02  0.82216925776E+02  0.00000000000E+00 0.  1.
         14    1    5    5    0    0 -0.11779925568E+01 -0.91873284251E+01 -0.20459385612E+02  0.22458431149E+02  0.00000000000E+00 0. -1.
         13    1    3    3    0    0 -0.37966851484E+02 -0.47198658331E+02 -0.70269333202E+03  0.70529930812E+03  0.00000000000E+00 0. -1.
        -14    1    3    3    0    0  0.28295776045E+02 -0.52075357047E+02 -0.14726485536E+04  0.14738406481E+04  0.00000000000E+00 0.  1.
          5    1    4    4  501    0  0.25016432692E+02  0.25436401567E+02 -0.21394038857E+02  0.41809206258E+02  0.41800000000E+01 0. -1.
         -5    1    4    4    0  501 -0.17103878974E+02  0.11258509513E+03 -0.47400653200E+03  0.48751165227E+03  0.41800000000E+01 0. -1.
</event>
<event>
11    1  0.1003949E-008  0.1359937E+03  0.7561462E-02  0.1112116E+00
         22   -1    0    0    0    0  0.00000000000E+00  0.00000000000E+00  0.80064449631E+03  0.80064449631E+03  0.00000000000E+00 0. -1.
         22   -1    0    0    0    0 -0.00000000000E+00 -0.00000000000E+00 -0.50501689689E+03  0.50501689689E+03  0.00000000000E+00 0. -1.
        -24    2    1    2    0    0 -0.27859574808E+01 -0.44965169285E+01 -0.40957805338E+03  0.41503282700E+03  0.66858697640E+02 0.  0.
         25    2    1    2    0    0  0.52059246241E+02  0.24565776237E+02 -0.36635760774E+02  0.14249210381E+03  0.12509267844E+03 0.  0.
         24    2    1    2    0    0 -0.49273288760E+02 -0.20069259309E+02  0.74184141358E+03  0.74813646239E+03  0.80924973262E+02 0.  0.
        -13    1    5    5    0    0 -0.57633170289E+02 -0.31062396403E+02  0.35116767765E+03  0.35721869018E+03  0.00000000000E+00 0.  1.
         14    1    5    5    0    0  0.83598815292E+01  0.10993137094E+02  0.39067373593E+03  0.39091777221E+03  0.00000000000E+00 0. -1.
         11    1    3    3    0    0 -0.24680743819E+02  0.20422284440E+02 -0.24996511828E+03  0.25200946247E+03  0.00000000000E+00 0. -1.
        -12    1    3    3    0    0  0.21894786338E+02 -0.24918801368E+02 -0.15961293510E+03  0.16302336453E+03  0.00000000000E+00 0.  1.
          5    1    4    4  501    0  0.86816935935E+02 -0.96768649501E+01 -0.14096138611E+02  0.88583269324E+02  0.41800000000E+01 0.  1.
         -5    1    4    4    0  501 -0.34757689694E+02  0.34242641187E+02 -0.22539622163E+02  0.53908834486E+02  0.41800000000E+01 0.  1.
</event>
<event>
11    1  0.1003949E-008  0.1771022E+03  0.7561462E-02  0.1072011E+00
         22   -1    0    0    0    0  0.00000000000E+00  0.00000000000E+00  0.86151012330E+02  0.86151012330E+02  0.00000000000E+00 0. -1.
         22   -1    0    0    0    0 -0.00000000000E+00 -0.00000000000E+00 -0.18771537117E+04  0.18771537117E+04  0.00000000000E+00 0. -1.
        -24    2    1    2    0    0  0.12964541440E+03 -0.12304645850E+02 -0.16839141969E+04  0.16907387776E+04  0.77918251553E+02 0.  0.
         25    2    1    2    0    0 -0.61636706428E+02  0.36053162236E+02 -0.80339393795E+02  0.16493351952E+03  0.12509889520E+03 0.  0.
         24    2    1    2    0    0 -0.68008707968E+02 -0.23748516386E+02 -0.26749108682E+02  0.10763242687E+03  0.75366093895E+02 0.  0.
        -13    1    5    5    0    0 -0.35870684017E+02 -0.68449897961E+01 -0.51900451884E+02  0.63460355837E+02  0.00000000000E+00 0.  1.
         14    1    5    5    0    0 -0.32138023951E+02 -0.16903526590E+02  0.25151343202E+02  0.44172071035E+02  0.00000000000E+00 0. -1.
         11    1    3    3    0    0  0.59935144284E+02 -0.19694001123E+02 -0.12125852412E+04  0.12142252849E+04  0.00000000000E+00 0. -1.
        -12    1    3    3    0    0  0.69710270112E+02  0.73893552737E+01 -0.47132895567E+03  0.47651349276E+03  0.00000000000E+00 0.  1.
          5    1    4    4  501    0 -0.14619971460E+02  0.54838568250E+02 -0.96148685814E+02  0.11172758978E+03  0.41800000000E+01 0. -1.
         -5    1    4    4    0  501 -0.47016734968E+02 -0.18785406015E+02  0.15809292018E+02  0.53205929747E+02  0.41800000000E+01 0. -1.
</event>
<event>
11    1  0.1003949E-008  0.1437721E+03  0.7561462E-02  0.1103418E+00
         22   -1    0    0    0    0  0.00000000000E+00  0.00000000000E+00  0.10905338979E+04  0.10905338979E+04  0.00000000000E+00 0.  1.
         22   -1    0    0    0    0 -0.00000000000E+00 -0.00000000000E+00 -0.33961432124E+03  0.33961432124E+03  0.00000000000E+00 0. -1.
        -24    2    1    2    0    0 -0.45873318276E+02 -0.67925987999E+01 -0.27465535882E+03  0.28954873936E+03  0.79072154430E+02 0.  0.
         25    2    1    2    0    0 -0.12475227234E+01  0.61263783615E+02  0.33727894162E+02  0.14331722440E+03  0.12508976165E+03 0.  0.
         24    2    1    2    0    0  0.47120840999E+02 -0.54471184815E+02  0.99184704130E+03  0.99728225536E+03  0.74992398943E+02 0.  0.
        -13    1    5    5    0    0  0.54802532265E+02 -0.41568678781E+02  0.44994879292E+03  0.45517599766E+03  0.00000000000E+00 0.  1.
         14    1    5    5    0    0 -0.76816912659E+01 -0.12902506033E+02  0.54189824838E+03  0.54210625770E+03  0.00000000000E+00 0. -1.
         11    1    3    3    0    0 -0.52234195048E+02 -0.21142875733E+02 -0.26542127654E+03  0.27133721891E+03  0.00000000000E+00 0. -1.
        -12    1    3    3    0    0  0.63608767719E+01  0.14350276933E+02 -0.92340822804E+01  0.18211520445E+02  0.00000000000E+00 0.  1.
          5    1    4    4  501    0 -0.75096413214E+01  0.69302174532E+02  0.73892537571E+02  0.10166988549E+03  0.41800000000E+01 0. -1.
         -5    1    4    4    0  501  0.62621185980E+01 -0.80383909171E+01 -0.40164643410E+02  0.41647338908E+02  0.41800000000E+01 0. -1.
</event>
<event>
11    1  0.1003949E-008  0.2140728E+03  0.7561462E-02  0.1044995E+00
         22   -1    0    0    0    0  0.00000000000E+00  0.00000000000E+00  0.21910078003E+04  0.21910078003E+04  0.00000000000E+00 0. -1.
         22   -1    0    0    0    0 -0.00000000000E+00 -0.00000000000E+00 -0.13370247763E+04  0.13370247763E+04  0.00000000000E+00 0. -1.
         24    2    1    2    0    0 -0.15105578769E+03 -0.80445303524E+02 -0.12097720125E+04  0.12247175621E+04  0.84234712294E+02 0.  0.
         25    2    1    2    0    0  0.20140655030E+03  0.91331991998E+02  0.17406181659E+02  0.25466937611E+03  0.12508950678E+03 0.  0.
        -24    2    1    2    0    0 -0.50350762608E+02 -0.10886688474E+02  0.20463488549E+04  0.20486456383E+04  0.82168098346E+02 0.  0.
        -11    1    3    3    0    0 -0.10154114254E+03 -0.14125056238E+02 -0.52099986906E+03  0.53099056903E+03  0.00000000000E+00 0.  1.
         12    1    3    3    0    0 -0.49514645143E+02 -0.66320247286E+02 -0.68877214345E+03  0.69372699304E+03  0.00000000000E+00 0. -1.
         13    1    5    5    0    0  0.20224781581E+02  0.54611134930E+01  0.73389394621E+03  0.73419288326E+03  0.00000000000E+00 0. -1.
        -14    1    5    5    0    0 -0.70575544189E+02 -0.16347801967E+02  0.13124549086E+04  0.13144527551E+04  0.00000000000E+00 0.  1.
          5    1    4    4  501    0  0.81184518421E+02  0.10499887431E+03  0.38679434780E+01  0.13284623827E+03  0.41800000000E+01 0.  1.
         -5    1    4    4    0  501  0.12022203187E+03 -0.13666882308E+02  0.13538238181E+02  0.12182313784E+03  0.41800000000E+01 0.  1.
</event>
<event>
11    1  0.1003949E-008  0.1482432E+03  0.7561462E-02  0.1098687E+00
         22   -1    0    0    0    0  0.00000000000E+00  0.00000000000E+00  0.37800747230E+04  0.37800747230E+04  0.00000000000E+00 0.  1.
         22   -1    0    0    0    0 -0.00000000000E+00 -0.00000000000E+00 -0.11525359678E+04  0.11525359678E+04  0.00000000000E+00 0.  1.
         24    2    1    2    0    0 -0.67897484815E+02  0.41035216956E+02 -0.11326366258E+04  0.11382208124E+04  0.79918297591E+02 0.  0.
         25    2    1    2    0    0  0.76822644380E+02 -0.99541911637E+02  0.46333130169E+03  0.49611832175E+03  0.12508870130E+03 0.  0.
        -24    2    1    2    0    0 -0.89251595645E+01  0.58506694680E+02  0.32968440793E+04  0.32982715567E+04  0.76887494233E+02 0.  0.
        -11    1    3    3    0    0 -0.57370605994E+02  0.18383902265E+01 -0.91721455952E+03  0.91900887608E+03  0.00000000000E+00 0.  1.
         12    1    3    3    0    0 -0.10526878822E+02  0.39196826730E+02 -0.21542206625E+03  0.21921193634E+03  0.00000000000E+00 0. -1.
         11    1    5    5    0    0  0.13630790262E+02  0.22181292432E+02  0.30140870249E+03  0.30253101347E+03  0.00000000000E+00 0. -1.
        -12    1    5    5    0    0 -0.22555949827E+02  0.36325402249E+02  0.29954353768E+04  0.29957405432E+04  0.00000000000E+00 0.  1.
          5    1    4    4  501    0  0.47838384400E+02 -0.70404077256E+02  0.10416820261E+03  0.13458726519E+03  0.41800000000E+01 0. -1.
         -5    1    4    4    0  501  0.28984259980E+02 -0.29137834381E+02  0.35916309908E+03  0.36153105657E+03  0.41800000000E+01 0. -1.
</event>
<event>
11    1  0.1003949E-008  0.1477409E+03  0.7561462E-02  0.1099210E+00
         22   -1    0    0    0    0  0.00000000000E+00  0.00000000000E+00  0.20892367111E+03  0.20892367111E+03  0.00000000000E+00 0. -1.
         22   -1    0    0    0    0 -0.00000000000E+00 -0.00000000000E+00 -0.30216905974E+03  0.30216905974E+03  0.00000000000E+00 0.  1.
        -24    2    1    2    0    0  0.21182899370E+02  0.11772638813E+02 -0.20612318108E+03  0.21725434938E+03  0.64229092282E+02 0.  0.
         25    2    1    2    0    0  0.55761405954E+02  0.26746777996E+02  0.14952554344E+02  0.14034138227E+03  0.12508956858E+03 0.  0.
         24    2    1    2    0    0 -0.76944305323E+02 -0.38519416809E+02  0.97925238107E+02  0.15349699919E+03  0.81041994735E+02 0.  0.
        -11    1    5    5    0    0 -0.10977678108E+02 -0.89202446159E+01 -0.14224683174E+02  0.20060453436E+02  0.00000000000E+00 0.  1.
         12    1    5    5    0    0 -0.65966627215E+02 -0.29599172193E+02  0.11214992128E+03  0.13343654576E+03  0.00000000000E+00 0. -1.
         13    1    3    3    0    0  0.19385557914E+02 -0.25045600926E+02 -0.89002717367E+02  0.94469919446E+02  0.00000000000E+00 0. -1.
        -14    1    3    3    0    0  0.17973414552E+01  0.36818239739E+02 -0.11712046372E+03  0.12278442994E+03  0.00000000000E+00 0.  1.
          5    1    4    4  501    0 -0.35050499748E+02  0.48789473420E+01 -0.19589174658E+02  0.40663863854E+02  0.41800000000E+01 0.  1.
         -5    1    4    4    0  501  0.90811905701E+02  0.21867830654E+02  0.34541729001E+02  0.99677518413E+02  0.41800000000E+01 0.  1.
</event>
<event>
11    1  0.1003949E-008  0.1470183E+03  0.7561462E-02  0.1099965E+00
         22   -1    0    0    0    0  0.00000000000E+00  0.00000000000E+00  0.47955258839E+03  0.47955258839E+03  0.00000000000E+00 0. -1.
         22   -1    0    0    0    0 -0.00000000000E+00 -0.00000000000E+00 -0.24508503531E+03  0.24508503531E+03  0.00000000000E+00 0.  1.
         24    2    1    2    0    0 -0.49095145169E+02  0.61382525568E+02 -0.19984612455E+03  0.22900315289E+03  0.79535041411E+02 0.  0.
         25    2    1    2    0    0  0.19828269135E+02 -0.58184020370E+02  0.18311325019E+03  0.23012332725E+03  0.12509093838E+03 0.  0.
        -24    2    1    2    0    0  0.29266876034E+02 -0.31985051982E+01  0.25120042744E+03  0.26551114357E+03  0.80794381906E+02 0.  0.
        -13    1    3    3    0    0  0.40355411501E+00  0.52466272740E+02 -0.14684287045E+03  0.15593492627E+03  0.00000000000E+00 0.  1.
         14    1    3    3    0    0 -0.49498699284E+02  0.89162528283E+01 -0.53003254100E+02  0.73068226614E+02  0.00000000000E+00 0. -1.
         11    1    5    5    0    0  0.35513667388E+02  0.30770364169E+02  0.18461134861E+03  0.19049773205E+03  0.00000000000E+00 0. -1.
        -12    1    5    5    0    0 -0.62467913540E+01 -0.33968869367E+02  0.66589078829E+02  0.75013411518E+02  0.00000000000E+00 0.  1.
          5    1    4    4  501    0  0.27782950345E+01  0.34278082143E+02  0.15624816530E+02  0.38004119912E+02  0.41800000000E+01 0. -1.
         -5    1    4    4    0  501  0.17049974101E+02 -0.92462102513E+02  0.16748843366E+03  0.19211920733E+03  0.41800000000E+01 0. -1.
</event>
<event>
11    1  0.1003949E-008  0.4577703E+03  0.7561462E-02  0.9493174E-01
         22   -1    0    0    0    0  0.00000000000E+00  0.00000000000E+00  0.26174713830E+03  0.26174713830E+03  0.00000000000E+00 0. -1.
         22   -1    0    0    0    0 -0.00000000000E+00 -0.00000000000E+00 -0.12579954955E+04  0.12579954955E+04  0.00000000000E+00 0.  1.
        -24    2    1    2    0    0  0.23939389926E+03 -0.37741186134E+03 -0.86445553973E+03  0.97657471174E+03  0.81643342414E+02 0.  0.
         25    2    1    2    0    0 -0.19977675210E+03  0.37084103346E+03 -0.11479232129E+03  0.45415665598E+03  0.12508864203E+03 0.  0.
         24    2    1    2    0    0 -0.39617147152E+02  0.65708278885E+01 -0.17000496198E+02  0.89011266104E+02  0.77597000553E+02 0.  0.
        -13    1    5    5    0    0 -0.23805863687E+02 -0.35001524886E+02 -0.13344882352E+02  0.44383688166E+02  0.00000000000E+00 0.  1.
         14    1    5    5    0    0 -0.15811283465E+02  0.41572352774E+02 -0.36556138454E+01  0.44627577938E+02  0.00000000000E+00 0. -1.
         13    1    3    3    0    0  0.13260796056E+03 -0.24400894435E+03 -0.60775832108E+03  0.66820312254E+03  0.00000000000E+00 0. -1.
        -14    1    3    3    0    0  0.10678593870E+03 -0.13340291699E+03 -0.25669721864E+03  0.30837158920E+03  0.00000000000E+00 0.  1.
          5    1    4    4  501    0 -0.12233551990E+03  0.11641947016E+03 -0.13228411930E+02  0.16944596703E+03  0.41800000000E+01 0. -1.
         -5    1    4    4    0  501 -0.77441232207E+02  0.25442156329E+03 -0.10156390936E+03  0.28471068894E+03  0.41800000000E+01 0. -1.
</event>
<event>
11    1  0.1003949E-008  0.1425776E+03  0.7561462E-02  0.1104714E+00
         22   -1    0    0    0    0  0.00000000000E+00  0.00000000000E+00  0.31398067949E+04  0.31398067949E+04  0.00000000000E+00 0.  1.
         22   -1    0    0    0    0 -0.00000000000E+00 -0.00000000000E+00 -0.15582646120E+04  0.15582646120E+04  0.00000000000E+00 0.  1.
        -24    2    1    2    0    0 -0.26648451149E+02 -0.29476366006E+01 -0.15105453531E+04  0.15128493783E+04  0.79038907555E+02 0.  0.
         25    2    1    2    0    0 -0.62199625629E+01  0.63109412048E+02  0.62084567713E+02  0.15340014729E+03  0.12512244331E+03 0.  0.
         24    2    1    2    0    0  0.32868413712E+02 -0.60161775447E+02  0.30300029683E+04  0.30318218813E+04  0.79537159248E+02 0.  0.
        -13    1    5    5    0    0  0.10735640256E+02 -0.52866337254E+02  0.28223228514E+04  0.28228383555E+04  0.00000000000E+00 0.  1.
         14    1    5    5    0    0  0.22132773456E+02 -0.72954381929E+01  0.20768011692E+03  0.20898352577E+03  0.00000000000E+00 0. -1.
         13    1    3    3    0    0  0.14768963363E+02  0.58327363068E+01 -0.74194248842E+02  0.75874433460E+02  0.00000000000E+00 0. -1.
        -14    1    3    3    0    0 -0.41417414512E+02 -0.87803729074E+01 -0.14363511043E+04  0.14369749448E+04  0.00000000000E+00 0.  1.
          5    1    4    4  501    0  0.24295724219E+02 -0.90952317565E+00  0.76959398074E+02  0.80816649272E+02  0.41800000000E+01 0. -1.
         -5    1    4    4    0  501 -0.30515686782E+02  0.64018935223E+02 -0.14874830361E+02  0.72583498022E+02  0.41800000000E+01 0. -1.
</event>
<event>
11    1  0.1003949E-008  0.1667159E+03  0.7561462E-02  0.1080925E+00
         22   -1    0    0    0    0  0.00000000000E+00  0.00000000000E+00  0.50348122545E+03  0.50348122545E+03  0.00000000000E+00 0. -1.
         22   -1    0    0    0    0 -0.00000000000E+00 -0.00000000000E+00 -0.10729393183E+03  0.10729393183E+03  0.00000000000E+00 0.  1.
         24    2    1    2    0    0  0.63785920936E+02  0.79159217512E+02  0.34776186791E+02  0.13465286340E+03  0.81161475025E+02 0.  0.
         25    2    1    2    0    0 -0.56528452651E+02 -0.11528980052E+03  0.11173370707E+03  0.21123576086E+03  0.12509564863E+03 0.  0.
        -24    2    1    2    0    0 -0.72574682857E+01  0.36130583011E+02  0.24967739976E+03  0.26488653301E+03  0.80423762340E+02 0.  0.
        -13    1    3    3    0    0 -0.80683353918E+01  0.30347107376E+02 -0.14714474765E+02  0.34677957404E+02  0.00000000000E+00 0.  1.
         14    1    3    3    0    0  0.71854256328E+02  0.48812110136E+02  0.49490661557E+02  0.99974906000E+02  0.00000000000E+00 0. -1.
         13    1    5    5    0    0 -0.41081140986E+02  0.15013378488E+02  0.17321065370E+03  0.17864767626E+03  0.00000000000E+00 0. -1.
        -14    1    5    5    0    0  0.33823672700E+02  0.21117204523E+02  0.76466746056E+02  0.86238856754E+02  0.00000000000E+00 0.  1.
          5    1    4    4  501    0 -0.68654402608E+02 -0.61797023097E+01  0.49558008539E+02  0.85000496048E+02  0.41800000000E+01 0. -1.
         -5    1    4    4    0  501  0.12125949958E+02 -0.10911009821E+03  0.62175698533E+02  0.12623526481E+03  0.41800000000E+01 0. -1.
</event>
<event>
11    1  0.1003949E-008  0.1332128E+03  0.7561462E-02  0.1115383E+00
         22   -1    0    0    0    0  0.00000000000E+00  0.00000000000E+00  0.52107591701E+03  0.52107591701E+03  0.00000000000E+00 0.  1.
         22   -1    0    0    0    0 -0.00000000000E+00 -0.00000000000E+00 -0.34968403560E+03  0.34968403560E+03  0.00000000000E+00 0.  1.
         24    2    1    2    0    0 -0.13350437337E+02 -0.41128563844E+02 -0.27301650248E+03  0.28778103540E+03  0.80063229811E+02 0.  0.
         25    2    1    2    0    0  0.36657624431E+02  0.77054208927E+02  0.24747812673E+02  0.15342925810E+03  0.12508777105E+03 0.  0.
        -24    2    1    2    0    0 -0.23307187094E+02 -0.35925645083E+02  0.41966057123E+03  0.42954965910E+03  0.81018748732E+02 0.  0.
        -11    1    3    3    0    0  0.10417696708E+02 -0.76237428009E+01 -0.22157158672E+03  0.22194733137E+03  0.00000000000E+00 0.  1.
         12    1    3    3    0    0 -0.23768134044E+02 -0.33504821043E+02 -0.51444915762E+02  0.65833704034E+02  0.00000000000E+00 0. -1.
         13    1    5    5    0    0  0.26515303881E+02 -0.17357392256E+02  0.85478783362E+02  0.91164482179E+02  0.00000000000E+00 0. -1.
        -14    1    5    5    0    0 -0.49822490975E+02 -0.18568252827E+02  0.33418178787E+03  0.33838517692E+03  0.00000000000E+00 0.  1.
          5    1    4    4  501    0  0.29196642359E+01  0.95227325120E+02 -0.16712462014E+02  0.96817078428E+02  0.41800000000E+01 0.  1.
         -5    1    4    4    0  501  0.33737960195E+02 -0.18173116193E+02  0.41460274687E+02  0.56612179674E+02  0.41800000000E+01 0.  1.
</event>
<event>
11    1  0.1003949E-008  0.1433050E+03  0.7561462E-02  0.1103923E+00
         22   -1    0    0    0    0  0.00000000000E+00  0.00000000000E+00  0.70443155318E+03  0.70443155318E+03  0.00000000000E+00 0. -1.
         22   -1    0    0    0    0 -0.00000000000E+00 -0.00000000000E+00 -0.11470712603E+03  0.11470712603E+03  0.00000000000E+00 0. -1.
         24    2    1    2    0    0 -0.38057682344E+01  0.84637400877E+01 -0.35005971074E+02  0.89586144045E+02  0.81939858591E+02 0.  0.
         25    2    1    2    0    0  0.71169845980E+02 -0.24913853567E+02  0.63017385698E+02  0.15911758094E+03  0.12514538181E+03 0.  0.
        -24    2    1    2    0    0 -0.67364077745E+02  0.16450113479E+02  0.56171301252E+03  0.57043495422E+03  0.71175862214E+02 0.  0.
        -11    1    3    3    0    0 -0.26360711476E+02 -0.67304799230E+01  0.16158546246E+02  0.31643089077E+02  0.00000000000E+00 0.  1.
         12    1    3    3    0    0  0.22554943242E+02  0.15194220011E+02 -0.51164517321E+02  0.57943054968E+02  0.00000000000E+00 0. -1.
         11    1    5    5    0    0 -0.45253029993E+02  0.10275928827E+02  0.52558835800E+03  0.52763297234E+03  0.00000000000E+00 0. -1.
        -12    1    5    5    0    0 -0.22111047752E+02  0.61741846522E+01  0.36124654517E+02  0.42801981879E+02  0.00000000000E+00 0.  1.
          5    1    4    4  501    0 -0.18697064238E+02 -0.97035840381E+01  0.64379065382E+02  0.67866606028E+02  0.41800000000E+01 0. -1.
         -5    1    4    4    0  501  0.89866910218E+02 -0.15210269529E+02 -0.13616796841E+01  0.91250974915E+02  0.41800000000E+01 0. -1.
</event>
<event>
11    1  0.1140794E-008  0.1455208E+03  0.7561462E-02  0.1101546E+00
         22   -1    0    0    0    0  0.00000000000E+00  0.00000000000E+00  0.60589333808E+03  0.60589333808E+03  0.00000000000E+00 0. -1.
         22   -1    0    0    0    0 -0.00000000000E+00 -0.00000000000E+00 -0.89886633832E+03  0.89886633832E+03  0.00000000000E+00 0.  1.
        -24    2    1    2    0    0  0.71047123459E+02 -0.20678267975E+02 -0.64687503785E+03  0.65605530163E+03  0.80535456059E+02 0.  0.
         25    2    1    2    0    0 -0.54008702069E+02  0.75190857335E+02 -0.21844914655E+03  0.26821349677E+03  0.12509134780E+03 0.  0.
         24    2    1    2    0    0 -0.17038421390E+02 -0.54512589360E+02  0.57235118417E+03  0.58049087801E+03  0.78242259857E+02 0.  0.
        -13    1    5    5    0    0 -0.11908868682E+02  0.14942813734E+02  0.50164903763E+02  0.53680782456E+02  0.00000000000E+00 0.  1.
         14    1    5    5    0    0 -0.51295527080E+01 -0.69455403094E+02  0.52218628040E+03  0.52681009555E+03  0.00000000000E+00 0. -1.
         11    1    3    3    0    0  0.37956499129E+02  0.24821265636E+02 -0.17274629972E+03  0.17860032229E+03  0.00000000000E+00 0. -1.
        -12    1    3    3    0    0  0.33090624330E+02 -0.45499533611E+02 -0.47412873813E+03  0.47745497934E+03  0.00000000000E+00 0.  1.
          5    1    4    4  501    0 -0.60023410797E+01  0.97218142424E+02 -0.10665759910E+03  0.14450159570E+03  0.41800000000E+01 0.  1.
         -5    1    4    4    0  501 -0.48006360989E+02 -0.22027285089E+02 -0.11179154745E+03  0.12371190106E+03  0.41800000000E+01 0.  1.
</event>
<event>
11    1  0.1003949E-008  0.1507411E+03  0.7561462E-02  0.1096124E+00
         22   -1    0    0    0    0  0.00000000000E+00  0.00000000000E+00  0.10930350326E+04  0.10930350326E+04  0.00000000000E+00 0.  1.
         22   -1    0    0    0    0 -0.00000000000E+00 -0.00000000000E+00 -0.55865835321E+03  0.55865835321E+03  0.00000000000E+00 0.  1.
        -24    2    1    2    0    0  0.18004813719E+02 -0.80988859473E+02 -0.51649315212E+03  0.53003924021E+03  0.85399363602E+02 0.  0.
         25    2    1    2    0    0 -0.74284917420E+02  0.11727883566E+03  0.23942988945E+03  0.30371656586E+03  0.12507800033E+03 0.  0.
         24    2    1    2    0    0  0.56280103702E+02 -0.36289976186E+02  0.81143994208E+03  0.81793757975E+03  0.78119730735E+02 0.  0.
        -13    1    5    5    0    0  0.71780060507E+02 -0.44930122800E+02  0.63893939041E+03  0.64452667721E+03  0.00000000000E+00 0.  1.
         14    1    5    5    0    0 -0.15499956805E+02  0.86401466136E+01  0.17250055167E+03  0.17341090254E+03  0.00000000000E+00 0. -1.
         13    1    3    3    0    0 -0.15979515421E+02  0.11988729165E+02 -0.94880045963E+02  0.96960289099E+02  0.00000000000E+00 0. -1.
        -14    1    3    3    0    0  0.33984329139E+02 -0.92977588638E+02 -0.42161310616E+03  0.43307895112E+03  0.00000000000E+00 0.  1.
          5    1    4    4  501    0 -0.84103761029E+02  0.50869651601E+02  0.68082599603E+02  0.11964061535E+03  0.41800000000E+01 0.  1.
         -5    1    4    4    0  501  0.98188436089E+01  0.66409184059E+02  0.17134728984E+03  0.18407595050E+03  0.41800000000E+01 0.  1.
</event>
<event>
11    1  0.1003949E-008  0.1931743E+03  0.7561462E-02  0.1059458E+00
         22   -1    0    0    0    0  0.00000000000E+00  0.00000000000E+00  0.26293710700E+03  0.26293710700E+03  0.00000000000E+00 0. -1.
         22   -1    0    0    0    0 -0.00000000000E+00 -0.00000000000E+00 -0.19372284783E+04  0.19372284783E+04  0.00000000000E+00 0.  1.
         24    2    1    2    0    0  0.34254714661E+01  0.47853051486E+02 -0.14854048177E+04  0.14883824829E+04  0.80952421675E+02 0.  0.
         25    2    1    2    0    0 -0.63486398993E+02 -0.17903944162E+03 -0.39037594953E+03  0.45180345521E+03  0.12508931073E+03 0.  0.
        -24    2    1    2    0    0  0.60060927527E+02  0.13118639013E+03  0.20148939590E+03  0.25997964721E+03  0.78576436236E+02 0.  0.
        -13    1    3    3    0    0  0.39270203360E+02  0.42134545120E+02 -0.95829129545E+03  0.96002066420E+03  0.00000000000E+00 0.  1.
         14    1    3    3    0    0 -0.35844731894E+02  0.57185063661E+01 -0.52711352224E+03  0.52836181869E+03  0.00000000000E+00 0. -1.
         11    1    5    5    0    0  0.14332037166E+02  0.10949253494E+03  0.16066034390E+03  0.19495068248E+03  0.00000000000E+00 0. -1.
        -12    1    5    5    0    0  0.45728890362E+02  0.21693855197E+02  0.40829051999E+02  0.65028964733E+02  0.00000000000E+00 0.  1.
          5    1    4    4  501    0 -0.91916340575E+02 -0.16446064894E+03 -0.28548421272E+03  0.34207400782E+03  0.41800000000E+01 0. -1.
         -5    1    4    4    0  501  0.28429941581E+02 -0.14578792679E+02 -0.10489173680E+03  0.10972944739E+03  0.41800000000E+01 0. -1.
</event>
<event>
11    1  0.1003949E-008  0.1313325E+03  0.7561462E-02  0.1117643E+00
         22   -1    0    0    0    0  0.00000000000E+00  0.00000000000E+00  0.30283679969E+03  0.30283679969E+03  0.00000000000E+00 0.  1.
         22   -1    0    0    0    0 -0.00000000000E+00 -0.00000000000E+00 -0.32465597746E+03  0.32465597746E+03  0.00000000000E+00 0. -1.
         24    2    1    2    0    0  0.54039941209E+02  0.17587487974E+02 -0.17439569423E+03  0.20034177650E+03  0.80581227764E+02 0.  0.
         25    2    1    2    0    0 -0.37573130450E+02 -0.54302251994E+02 -0.86337160178E+02  0.16571663074E+03  0.12508965494E+03 0.  0.
        -24    2    1    2    0    0 -0.16466810760E+02  0.36714764019E+02  0.23891367663E+03  0.26143436991E+03  0.98229604180E+02 0.  0.
        -13    1    3    3    0    0  0.19729187211E+02  0.38819902070E+01  0.19178025587E+01  0.20198728738E+02  0.00000000000E+00 0.  1.
         14    1    3    3    0    0  0.34310753998E+02  0.13705497767E+02 -0.17631349678E+03  0.18014304776E+03  0.00000000000E+00 0. -1.
         11    1    5    5    0    0 -0.32846327503E+02  0.25089956706E+02  0.28833031037E+02  0.50395742249E+02  0.00000000000E+00 0. -1.
        -12    1    5    5    0    0  0.16379516744E+02  0.11624807313E+02  0.21008064559E+03  0.21103862766E+03  0.00000000000E+00 0.  1.
          5    1    4    4  501    0  0.36892545683E+02 -0.53889530542E+02 -0.52107762185E+02  0.83653049609E+02  0.41800000000E+01 0.  1.
         -5    1    4    4    0  501 -0.74465676133E+02 -0.41272145162E+00 -0.34229397993E+02  0.82063581130E+02  0.41800000000E+01 0.  1.
</event>
<event>
11    1  0.1003949E-008  0.1522985E+03  0.7561462E-02  0.1094553E+00
         22   -1    0    0    0    0  0.00000000000E+00  0.00000000000E+00  0.11014437595E+03  0.11014437595E+03  0.00000000000E+00 0.  1.
         22   -1    0    0    0    0 -0.00000000000E+00 -0.00000000000E+00 -0.79736845122E+03  0.79736845122E+03  0.00000000000E+00 0. -1.
        -24    2    1    2    0    0  0.70978252947E+02 -0.32264940561E+02 -0.40148900105E+03  0.41674589115E+03  0.80029875963E+02 0.  0.
         25    2    1    2    0    0 -0.78626711581E+02  0.86456394208E+02 -0.33861410605E+03  0.37942516473E+03  0.12508826859E+03 0.  0.
         24    2    1    2    0    0  0.76484586345E+01 -0.54191453647E+02  0.52879031828E+02  0.11134177129E+03  0.81274752902E+02 0.  0.
        -13    1    5    5    0    0  0.26186758221E+02 -0.35115492345E+02  0.67892347096E+02  0.80797369407E+02  0.00000000000E+00 0.  1.
         14    1    5    5    0    0 -0.18538299586E+02 -0.19075961301E+02 -0.15013315268E+02  0.30544401884E+02  0.00000000000E+00 0. -1.
         13    1    3    3    0    0  0.84751658135E+02 -0.98081262167E+01 -0.31285821184E+03  0.32428275256E+03  0.00000000000E+00 0. -1.
        -14    1    3    3    0    0 -0.13773405188E+02 -0.22456814344E+02 -0.88630789213E+02  0.92463138588E+02  0.00000000000E+00 0.  1.
          5    1    4    4  501    0  0.21219804996E+02  0.37802146371E+02 -0.34264807170E+02  0.55415086436E+02  0.41800000000E+01 0. -1.
         -5    1    4    4    0  501 -0.99846516577E+02  0.48654247837E+02 -0.30434929888E+03  0.32401007829E+03  0.41800000000E+01 0. -1.
</event>
<event>
11    1  0.1003949E-008  0.1467938E+03  0.7561462E-02  0.1100201E+00
         22   -1    0    0    0    0  0.00000000000E+00  0.00000000000E+00  0.42564228114E+03  0.42564228114E+03  0.00000000000E+00 0. -1.
         22   -1    0    0    0    0 -0.00000000000E+00 -0.00000000000E+00 -0.12608862082E+04  0.12608862082E+04  0.00000000000E+00 0. -1.
        -24    2    1    2    0    0 -0.20421020987E+02 -0.74248866689E+02 -0.11943547662E+04  0.11995800287E+04  0.81111191465E+02 0.  0.
         25    2    1    2    0    0  0.71763799933E+02  0.51445993046E+02  0.47569140410E+02  0.16033645614E+03  0.12509285698E+03 0.  0.
         24    2    1    2    0    0 -0.51342778946E+02  0.22802873643E+02  0.31154169878E+03  0.32661200446E+03  0.80381088433E+02 0.  0.
        -13    1    5    5    0    0  0.97135647888E+01  0.14258899326E+02  0.12561383913E+02  0.21341460041E+02  0.00000000000E+00 0.  1.
         14    1    5    5    0    0 -0.61056343735E+02  0.85439743175E+01  0.29898031487E+03  0.30527054442E+03  0.00000000000E+00 0. -1.
         11    1    3    3    0    0 -0.31322918877E+02 -0.72957984645E+02 -0.11718876811E+04  0.11745742760E+04  0.00000000000E+00 0. -1.
        -12    1    3    3    0    0  0.10901897890E+02 -0.12908820436E+01 -0.22467085172E+02  0.25005752742E+02  0.00000000000E+00 0.  1.
          5    1    4    4  501    0  0.10406548327E+03  0.32283802504E+02  0.14268468479E+02  0.10996786033E+03  0.41800000000E+01 0.  1.
         -5    1    4    4    0  501 -0.32301683340E+02  0.19162190542E+02  0.33300671931E+02  0.50368595811E+02  0.41800000000E+01 0.  1.
</event>
<event>
11    1  0.1003949E-008  0.1619310E+03  0.7561462E-02  0.1085275E+00
         22   -1    0    0    0    0  0.00000000000E+00  0.00000000000E+00  0.24693633138E+03  0.24693633138E+03  0.00000000000E+00 0. -1.
         22   -1    0    0    0    0 -0.00000000000E+00 -0.00000000000E+00 -0.54136315507E+03  0.54136315507E+03  0.00000000000E+00 0. -1.
        -24    2    1    2    0    0  0.94160804438E+02  0.42574584628E+02 -0.47033064837E+03  0.48877570233E+03  0.83737184340E+02 0.  0.
         25    2    1    2    0    0 -0.81296939273E+02 -0.51248120307E+02  0.93590983109E+02  0.18341708139E+03  0.12508793489E+03 0.  0.
         24    2    1    2    0    0 -0.12863865165E+02  0.86735356789E+01  0.82312841573E+02  0.11610670274E+03  0.80403067629E+02 0.  0.
        -11    1    5    5    0    0 -0.36125513133E+02  0.25301853029E+02  0.21843471188E+02  0.49217615742E+02  0.00000000000E+00 0.  1.
         12    1    5    5    0    0  0.23261647968E+02 -0.16628317350E+02  0.60469370385E+02  0.66889086993E+02  0.00000000000E+00 0. -1.
         13    1    3    3    0    0  0.32315173134E+02  0.62305299752E+00 -0.31227506268E+03  0.31394326459E+03  0.00000000000E+00 0. -1.
        -14    1    3    3    0    0  0.61845631304E+02  0.41951531630E+02 -0.15805558569E+03  0.17483243774E+03  0.00000000000E+00 0.  1.
          5    1    4    4  501    0 -0.43750814618E+02 -0.82551829457E+02  0.21081894582E+02  0.95868957466E+02  0.41800000000E+01 0.  1.
         -5    1    4    4    0  501 -0.37546124654E+02  0.31303709150E+02  0.72509088527E+02  0.87548123921E+02  0.41800000000E+01 0.  1.
</event>
<event>
11    1  0.1003949E-008  0.1717633E+03  0.7561462E-02  0.1076507E+00
         22   -1    0    0    0    0  0.00000000000E+00  0.00000000000E+00  0.17289933953E+04  0.17289933953E+04  0.00000000000E+00 0. -1.
         22   -1    0    0    0    0 -0.00000000000E+00 -0.00000000000E+00 -0.23181460262E+03  0.23181460262E+03  0.00000000000E+00 0.  1.
        -24    2    1    2    0    0  0.85225264269E+02 -0.51776144315E+02 -0.95305333335E+02  0.16269893338E+03  0.86277004887E+02 0.  0.
         25    2    1    2    0    0 -0.17108580597E+03  0.71721175472E+02  0.23950783206E+02  0.22502512433E+03  0.12509351122E+03 0.  0.
         24    2    1    2    0    0  0.85860541701E+02 -0.19945031157E+02  0.15685333428E+04  0.15730839402E+04  0.80786128262E+02 0.  0.
        -13    1    5    5    0    0 -0.10297262375E+01  0.22602229927E+02  0.26380225209E+03  0.26477074865E+03  0.00000000000E+00 0.  1.
         14    1    5    5    0    0  0.86890267939E+02 -0.42547261084E+02  0.13047310907E+04  0.13083131916E+04  0.00000000000E+00 0. -1.
         11    1    3    3    0    0  0.94173042543E+02 -0.18754787141E+02 -0.80971873486E+02  0.12560552646E+03  0.00000000000E+00 0. -1.
        -12    1    3    3    0    0 -0.89477782742E+01 -0.33021357173E+02 -0.14333459849E+02  0.37093406919E+02  0.00000000000E+00 0.  1.
          5    1    4    4  501    0 -0.13974878746E+02 -0.16817406594E+01  0.47732438233E+02  0.49939799231E+02  0.41800000000E+01 0.  1.
         -5    1    4    4    0  501 -0.15711092722E+03  0.73402916131E+02 -0.23781655027E+02  0.17508532510E+03  0.41800000000E+01 0.  1.
</event>
<event>
11    1  0.1003949E-008  0.1283930E+03  0.7561462E-02  0.1121259E+00
         22   -1    0    0    0    0  0.00000000000E+00  0.00000000000E+00  0.48486591337E+03  0.48486591337E+03  0.00000000000E+00 0.  1.
         22   -1    0    0    0    0 -0.00000000000E+00 -0.00000000000E+00 -0.18610235008E+04  0.18610235008E+04  0.00000000000E+00 0. -1.
         24    2    1    2    0    0 -0.11313067691E+02  0.34099217298E+02 -0.86737460902E+03  0.87196270675E+03  0.81789409225E+02 0.  0.
         25    2    1    2    0    0 -0.16979813694E+02 -0.19622715176E+02 -0.98339764677E+03  0.99166052725E+03  0.12508518940E+03 0.  0.
        -24    2    1    2    0    0  0.28292881384E+02 -0.14476502122E+02  0.47461466839E+03  0.48226618013E+03  0.79445130730E+02 0.  0.
        -13    1    3    3    0    0 -0.22297157034E+02  0.35544774642E+02 -0.19350211278E+03  0.19799914613E+03  0.00000000000E+00 0.  1.
         14    1    3    3    0    0  0.10984089343E+02 -0.14455573443E+01 -0.67387249624E+03  0.67396356062E+03  0.00000000000E+00 0. -1.
         11    1    5    5    0    0 -0.27013791802E+02  0.34411565200E+01  0.16706468740E+03  0.16926959645E+03  0.00000000000E+00 0. -1.
        -12    1    5    5    0    0  0.55306673187E+02 -0.17917658642E+02  0.30754998100E+03  0.31299658369E+03  0.00000000000E+00 0.  1.
          5    1    4    4  501    0 -0.64405783439E+02 -0.38293948430E+02 -0.50666276762E+03  0.51219055431E+03  0.41800000000E+01 0. -1.
         -5    1    4    4    0  501  0.47425969745E+02  0.18671233254E+02 -0.47673487915E+03  0.47946997295E+03  0.41800000000E+01 0. -1.
</event>
<event>
11    1  0.1003949E-008  0.1254907E+04  0.7561462E-02  0.8468378E-01
         22   -1    0    0    0    0  0.00000000000E+00  0.00000000000E+00  0.66063841673E+03  0.66063841673E+03  0.00000000000E+00 0. -1.
         22   -1    0    0    0    0 -0.00000000000E+00 -0.00000000000E+00 -0.59593558422E+03  0.59593558422E+03  0.00000000000E+00 0. -1.
         24    2    1    2    0    0  0.36829347012E+03  0.51989070263E+01  0.12496459933E+03  0.39735562518E+03  0.81291038893E+02 0.  0.
         25    2    1    2    0    0 -0.52605984255E+03  0.74605523763E+01 -0.25308507304E+03  0.59707154726E+03  0.12509100914E+03 0.  0.
        -24    2    1    2    0    0  0.15776637243E+03 -0.12659459403E+02  0.19282330623E+03  0.26214682852E+03  0.80558314876E+02 0.  0.
        -13    1    3    3    0    0  0.14107351312E+03  0.38185921876E+02  0.65636209029E+02  0.16021239861E+03  0.00000000000E+00 0.  1.
         14    1    3    3    0    0  0.22721995701E+03 -0.32987014850E+02  0.59328390298E+02  0.23714322657E+03  0.00000000000E+00 0. -1.
         13    1    5    5    0    0  0.37096255937E+02  0.31848136387E+02  0.49490428947E+02  0.69568229482E+02  0.00000000000E+00 0. -1.
        -14    1    5    5    0    0  0.12067011649E+03 -0.44507595790E+02  0.14333287728E+03  0.19257859903E+03  0.00000000000E+00 0.  1.
          5    1    4    4  501    0 -0.28827532777E+03  0.49642097574E+02 -0.18496452464E+03  0.34611609357E+03  0.41800000000E+01 0. -1.
         -5    1    4    4    0  501 -0.23778451478E+03 -0.42181545198E+02 -0.68120548406E+02  0.25095545369E+03  0.41800000000E+01 0. -1.
</event>
<event>
11    1  0.1003949E-008  0.3672484E+03  0.7561462E-02  0.9751664E-01
         22   -1    0    0    0    0  0.00000000000E+00  0.00000000000E+00  0.33355037315E+04  0.33355037315E+04  0.00000000000E+00 0. -1.
         22   -1    0    0    0    0 -0.00000000000E+00 -0.00000000000E+00 -0.81493961390E+03  0.81493961390E+03  0.00000000000E+00 0. -1.
        -24    2    1    2    0    0  0.26316529891E+02  0.15886960824E+02 -0.51121153991E+03  0.51770700835E+03  0.75751915397E+02 0.  0.
         25    2    1    2    0    0 -0.32898113648E+03  0.14924162800E+03 -0.16502485213E+03  0.41639465270E+03  0.12509857426E+03 0.  0.
         24    2    1    2    0    0  0.30266460659E+03 -0.16512858883E+03  0.31968005097E+04  0.32163416844E+04  0.80293319152E+02 0.  0.
        -13    1    5    5    0    0  0.52327495267E+02 -0.30779590096E+02  0.33351418004E+03  0.33899448110E+03  0.00000000000E+00 0.  1.
         14    1    5    5    0    0  0.25033711132E+03 -0.13434899873E+03  0.28632863296E+04  0.28773472033E+04  0.00000000000E+00 0. -1.
         11    1    3    3    0    0  0.13564957785E+02 -0.80234615354E+01 -0.45532122562E+03  0.45559390087E+03  0.00000000000E+00 0. -1.
        -12    1    3    3    0    0  0.12751572106E+02  0.23910422359E+02 -0.55890314293E+02  0.62113107476E+02  0.00000000000E+00 0.  1.
          5    1    4    4  501    0 -0.28349592740E+02  0.14424879287E+02  0.20674386436E+02  0.38166467029E+02  0.41800000000E+01 0.  1.
         -5    1    4    4    0  501 -0.30063154374E+03  0.13481674871E+03 -0.18569923857E+03  0.37822818567E+03  0.41800000000E+01 0.  1.
</event>
<event>
11    1  0.1003949E-008  0.1818657E+03  0.7561462E-02  0.1068144E+00
         22   -1    0    0    0    0  0.00000000000E+00  0.00000000000E+00  0.52028173297E+03  0.52028173297E+03  0.00000000000E+00 0. -1.
         22   -1    0    0    0    0 -0.00000000000E+00 -0.00000000000E+00 -0.56468951869E+03  0.56468951869E+03  0.00000000000E+00 0. -1.
         24    2    1    2    0    0  0.93287766959E+01  0.22237193450E+01 -0.49149056592E+03  0.49772016191E+03  0.77912849892E+02 0.  0.
         25    2    1    2    0    0  0.42464456121E+02  0.12062370565E+03  0.94812416432E+02  0.20245943316E+03  0.12508844618E+03 0.  0.
        -24    2    1    2    0    0 -0.51793232817E+02 -0.12284742500E+03  0.35227036377E+03  0.38479165659E+03  0.78715824295E+02 0.  0.
        -11    1    3    3    0    0 -0.15298966810E+02  0.12617351727E+02 -0.33350559448E+02  0.38800976348E+02  0.00000000000E+00 0.  1.
         12    1    3    3    0    0  0.24627743506E+02 -0.10393632382E+02 -0.45814000647E+03  0.45891918556E+03  0.00000000000E+00 0. -1.
         11    1    5    5    0    0 -0.57052153298E+02 -0.65709888370E+02  0.13947371015E+03  0.16439480968E+03  0.00000000000E+00 0. -1.
        -12    1    5    5    0    0  0.52589204808E+01 -0.57137536626E+02  0.21279665362E+03  0.22039684691E+03  0.00000000000E+00 0.  1.
          5    1    4    4  501    0 -0.34988551952E+02  0.25881649502E+02 -0.56391798476E+01  0.44083231483E+02  0.41800000000E+01 0.  1.
         -5    1    4    4    0  501  0.77453008073E+02  0.94742056149E+02  0.10045159628E+03  0.15837620168E+03  0.41800000000E+01 0.  1.
</event>
<event>
11    1  0.1003949E-008  0.1294662E+03  0.7561462E-02  0.1119927E+00
         22   -1    0    0    0    0  0.00000000000E+00  0.00000000000E+00  0.36278797927E+03  0.36278797927E+03  0.00000000000E+00 0. -1.
         22   -1    0    0    0    0 -0.00000000000E+00 -0.00000000000E+00 -0.54272224543E+03  0.54272224543E+03  0.00000000000E+00 0. -1.
         24    2    1    2    0    0 -0.98075058203E+01 -0.11402770522E+02 -0.50376032022E+03  0.51028903640E+03  0.79963929952E+02 0.  0.
         25    2    1    2    0    0  0.79451199856E+01  0.41713137084E+02  0.14057397518E+03  0.19290548878E+03  0.12509346253E+03 0.  0.
        -24    2    1    2    0    0  0.18623858347E+01 -0.30310366562E+02  0.18325207889E+03  0.20231569952E+03  0.80175626295E+02 0.  0.
        -11    1    3    3    0    0  0.35369148837E+02 -0.41772111861E+01 -0.21982847861E+03  0.22269482659E+03  0.00000000000E+00 0.  1.
         12    1    3    3    0    0 -0.45176654657E+02 -0.72255593357E+01 -0.28393184161E+03  0.28759420980E+03  0.00000000000E+00 0. -1.
         13    1    5    5    0    0  0.35194385156E+02 -0.13562344628E+02  0.14097924183E+03  0.14593741318E+03  0.00000000000E+00 0. -1.
        -14    1    5    5    0    0 -0.33331999322E+02 -0.16748021934E+02  0.42272837061E+02  0.56378286340E+02  0.00000000000E+00 0.  1.
          5    1    4    4  501    0  0.80991437039E+01  0.49071368208E+02  0.16218768871E+03  0.16969358879E+03  0.41800000000E+01 0.  1.
         -5    1    4    4    0  501 -0.15402371836E+00 -0.73582311242E+01 -0.21613713535E+02  0.23211899994E+02  0.41800000000E+01 0.  1.
</event>
<event>
11    1  0.1003949E-008  0.1903152E+03  0.7561462E-02  0.1061592E+00
         22   -1    0    0    0    0  0.00000000000E+00  0.00000000000E+00  0.14872531615E+04  0.14872531615E+04  0.00000000000E+00 0. -1.
         22   -1    0    0    0    0 -0.00000000000E+00 -0.00000000000E+00 -0.24276333211E+03  0.24276333211E+03  0.00000000000E+00 0. -1.
         24    2    1    2    0    0  0.38117897954E+02  0.21155437128E+02 -0.20125549056E+03  0.22086078869E+03  0.79844779657E+02 0.  0.
         25    2    1    2    0    0 -0.12540519810E+03  0.90707581835E+02  0.36106953491E+03  0.41227769432E+03  0.12508940434E+03 0.  0.
        -24    2    1    2    0    0  0.87287300144E+02 -0.11186301896E+03  0.10846757850E+04  0.10968780105E+04  0.80544420638E+02 0.  0.
        -11    1    3    3    0    0 -0.93774406704E+00  0.41883030265E+02 -0.13380520382E+03  0.14021019991E+03  0.00000000000E+00 0.  1.
         12    1    3    3    0    0  0.39055642021E+02 -0.20727593137E+02 -0.67450286735E+02  0.80650588787E+02  0.00000000000E+00 0. -1.
         13    1    5    5    0    0  0.99622198935E+02 -0.10077654124E+03  0.10311581803E+04  0.10408495024E+04  0.00000000000E+00 0. -1.
        -14    1    5    5    0    0 -0.12334898791E+02 -0.11086477726E+02  0.53517604680E+02  0.56028508165E+02  0.00000000000E+00 0.  1.
          5    1    4    4  501    0 -0.10232983681E+03  0.11843056273E+03  0.24586623138E+03  0.29148734075E+03  0.41800000000E+01 0.  1.
         -5    1    4    4    0  501 -0.23075361292E+02 -0.27722980895E+02  0.11520330354E+03  0.12079035357E+03  0.41800000000E+01 0.  1.
</event>
<event>
11    1  0.1003949E-008  0.1358970E+03  0.7561462E-02  0.1112229E+00
         22   -1    0    0    0    0  0.00000000000E+00  0.00000000000E+00  0.13943404191E+04  0.13943404191E+04  0.00000000000E+00 0. -1.
         22   -1    0    0    0    0 -0.00000000000E+00 -0.00000000000E+00 -0.65982346317E+02  0.65982346317E+02  0.00000000000E+00 0.  1.
        -24    2    1    2    0    0 -0.17024689035E+02  0.50046703923E+01  0.84708145373E+01  0.82064871958E+02  0.79674348119E+02 0.  0.
         25    2    1    2    0    0  0.33812886700E+02 -0.54552994673E+02  0.15623157648E+03  0.21018110988E+03  0.12509377653E+03 0.  0.
         24    2    1    2    0    0 -0.16788197665E+02  0.49548324281E+02  0.11636556817E+04  0.11680767836E+04  0.87016932893E+02 0.  0.
        -11    1    5    5    0    0 -0.49911243302E+01  0.66175009982E+02  0.53635809856E+03  0.54044801153E+03  0.00000000000E+00 0.  1.
         12    1    5    5    0    0 -0.11797073335E+02 -0.16626685701E+02  0.62729758318E+03  0.62762877203E+03  0.00000000000E+00 0. -1.
         11    1    3    3    0    0 -0.28881768201E+02 -0.24083025577E+02  0.26353107659E+02  0.45919875203E+02  0.00000000000E+00 0. -1.
        -12    1    3    3    0    0  0.11857079166E+02  0.29087695969E+02 -0.17882293122E+02  0.36144996755E+02  0.00000000000E+00 0.  1.
          5    1    4    4  501    0  0.78693585146E+02 -0.26406632715E+02  0.11958299431E+03  0.14562814124E+03  0.41800000000E+01 0.  1.
         -5    1    4    4    0  501 -0.44880698446E+02 -0.28146361958E+02  0.36648582173E+02  0.64552968637E+02  0.41800000000E+01 0.  1.
</event>
<event>
11    1  0.1003949E-008  0.1490924E+03  0.7561462E-02  0.1097810E+00
         22   -1    0    0    0    0  0.00000000000E+00  0.00000000000E+00  0.11248065271E+03  0.11248065271E+03  0.00000000000E+00 0. -1.
         22   -1    0    0    0    0 -0.00000000000E+00 -0.00000000000E+00 -0.17702357146E+04  0.17702357146E+04  0.00000000000E+00 0.  1.
        -24    2    1    2    0    0  0.80477493463E+02  0.25431672245E+02 -0.15758333406E+04  0.15809461306E+04  0.94955535110E+02 0.  0.
         25    2    1    2    0    0 -0.53447309756E+02  0.41856522783E+02 -0.12146474354E+03  0.18708761741E+03  0.12505802351E+03 0.  0.
         24    2    1    2    0    0 -0.27030183706E+02 -0.67288195028E+02  0.39543022172E+02  0.11468261937E+03  0.79562054792E+02 0.  0.
        -11    1    5    5    0    0 -0.46748745598E+02 -0.11099882578E+02  0.19455585402E+02  0.51837943744E+02  0.00000000000E+00 0.  1.
         12    1    5    5    0    0  0.19718561892E+02 -0.56188312450E+02  0.20087436771E+02  0.62844675631E+02  0.00000000000E+00 0. -1.
         11    1    3    3    0    0  0.11421277156E+02  0.57305953635E+01 -0.21907459432E+02  0.25361823157E+02  0.00000000000E+00 0. -1.
        -12    1    3    3    0    0  0.69056216307E+02  0.19701076882E+02 -0.15539258811E+04  0.15555843074E+04  0.00000000000E+00 0.  1.
          5    1    4    4  501    0  0.32306434942E+02  0.12549016740E+02  0.70713522525E+00  0.34916414478E+02  0.41800000000E+01 0. -1.
         -5    1    4    4    0  501 -0.85753744698E+02  0.29307506044E+02 -0.12217187877E+03  0.15217120293E+03  0.41800000000E+01 0. -1.
</event>
<event>
11    1  0.1003949E-008  0.1547254E+03  0.7561462E-02  0.1092146E+00
         22   -1    0    0    0    0  0.00000000000E+00  0.00000000000E+00  0.16996918648E+04  0.16996918648E+04  0.00000000000E+00 0.  1.
         22   -1    0    0    0    0 -0.00000000000E+00 -0.00000000000E+00 -0.59620309968E+02  0.59620309968E+02  0.00000000000E+00 0. -1.
        -24    2    1    2    0    0 -0.10540138347E+02 -0.85148471680E+02  0.34258821873E+02  0.12239898312E+03  0.80290020844E+02 0.  0.
         25    2    1    2    0    0  0.13788043421E+02  0.13282309113E+03  0.61825140382E+03  0.64475904816E+03  0.12508936077E+03 0.  0.
         24    2    1    2    0    0 -0.32479050733E+01 -0.47674619454E+02  0.98756132915E+03  0.99215414349E+03  0.82516952195E+02 0.  0.
        -11    1    5    5    0    0  0.24225710903E+02 -0.57691477513E+02  0.78543313412E+03  0.78792156959E+03  0.00000000000E+00 0.  1.
         12    1    5    5    0    0 -0.27473615976E+02  0.10016858059E+02  0.20212819502E+03  0.20423257390E+03  0.00000000000E+00 0. -1.
         11    1    3    3    0    0 -0.81683570213E+00 -0.24410458854E+02 -0.26430823991E+02  0.35987861548E+02  0.00000000000E+00 0. -1.
        -12    1    3    3    0    0 -0.97233026452E+01 -0.60738012826E+02  0.60689645863E+02  0.86411121573E+02  0.00000000000E+00 0.  1.
          5    1    4    4  501    0  0.53724406268E+02  0.13165193949E+03  0.50177869142E+03  0.52155332667E+03  0.41800000000E+01 0.  1.
         -5    1    4    4    0  501 -0.39936362847E+02  0.11711516483E+01  0.11647271241E+03  0.12320572149E+03  0.41800000000E+01 0.  1.
</event>
<event>
11    1  0.1003949E-008  0.1807188E+03  0.7561462E-02  0.1069063E+00
         22   -1    0    0    0    0  0.00000000000E+00  0.00000000000E+00  0.63732445030E+03  0.63732445030E+03  0.00000000000E+00 0. -1.
         22   -1    0    0    0    0 -0.00000000000E+00 -0.00000000000E+00 -0.40906421985E+03  0.40906421985E+03  0.00000000000E+00 0.  1.
         24    2    1    2    0    0 -0.32510042206E+02 -0.15481938625E+02 -0.35580001351E+03  0.36669010667E+03  0.81064119393E+02 0.  0.
         25    2    1    2    0    0 -0.10771663213E+03  0.29934292774E+02  0.19454121044E+03  0.25689068483E+03  0.12509039400E+03 0.  0.
        -24    2    1    2    0    0  0.14022667434E+03 -0.14452354149E+02  0.38951903352E+03  0.42280787865E+03  0.84670148451E+02 0.  0.
        -13    1    3    3    0    0  0.16310815573E+02 -0.27257860862E+02 -0.21213603916E+03  0.21450112539E+03  0.00000000000E+00 0.  1.
         14    1    3    3    0    0 -0.48820857779E+02  0.11775922237E+02 -0.14366397435E+03  0.15218898128E+03  0.00000000000E+00 0. -1.
         11    1    5    5    0    0  0.13936708441E+03 -0.22273389404E+02  0.39017090519E+03  0.41491279005E+03  0.00000000000E+00 0. -1.
        -12    1    5    5    0    0  0.85958992741E+00  0.78210352542E+01 -0.65187167077E+00  0.78950885977E+01  0.00000000000E+00 0.  1.
          5    1    4    4  501    0 -0.10777118381E+03 -0.25548546733E+02  0.14405236148E+03  0.18175783766E+03  0.41800000000E+01 0. -1.
         -5    1    4    4    0  501  0.54551680516E-01  0.55482839507E+02  0.50488848960E+02  0.75132847177E+02  0.41800000000E+01 0. -1.
</event>
<event>
11    1  0.1003949E-008  0.1519375E+03  0.7561462E-02  0.1094915E+00
         22   -1    0    0    0    0  0.00000000000E+00  0.00000000000E+00  0.99472905114E+03  0.99472905114E+03  0.00000000000E+00 0.  1.
         22   -1    0    0    0    0 -0.00000000000E+00 -0.00000000000E+00 -0.11313961786E+03  0.11313961786E+03  0.00000000000E+00 0.  1.
        -24    2    1    2    0    0 -0.12150069621E+02 -0.93196461255E+02  0.51162344429E+01  0.12405420059E+03  0.80808812925E+02 0.  0.
         25    2    1    2    0    0 -0.49993638986E+02  0.72194630498E+02  0.65727108465E+02  0.16635152412E+03  0.12506537562E+03 0.  0.
         24    2    1    2    0    0  0.62143708607E+02  0.21001830757E+02  0.81074609038E+03  0.81746294429E+03  0.81446453617E+02 0.  0.
        -11    1    5    5    0    0  0.68523587245E+02  0.26154859844E+02  0.80245895896E+03  0.80580390885E+03  0.00000000000E+00 0.  1.
         12    1    5    5    0    0 -0.63798786381E+01 -0.51530290870E+01  0.82871314164E+01  0.11659035437E+02  0.00000000000E+00 0. -1.
         11    1    3    3    0    0 -0.27869409550E+02 -0.49351334421E+01  0.17912981154E+02  0.33495289588E+02  0.00000000000E+00 0. -1.
        -12    1    3    3    0    0  0.15719339929E+02 -0.88261327813E+02 -0.12796746711E+02  0.90558911000E+02  0.00000000000E+00 0.  1.
          5    1    4    4  501    0 -0.30384598875E+01  0.71061834532E+02 -0.15046769472E+02  0.72820973882E+02  0.41800000000E+01 0. -1.
         -5    1    4    4    0  501 -0.46955179098E+02  0.11327959655E+01  0.80773877937E+02  0.93530550238E+02  0.41800000000E+01 0. -1.
</event>
<event>
11    1  0.1003949E-008  0.1730262E+03  0.7561462E-02  0.1075428E+00
         22   -1    0    0    0    0  0.00000000000E+00  0.00000000000E+00  0.93454990942E+03  0.93454990942E+03  0.00000000000E+00 0.  1.
         22   -1    0    0    0    0 -0.00000000000E+00 -0.00000000000E+00 -0.84232813383E+03  0.84232813383E+03  0.00000000000E+00 0.  1.
        -24    2    1    2    0    0 -0.12009906476E+03  0.24449307097E+01 -0.81046995085E+03  0.82366579625E+03  0.84463244297E+02 0.  0.
         25    2    1    2    0    0  0.94869194723E+02  0.15920199868E+02  0.25435495090E+03  0.29933427502E+03  0.12510375808E+03 0.  0.
         24    2    1    2    0    0  0.25229870041E+02 -0.18365130577E+02  0.64833677555E+03  0.65387797198E+03  0.79006350089E+02 0.  0.
        -11    1    5    5    0    0 -0.84551158887E+01 -0.37171454051E+02  0.18207569722E+03  0.18602356168E+03  0.00000000000E+00 0.  1.
         12    1    5    5    0    0  0.33684985930E+02  0.18806323474E+02  0.46626107833E+03  0.46785441030E+03  0.00000000000E+00 0. -1.
         13    1    3    3    0    0 -0.11112287630E+01  0.11611839541E+02 -0.13635736275E+02  0.17944440662E+02  0.00000000000E+00 0. -1.
        -14    1    3    3    0    0 -0.11898783600E+03 -0.91669088311E+01 -0.79683421457E+03  0.80572135559E+03  0.00000000000E+00 0.  1.
          5    1    4    4  501    0  0.11626586055E+03  0.41758898731E+02  0.19064903174E+03  0.22721373562E+03  0.41800000000E+01 0.  1.
         -5    1    4    4    0  501 -0.21396665828E+02 -0.25838698864E+02  0.63705919162E+02  0.72120539403E+02  0.41800000000E+01 0.  1.
</event>
<event>
11    1  0.1003949E-008  0.1573766E+03  0.7561462E-02  0.1089571E+00
         22   -1    0    0    0    0  0.00000000000E+00  0.00000000000E+00  0.17442547793E+04  0.17442547793E+04  0.00000000000E+00 0.  1.
         22   -1    0    0    0    0 -0.00000000000E+00 -0.00000000000E+00 -0.79619781044E+03  0.79619781044E+03  0.00000000000E+00 0. -1.
         24    2    1    2    0    0 -0.88412009886E+02 -0.35658316978E+02 -0.77065228218E+03  0.78068483023E+03  0.80471517087E+02 0.  0.
         25    2    1    2    0    0  0.11205097913E+03  0.86249002956E+01  0.34988436358E+03  0.38819793519E+03  0.12509499663E+03 0.  0.
        -24    2    1    2    0    0 -0.23638969243E+02  0.27033416682E+02  0.13688248875E+04  0.13715698243E+04  0.78946842816E+02 0.  0.
        -13    1    3    3    0    0 -0.38587861458E+02 -0.57680288665E+02 -0.38505232993E+03  0.39125609968E+03  0.00000000000E+00 0.  1.
         14    1    3    3    0    0 -0.49824148428E+02  0.22021971687E+02 -0.38559995224E+03  0.38942873054E+03  0.00000000000E+00 0. -1.
         13    1    5    5    0    0 -0.10820606211E+02  0.49791172366E+01  0.27096157819E+02  0.29598629965E+02  0.00000000000E+00 0. -1.
        -14    1    5    5    0    0 -0.12818363031E+02  0.22054299446E+02  0.13417287297E+04  0.13419711944E+04  0.00000000000E+00 0.  1.
          5    1    4    4  501    0  0.54807008146E+02  0.48545163811E+02  0.76326414230E+02  0.10584722472E+03  0.41800000000E+01 0.  1.
         -5    1    4    4    0  501  0.57243970983E+02 -0.39920263516E+02  0.27355794935E+03  0.28235071047E+03  0.41800000000E+01 0.  1.
</event>
<event>
11    1  0.1003949E-008  0.1629485E+03  0.7561462E-02  0.1084336E+00
         22   -1    0    0    0    0  0.00000000000E+00  0.00000000000E+00  0.69926330605E+03  0.69926330605E+03  0.00000000000E+00 0. -1.
         22   -1    0    0    0    0 -0.00000000000E+00 -0.00000000000E+00 -0.14149906339E+04  0.14149906339E+04  0.00000000000E+00 0.  1.
         24    2    1    2    0    0  0.25394879737E+02 -0.25410979736E+02 -0.12901166216E+04  0.12931589379E+04  0.81046427286E+02 0.  0.
         25    2    1    2    0    0  0.79559071993E+02  0.37234210769E+02 -0.66849471662E+02  0.16681827746E+03  0.12507379201E+03 0.  0.
        -24    2    1    2    0    0 -0.10495395173E+03 -0.11823231033E+02  0.64123876543E+03  0.65427672463E+03  0.75734782764E+02 0.  0.
        -11    1    3    3    0    0  0.12861164279E+02 -0.53198536753E+02 -0.98614969470E+03  0.98766730948E+03  0.00000000000E+00 0.  1.
         12    1    3    3    0    0  0.12533715458E+02  0.27787557016E+02 -0.30396692691E+03  0.30549162837E+03  0.00000000000E+00 0. -1.
         13    1    5    5    0    0 -0.40522928723E+02 -0.27879458246E+02  0.43108728262E+03  0.43388433618E+03  0.00000000000E+00 0. -1.
        -14    1    5    5    0    0 -0.64431023006E+02  0.16056227213E+02  0.21015148281E+03  0.22039238845E+03  0.00000000000E+00 0.  1.
          5    1    4    4  501    0  0.29284103005E+02  0.64535247455E+02 -0.81029829892E+02  0.10772958083E+03  0.41800000000E+01 0.  1.
         -5    1    4    4    0  501  0.50274968988E+02 -0.27301036686E+02  0.14180358229E+02  0.59088696638E+02  0.41800000000E+01 0.  1.
</event>
<event>
11    1  0.1003949E-008  0.1384491E+03  0.7561462E-02  0.1109303E+00
         22   -1    0    0    0    0  0.00000000000E+00  0.00000000000E+00  0.20181001528E+04  0.20181001528E+04  0.00000000000E+00 0.  1.
         22   -1    0    0    0    0 -0.00000000000E+00 -0.00000000000E+00 -0.79246834350E+03  0.79246834350E+03  0.00000000000E+00 0. -1.
         24    2    1    2    0    0  0.20324148896E+02  0.55083404930E+02 -0.76222811916E+03  0.76860472826E+03  0.79462381933E+02 0.  0.
         25    2    1    2    0    0 -0.50731578765E+02 -0.10236253839E+03  0.25383206762E+03  0.30517258629E+03  0.12509119283E+03 0.  0.
        -24    2    1    2    0    0  0.30407429869E+02  0.47279133461E+02  0.17340278609E+04  0.17367911818E+04  0.80193880974E+02 0.  0.
        -11    1    3    3    0    0 -0.12523944721E+02 -0.15382383530E+02 -0.11173569357E+03  0.11348273935E+03  0.00000000000E+00 0.  1.
         12    1    3    3    0    0  0.32848093617E+02  0.70465788459E+02 -0.65049242559E+03  0.65512198891E+03  0.00000000000E+00 0. -1.
         13    1    5    5    0    0 -0.12204074073E+01  0.64641290716E+01  0.98761249258E+01  0.11866431749E+02  0.00000000000E+00 0. -1.
        -14    1    5    5    0    0  0.31627837276E+02  0.40815004389E+02  0.17241517360E+04  0.17249247500E+04  0.00000000000E+00 0.  1.
          5    1    4    4  501    0 -0.46805592804E+02 -0.53861680973E+02  0.32508692916E+02  0.78524720375E+02  0.41800000000E+01 0.  1.
         -5    1    4    4    0  501 -0.39259859613E+01 -0.48500857418E+02  0.22132337470E+03  0.22664786592E+03  0.41800000000E+01 0.  1.
</event>
<event>
11    1  0.1003949E-008  0.1416087E+03  0.7561462E-02  0.1105775E+00
         22   -1    0    0    0    0  0.00000000000E+00  0.00000000000E+00  0.21537394795E+03  0.21537394795E+03  0.00000000000E+00 0.  1.
         22   -1    0    0    0    0 -0.00000000000E+00 -0.00000000000E+00 -0.14630477045E+04  0.14630477045E+04  0.00000000000E+00 0.  1.
         24    2    1    2    0    0  0.45025764971E+02 -0.97906224156E+01 -0.10183769310E+04  0.10224173093E+04  0.78245799082E+02 0.  0.
         25    2    1    2    0    0 -0.10406261203E+03 -0.17953066630E+02 -0.41300493255E+03  0.44426242335E+03  0.12507872190E+03 0.  0.
        -24    2    1    2    0    0  0.59036847062E+02  0.27743689045E+02  0.18370810696E+03  0.21174191977E+03  0.82649322017E+02 0.  0.
        -13    1    3    3    0    0  0.50048483248E+02 -0.29973648968E+00 -0.31442214318E+03  0.31838062855E+03  0.00000000000E+00 0.  1.
         14    1    3    3    0    0 -0.50227182767E+01 -0.94908859259E+01 -0.70395478782E+03  0.70403668079E+03  0.00000000000E+00 0. -1.
         13    1    5    5    0    0  0.11069354946E+00  0.89436207421E+01 -0.69338193614E+01  0.11317175265E+02  0.00000000000E+00 0. -1.
        -14    1    5    5    0    0  0.58926153512E+02  0.18800068303E+02  0.19064192633E+03  0.20042474450E+03  0.00000000000E+00 0.  1.
          5    1    4    4  501    0 -0.11646123874E+03 -0.55285522670E+00 -0.40439342937E+03  0.42085038184E+03  0.41800000000E+01 0. -1.
         -5    1    4    4    0  501  0.12398626703E+02 -0.17400211403E+02 -0.86115031809E+01  0.23412041518E+02  0.41800000000E+01 0. -1.
</event>
<event>
11    1  0.1003949E-008  0.1496327E+03  0.7561462E-02  0.1097255E+00
         22   -1    0    0    0    0  0.00000000000E+00  0.00000000000E+00  0.99129425875E+03  0.99129425875E+03  0.00000000000E+00 0.  1.
         22   -1    0    0    0    0 -0.00000000000E+00 -0.00000000000E+00 -0.26862877085E+03  0.26862877085E+03  0.00000000000E+00 0. -1.
        -24    2    1    2    0    0  0.20432590814E+01  0.78439452338E+02 -0.19232897113E+03  0.22168158934E+03  0.77429783213E+02 0.  0.
         25    2    1    2    0    0  0.38594625093E+02 -0.11425427779E+03  0.71387688007E+02  0.18785064587E+03  0.12509227825E+03 0.  0.
         24    2    1    2    0    0 -0.40637884174E+02  0.35814825449E+02  0.84360677102E+03  0.85039079439E+03  0.92509349329E+02 0.  0.
        -13    1    5    5    0    0 -0.20013048677E+02  0.29932403779E+02  0.80815228360E+03  0.80895400635E+03  0.00000000000E+00 0.  1.
         14    1    5    5    0    0 -0.20624835497E+02  0.58824216694E+01  0.35454487425E+02  0.41436788034E+02  0.00000000000E+00 0. -1.
         11    1    3    3    0    0 -0.20186580054E+02  0.83765091771E+02 -0.16421615846E+03  0.18544820116E+03  0.00000000000E+00 0. -1.
        -12    1    3    3    0    0  0.22229839135E+02 -0.53256394326E+01 -0.28112812667E+02  0.36233388186E+02  0.00000000000E+00 0.  1.
          5    1    4    4  501    0  0.77652839283E+02 -0.34950897872E+02  0.34879253746E+02  0.92117118131E+02  0.41800000000E+01 0. -1.
         -5    1    4    4    0  501 -0.39058214191E+02 -0.79303379914E+02  0.36508434262E+02  0.95733527742E+02  0.41800000000E+01 0. -1.
</event>
<event>
11    1  0.1003949E-008  0.3473375E+03  0.7561462E-02  0.9819350E-01
         22   -1    0    0    0    0  0.00000000000E+00  0.00000000000E+00  0.62110876728E+03  0.62110876728E+03  0.00000000000E+00 0. -1.
         22   -1    0    0    0    0 -0.00000000000E+00 -0.00000000000E+00 -0.14174174760E+04  0.14174174760E+04  0.00000000000E+00 0.  1.
        -24    2    1    2    0    0  0.38048537762E+00 -0.41605761901E+02 -0.11711399019E+04  0.11745973021E+04  0.79868441820E+02 0.  0.
         25    2    1    2    0    0  0.31975035940E+03  0.81856763970E+02 -0.12744302126E+02  0.35320092303E+03  0.12509057778E+03 0.  0.
         24    2    1    2    0    0 -0.32013084478E+03 -0.40251002069E+02  0.38757549525E+03  0.51072801823E+03  0.80774025157E+02 0.  0.
        -11    1    5    5    0    0 -0.18462312093E+03 -0.56696505841E+02  0.19291334606E+03  0.27297573087E+03  0.00000000000E+00 0.  1.
         12    1    5    5    0    0 -0.13550772385E+03  0.16445503773E+02  0.19466214919E+03  0.23775228736E+03  0.00000000000E+00 0. -1.
         13    1    3    3    0    0 -0.19751008151E+01  0.90276020752E+01 -0.17037598638E+02  0.19382424766E+02  0.00000000000E+00 0. -1.
        -14    1    3    3    0    0  0.23555861927E+01 -0.50633363976E+02 -0.11541023033E+04  0.11552148773E+04  0.00000000000E+00 0.  1.
          5    1    4    4  501    0  0.70922535235E+02 -0.88647495701E+01  0.41593822090E+02  0.82801619702E+02  0.41800000000E+01 0. -1.
         -5    1    4    4    0  501  0.24882782417E+03  0.90721513540E+02 -0.54338124216E+02  0.27039930333E+03  0.41800000000E+01 0. -1.
</event>
<event>
11    1  0.1003949E-008  0.2738053E+03  0.7561462E-02  0.1011930E+00
         22   -1    0    0    0    0  0.00000000000E+00  0.00000000000E+00  0.15555818780E+04  0.15555818780E+04  0.00000000000E+00 0.  1.
         22   -1    0    0    0    0 -0.00000000000E+00 -0.00000000000E+00 -0.78794302510E+02  0.78794302510E+02  0.00000000000E+00 0. -1.
         24    2    1    2    0    0  0.23399256324E+02  0.84167721809E+02  0.13509936982E+03  0.17642792564E+03  0.72410238419E+02 0.  0.
         25    2    1    2    0    0 -0.15665280370E+03 -0.25658588053E+03  0.62514417340E+03  0.70486130232E+03  0.12509117866E+03 0.  0.
        -24    2    1    2    0    0  0.13325354737E+03  0.17241815872E+03  0.71654403227E+03  0.75308695256E+03  0.78867474779E+02 0.  0.
        -11    1    3    3    0    0  0.25329812316E+01 -0.13404200391E+02  0.17968774068E+02  0.22560262046E+02  0.00000000000E+00 0.  1.
         12    1    3    3    0    0  0.20866275092E+02  0.97571922200E+02  0.11713059575E+03  0.15386766359E+03  0.00000000000E+00 0. -1.
         13    1    5    5    0    0  0.39144721276E+01  0.33192182953E+02  0.19837195741E+03  0.20116778467E+03  0.00000000000E+00 0. -1.
        -14    1    5    5    0    0  0.12933907524E+03  0.13922597577E+03  0.51817207486E+03  0.55191916789E+03  0.00000000000E+00 0.  1.
          5    1    4    4  501    0 -0.52071884154E+02 -0.13837015828E+03  0.18254404182E+03  0.23494165537E+03  0.41800000000E+01 0. -1.
         -5    1    4    4    0  501 -0.10458091954E+03 -0.11821572225E+03  0.44260013158E+03  0.46991964696E+03  0.41800000000E+01 0. -1.
</event>
<event>
11    1  0.1003949E-008  0.4171007E+03  0.7561462E-02  0.9600607E-01
         22   -1    0    0    0    0  0.00000000000E+00  0.00000000000E+00  0.10388285512E+04  0.10388285512E+04  0.00000000000E+00 0.  1.
         22   -1    0    0    0    0 -0.00000000000E+00 -0.00000000000E+00 -0.79797800874E+03  0.79797800874E+03  0.00000000000E+00 0.  1.
         24    2    1    2    0    0  0.10394672534E+03  0.12182614734E+03 -0.51168557585E+03  0.54208890086E+03  0.79948208333E+02 0.  0.
         25    2    1    2    0    0 -0.22815849876E+03 -0.46963960731E+03  0.10854692036E+03  0.54776654009E+03  0.12509231478E+03 0.  0.
        -24    2    1    2    0    0  0.12421177342E+03  0.34781345996E+03  0.64398919796E+03  0.74695111900E+03  0.82529506820E+02 0.  0.
        -13    1    3    3    0    0  0.65116712961E+02  0.57547657528E+02 -0.15609327128E+03  0.17865337537E+03  0.00000000000E+00 0.  1.
         14    1    3    3    0    0  0.38830012379E+02  0.64278489813E+02 -0.35559230457E+03  0.36343552549E+03  0.00000000000E+00 0. -1.
         13    1    5    5    0    0  0.70128429084E+02  0.29252517621E+03  0.52359123017E+03  0.60385159733E+03  0.00000000000E+00 0. -1.
        -14    1    5    5    0    0  0.54083344336E+02  0.55288283757E+02  0.12039796779E+03  0.14309952168E+03  0.00000000000E+00 0.  1.
          5    1    4    4  501    0 -0.24088184334E+03 -0.40976558117E+03  0.10097130515E+03  0.48594708644E+03  0.41800000000E+01 0. -1.
         -5    1    4    4    0  501  0.12723344580E+02 -0.59874026140E+02  0.75756152172E+01  0.61819453649E+02  0.41800000000E+01 0. -1.
</event>
<event>
11    1  0.1003949E-008  0.6257646E+03  0.7561462E-02  0.9149474E-01
         22   -1    0    0    0    0  0.00000000000E+00  0.00000000000E+00  0.54924475553E+03  0.54924475553E+03  0.00000000000E+00 0. -1.
         22   -1    0    0    0    0 -0.00000000000E+00 -0.00000000000E+00 -0.13163543373E+04  0.13163543373E+04  0.00000000000E+00 0. -1.
         24    2    1    2    0    0  0.50419444281E+03 -0.49814202952E+02 -0.19495295095E+03  0.54879320574E+03  0.80460167827E+02 0.  0.
         25    2    1    2    0    0 -0.65952137144E+03  0.36228987928E+03 -0.58058799855E+03  0.95862013726E+03  0.12509095683E+03 0.  0.
        -24    2    1    2    0    0  0.15532692863E+03 -0.31247567633E+03  0.84313677689E+01  0.35818574980E+03  0.80364422116E+02 0.  0.
        -13    1    3    3    0    0  0.38782019147E+03 -0.70181729132E+02 -0.13745452289E+03  0.41740115223E+03  0.00000000000E+00 0.  1.
         14    1    3    3    0    0  0.11637425134E+03  0.20367526180E+02 -0.57498428060E+02  0.13139205352E+03  0.00000000000E+00 0. -1.
         11    1    5    5    0    0  0.11249232121E+03 -0.18153109717E+03 -0.28742955325E+02  0.21548600663E+03  0.00000000000E+00 0. -1.
        -12    1    5    5    0    0  0.42834607415E+02 -0.13094457915E+03  0.37174323094E+02  0.14269974316E+03  0.00000000000E+00 0.  1.
          5    1    4    4  501    0 -0.54321442055E+03  0.34863174000E+03 -0.49802736850E+03  0.81527586067E+03  0.41800000000E+01 0. -1.
         -5    1    4    4    0  501 -0.11630695089E+03  0.13658139281E+02 -0.82560630057E+02  0.14334427659E+03  0.41800000000E+01 0. -1.
</event>
<event>
11    1  0.1044703E-008  0.1996821E+03  0.7561462E-02  0.1054749E+00
         22   -1    0    0    0    0  0.00000000000E+00  0.00000000000E+00  0.12686313557E+04  0.12686313557E+04  0.00000000000E+00 0. -1.
         22   -1    0    0    0    0 -0.00000000000E+00 -0.00000000000E+00 -0.27432063198E+03  0.27432063198E+03  0.00000000000E+00 0.  1.
         24    2    1    2    0    0 -0.35385918286E+02  0.17485917211E+02 -0.16462430136E+03  0.18786926516E+03  0.81460295112E+02 0.  0.
         25    2    1    2    0    0 -0.10750013944E+03  0.50793882141E+02 -0.98035333258E+01  0.17285548341E+03  0.12508641188E+03 0.  0.
        -24    2    1    2    0    0  0.14288605773E+03 -0.68279799352E+02  0.11687385584E+04  0.11822272391E+04  0.81442436623E+02 0.  0.
        -13    1    3    3    0    0  0.49985007922E+01  0.10922596618E+00 -0.13445776724E+03  0.13455068975E+03  0.00000000000E+00 0.  1.
         14    1    3    3    0    0 -0.40384419078E+02  0.17376691245E+02 -0.30166534114E+02  0.53318575406E+02  0.00000000000E+00 0. -1.
         11    1    5    5    0    0  0.10213859839E+03 -0.53587790347E+02  0.10404433500E+04  0.10468172282E+04  0.00000000000E+00 0. -1.
        -12    1    5    5    0    0  0.40747459341E+02 -0.14692009005E+02  0.12829520838E+03  0.13541001095E+03  0.00000000000E+00 0.  1.
          5    1    4    4  501    0 -0.10284032550E+03  0.45797053007E+02 -0.56114957831E+02  0.12585651952E+03  0.41800000000E+01 0.  1.
         -5    1    4    4    0  501 -0.46598139383E+01  0.49968291339E+01  0.46311424505E+02  0.46998963893E+02  0.41800000000E+01 0.  1.
</event>
<event>
11    1  0.1003949E-008  0.1579161E+03  0.7561462E-02  0.1089054E+00
         22   -1    0    0    0    0  0.00000000000E+00  0.00000000000E+00  0.22482499984E+04  0.22482499984E+04  0.00000000000E+00 0.  1.
         22   -1    0    0    0    0 -0.00000000000E+00 -0.00000000000E+00 -0.40918801093E+03  0.40918801093E+03  0.00000000000E+00 0. -1.
         24    2    1    2    0    0 -0.93461743787E+02  0.19479788062E+02 -0.38353245951E+03  0.40325205356E+03  0.80003196870E+02 0.  0.
         25    2    1    2    0    0  0.17621693235E+03 -0.19575831715E+02  0.86875944326E+03  0.89544941580E+03  0.12510421884E+03 0.  0.
        -24    2    1    2    0    0 -0.82755188567E+02  0.96043652486E-01  0.13538350037E+04  0.13587365400E+04  0.80295313012E+02 0.  0.
        -13    1    3    3    0    0 -0.48743523452E+02 -0.17199739635E+02 -0.87535069174E+02  0.10165702365E+03  0.00000000000E+00 0.  1.
         14    1    3    3    0    0 -0.44718220334E+02  0.36679527697E+02 -0.29599739033E+03  0.30159502991E+03  0.00000000000E+00 0. -1.
         11    1    5    5    0    0 -0.73301658745E+01 -0.27804411623E+02  0.58518227302E+03  0.58588830787E+03  0.00000000000E+00 0. -1.
        -12    1    5    5    0    0 -0.75425022693E+02  0.27900455275E+02  0.76865273071E+03  0.77284823211E+03  0.00000000000E+00 0.  1.
          5    1    4    4  501    0  0.71714702343E+02  0.38943557949E+02  0.20020954283E+03  0.21624276330E+03  0.41800000000E+01 0.  1.
         -5    1    4    4    0  501  0.10450223001E+03 -0.58519389664E+02  0.66854990042E+03  0.67920665250E+03  0.41800000000E+01 0.  1.
</event>
<event>
11    1  0.1003949E-008  0.1998164E+03  0.7561462E-02  0.1054654E+00
         22   -1    0    0    0    0  0.00000000000E+00  0.00000000000E+00  0.87082828516E+02  0.87082828516E+02  0.00000000000E+00 0. -1.
         22   -1    0    0    0    0 -0.00000000000E+00 -0.00000000000E+00 -0.12250067437E+04  0.12250067437E+04  0.00000000000E+00 0.  1.
        -24    2    1    2    0    0  0.56814177000E+01 -0.83356275802E+02 -0.65649072455E+03  0.66634958726E+03  0.77853412245E+02 0.  0.
         25    2    1    2    0    0 -0.97240847540E+02  0.18806162861E+03 -0.39050518966E+03  0.46148222377E+03  0.12509428889E+03 0.  0.
         24    2    1    2    0    0  0.91559429840E+02 -0.10470535281E+03 -0.90928001018E+02  0.18425776124E+03  0.79603273225E+02 0.  0.
        -13    1    5    5    0    0  0.42081494123E+02 -0.41515945313E+02 -0.85331820063E+02  0.10380725109E+03  0.00000000000E+00 0.  1.
         14    1    5    5    0    0  0.49477935717E+02 -0.63189407494E+02 -0.55961809544E+01  0.80450510151E+02  0.00000000000E+00 0. -1.
         13    1    3    3    0    0  0.15007041860E+02  0.10588725708E+02 -0.73241849840E+02  0.75509608564E+02  0.00000000000E+00 0. -1.
        -14    1    3    3    0    0 -0.93256241596E+01 -0.93945001510E+02 -0.58324887471E+03  0.59083997870E+03  0.00000000000E+00 0.  1.
          5    1    4    4  501    0 -0.60553044844E+02  0.32585738478E+02 -0.49311960512E+02  0.84720974036E+02  0.41800000000E+01 0.  1.
         -5    1    4    4    0  501 -0.36687802696E+02  0.15547589013E+03 -0.34119322915E+03  0.37676124973E+03  0.41800000000E+01 0.  1.
</event>
<event>
11    1  0.1003949E-008  0.1401306E+03  0.7561462E-02  0.1107413E+00
         22   -1    0    0    0    0  0.00000000000E+00  0.00000000000E+00  0.47304227898E+03  0.47304227898E+03  0.00000000000E+00 0.  1.
         22   -1    0    0    0    0 -0.00000000000E+00 -0.00000000000E+00 -0.57747289995E+03  0.57747289995E+03  0.00000000000E+00 0. -1.
         24    2    1    2    0    0 -0.21987267171E+02 -0.59508574589E+02 -0.48433342521E+03  0.49478256590E+03  0.78779504784E+02 0.  0.
         25    2    1    2    0    0 -0.54065468209E+01  0.65405569011E+02 -0.23490154425E+02  0.14319949980E+03  0.12508872924E+03 0.  0.
        -24    2    1    2    0    0  0.27393813991E+02 -0.58969944218E+01  0.40339295866E+03  0.41253311323E+03  0.81685340298E+02 0.  0.
        -13    1    3    3    0    0 -0.42711182845E+01  0.19062404140E+02 -0.12626400568E+03  0.12776625858E+03  0.00000000000E+00 0.  1.
         14    1    3    3    0    0 -0.17716148886E+02 -0.78570978729E+02 -0.35806941953E+03  0.36701630732E+03  0.00000000000E+00 0. -1.
         11    1    5    5    0    0  0.26840064577E+02 -0.15236768173E+02  0.48311637025E+02  0.57328548237E+02  0.00000000000E+00 0. -1.
        -12    1    5    5    0    0  0.55374941418E+00  0.93397737510E+01  0.35508132164E+03  0.35520456499E+03  0.00000000000E+00 0.  1.
          5    1    4    4  501    0 -0.57002065516E+02  0.60209776999E+02 -0.34704981422E+02  0.89979780256E+02  0.41800000000E+01 0. -1.
         -5    1    4    4    0  501  0.51595518695E+02  0.51957920114E+01  0.11214826998E+02  0.53219719547E+02  0.41800000000E+01 0. -1.
</event>
<event>
11    1  0.1003949E-008  0.1438809E+03  0.7561462E-02  0.1103300E+00
         22   -1    0    0    0    0  0.00000000000E+00  0.00000000000E+00  0.14925964017E+04  0.14925964017E+04  0.00000000000E+00 0. -1.
         22   -1    0    0    0    0 -0.00000000000E+00 -0.00000000000E+00 -0.74956970082E+02  0.74956970082E+02  0.00000000000E+00 0. -1.
         24    2    1    2    0    0  0.12492790414E+02  0.94507345975E+01 -0.34907431687E+02  0.89918474705E+02  0.81372090483E+02 0.  0.
         25    2    1    2    0    0  0.47395724059E+02  0.35705209106E+02  0.49987447571E+03  0.51869407881E+03  0.12509132386E+03 0.  0.
        -24    2    1    2    0    0 -0.59888514473E+02 -0.45155943703E+02  0.95267238757E+03  0.95894081825E+03  0.79731558640E+02 0.  0.
        -13    1    3    3    0    0 -0.73978884490E+01 -0.37421201553E+01  0.24516462590E+02  0.25880285058E+02  0.00000000000E+00 0.  1.
         14    1    3    3    0    0  0.19890678863E+02  0.13192854753E+02 -0.59423894277E+02  0.64038189647E+02  0.00000000000E+00 0. -1.
         11    1    5    5    0    0 -0.12684735012E+02 -0.58882066611E+02  0.54205167389E+03  0.54538795131E+03  0.00000000000E+00 0. -1.
        -12    1    5    5    0    0 -0.47203779461E+02  0.13726122908E+02  0.41062071369E+03  0.41355286694E+03  0.00000000000E+00 0.  1.
          5    1    4    4  501    0  0.93341325440E+01  0.18966027405E+02  0.46136159554E+03  0.46186451527E+03  0.41800000000E+01 0. -1.
         -5    1    4    4    0  501  0.38061591515E+02  0.16739181700E+02  0.38512880168E+02  0.56829563534E+02  0.41800000000E+01 0. -1.
</event>
<event>
11    1  0.1003949E-008  0.1362719E+03  0.7561462E-02  0.1111794E+00
         22   -1    0    0    0    0  0.00000000000E+00  0.00000000000E+00  0.88425991303E+03  0.88425991303E+03  0.00000000000E+00 0.  1.
         22   -1    0    0    0    0 -0.00000000000E+00 -0.00000000000E+00 -0.96668996710E+03  0.96668996710E+03  0.00000000000E+00 0.  1.
         24    2    1    2    0    0  0.39373715517E+02 -0.38677636733E+02 -0.91966434681E+03  0.92485773981E+03  0.80827464512E+02 0.  0.
         25    2    1    2    0    0 -0.27666456347E+02 -0.14212582215E+02  0.58909074841E+02  0.14172548835E+03  0.12509358356E+03 0.  0.
        -24    2    1    2    0    0 -0.11707259169E+02  0.52890218948E+02  0.77832521790E+03  0.78436665198E+03  0.80662660179E+02 0.  0.
        -11    1    3    3    0    0  0.18134504797E+02 -0.61246237589E+02 -0.50241958016E+03  0.50646361805E+03  0.00000000000E+00 0.  1.
         12    1    3    3    0    0  0.21239210720E+02  0.22568600856E+02 -0.41724476665E+03  0.41839412175E+03  0.00000000000E+00 0. -1.
         11    1    5    5    0    0 -0.30263581329E+02 -0.97739408649E+01  0.25940941244E+03  0.26135159754E+03  0.00000000000E+00 0. -1.
        -12    1    5    5    0    0  0.18556322159E+02  0.62664159813E+02  0.51891580546E+03  0.52301505445E+03  0.00000000000E+00 0.  1.
          5    1    4    4  501    0  0.49094533187E+02 -0.12795039199E+02  0.14486718776E+02  0.52927531946E+02  0.41800000000E+01 0.  1.
         -5    1    4    4    0  501 -0.76760989535E+02 -0.14175430159E+01  0.44422356065E+02  0.88797956401E+02  0.41800000000E+01 0.  1.
</event>
<event>
11    1  0.1003949E-008  0.1684923E+03  0.7561462E-02  0.1079351E+00
         22   -1    0    0    0    0  0.00000000000E+00  0.00000000000E+00  0.35985970111E+03  0.35985970111E+03  0.00000000000E+00 0. -1.
         22   -1    0    0    0    0 -0.00000000000E+00 -0.00000000000E+00 -0.30962558272E+04  0.30962558272E+04  0.00000000000E+00 0. -1.
        -24    2    1    2    0    0 -0.25503638790E+02 -0.85977125067E+01 -0.26358046266E+04  0.26370935197E+04  0.77922050863E+02 0.  0.
         25    2    1    2    0    0  0.12771320207E+03  0.54562361107E+02 -0.42621393863E+03  0.46539513483E+03  0.12508635741E+03 0.  0.
         24    2    1    2    0    0 -0.10220956328E+03 -0.45964648601E+02  0.32562243908E+03  0.35362687379E+03  0.80389360515E+02 0.  0.
        -13    1    5    5    0    0  0.12721105657E+02  0.25966027080E+01  0.25901614024E+02  0.28973478973E+02  0.00000000000E+00 0.  1.
         14    1    5    5    0    0 -0.11493066894E+03 -0.48561251309E+02  0.29972082506E+03  0.32465339481E+03  0.00000000000E+00 0. -1.
         11    1    3    3    0    0 -0.15745032295E+02  0.33385358417E+02 -0.15384021685E+04  0.15388449305E+04  0.00000000000E+00 0. -1.
        -12    1    3    3    0    0 -0.97586064949E+01 -0.41983070924E+02 -0.10974024581E+04  0.10982485892E+04  0.00000000000E+00 0.  1.
          5    1    4    4  501    0  0.33709456297E+02 -0.31155628038E+02 -0.20552345745E+03  0.21062849893E+03  0.41800000000E+01 0.  1.
         -5    1    4    4    0  501  0.94003745771E+02  0.85717989146E+02 -0.22069048118E+03  0.25476663590E+03  0.41800000000E+01 0.  1.
</event>
<event>
11    1  0.1003949E-008  0.1314701E+03  0.7561462E-02  0.1117476E+00
         22   -1    0    0    0    0  0.00000000000E+00  0.00000000000E+00  0.17443469034E+03  0.17443469034E+03  0.00000000000E+00 0.  1.
         22   -1    0    0    0    0 -0.00000000000E+00 -0.00000000000E+00 -0.54280205456E+03  0.54280205456E+03  0.00000000000E+00 0.  1.
         24    2    1    2    0    0 -0.25244132359E+02  0.31031404026E+02 -0.42741281820E+03  0.43668599802E+03  0.80079519562E+02 0.  0.
         25    2    1    2    0    0  0.40606244864E+02 -0.24866598340E+02 -0.50860810886E+02  0.14317836063E+03  0.12508399592E+03 0.  0.
        -24    2    1    2    0    0 -0.15362112506E+02 -0.61648056860E+01  0.10990626486E+03  0.13737238625E+03  0.80732806956E+02 0.  0.
        -13    1    3    3    0    0 -0.50784870296E+02  0.38194154893E+01 -0.20956413267E+03  0.21566366567E+03  0.00000000000E+00 0.  1.
         14    1    3    3    0    0  0.25540737937E+02  0.27211988537E+02 -0.21784868552E+03  0.22102233235E+03  0.00000000000E+00 0. -1.
         13    1    5    5    0    0 -0.19039574647E+02 -0.30427829462E+02  0.14250770583E+02  0.38619200804E+02  0.00000000000E+00 0. -1.
        -14    1    5    5    0    0  0.36774621413E+01  0.24263023776E+02  0.95655494277E+02  0.98753185447E+02  0.00000000000E+00 0.  1.
          5    1    4    4  501    0 -0.43642628969E+01 -0.60220187739E+02 -0.59855484767E+02  0.85121497042E+02  0.41800000000E+01 0.  1.
         -5    1    4    4    0  501  0.44970507761E+02  0.35353589399E+02  0.89946738804E+01  0.58056863590E+02  0.41800000000E+01 0.  1.
</event>
<event>
11    1  0.1003949E-008  0.1480401E+03  0.7561462E-02  0.1098898E+00
         22   -1    0    0    0    0  0.00000000000E+00  0.00000000000E+00  0.36487478107E+03  0.36487478107E+03  0.00000000000E+00 0.  1.
         22   -1    0    0    0    0 -0.00000000000E+00 -0.00000000000E+00 -0.42432266116E+03  0.42432266116E+03  0.00000000000E+00 0. -1.
        -24    2    1    2    0    0  0.77623447154E+02  0.33582437468E+02 -0.25092590215E+03  0.27689735360E+03  0.80963920386E+02 0.  0.
         25    2    1    2    0    0 -0.62302108156E+02 -0.21495993097E+02 -0.12287201004E+03  0.18732007418E+03  0.12509056295E+03 0.  0.
         24    2    1    2    0    0 -0.15321338997E+02 -0.12086444370E+02  0.31435003211E+03  0.32498001445E+03  0.80095202984E+02 0.  0.
        -11    1    5    5    0    0  0.25182038184E+01 -0.33502184213E+02  0.27332609971E+03  0.27538317755E+03  0.00000000000E+00 0.  1.
         12    1    5    5    0    0 -0.17839542816E+02  0.21415739843E+02  0.41023932399E+02  0.49596836899E+02  0.00000000000E+00 0. -1.
         13    1    3    3    0    0  0.50124269567E+02  0.32580209786E+02 -0.23992765959E+03  0.24726341077E+03  0.00000000000E+00 0. -1.
        -14    1    3    3    0    0  0.27499177586E+02  0.10022276812E+01 -0.10998242568E+02  0.29633942833E+02  0.00000000000E+00 0.  1.
          5    1    4    4  501    0 -0.54311296008E+02  0.20417798329E+02 -0.13131517124E+03  0.14362363998E+03  0.41800000000E+01 0. -1.
         -5    1    4    4    0  501 -0.79908121478E+01 -0.41913791426E+02  0.84431612000E+01  0.43696434197E+02  0.41800000000E+01 0. -1.
</event>
<event>
11    1  0.1003949E-008  0.1698442E+03  0.7561462E-02  0.1078167E+00
         22   -1    0    0    0    0  0.00000000000E+00  0.00000000000E+00  0.11717376765E+04  0.11717376765E+04  0.00000000000E+00 0.  1.
         22   -1    0    0    0    0 -0.00000000000E+00 -0.00000000000E+00 -0.37125665281E+03  0.37125665281E+03  0.00000000000E+00 0.  1.
         24    2    1    2    0    0 -0.13487164393E+02  0.26575467578E+02 -0.30710496728E+03  0.31922624392E+03  0.81876582717E+02 0.  0.
         25    2    1    2    0    0 -0.75178679848E+02 -0.98649396615E+02  0.92919546944E+02  0.19919635822E+03  0.12514635260E+03 0.  0.
        -24    2    1    2    0    0  0.88665844242E+02  0.72073929037E+02  0.10146664440E+04  0.10245717272E+04  0.84515964746E+02 0.  0.
        -11    1    3    3    0    0  0.12165349629E+02 -0.22264165315E+01 -0.25006229165E+03  0.25036793398E+03  0.00000000000E+00 0.  1.
         12    1    3    3    0    0 -0.25652514022E+02  0.28801884109E+02 -0.57042675630E+02  0.68858309934E+02  0.00000000000E+00 0. -1.
         13    1    5    5    0    0  0.37962408766E+02 -0.15088448645E+02  0.25751523404E+03  0.26073530931E+03  0.00000000000E+00 0. -1.
        -14    1    5    5    0    0  0.50703435476E+02  0.87162377681E+02  0.75715120997E+03  0.76383641784E+03  0.00000000000E+00 0.  1.
          5    1    4    4  501    0 -0.23083997454E+02 -0.10906188328E+03  0.94024945187E+02  0.14589560665E+03  0.41800000000E+01 0.  1.
         -5    1    4    4    0  501 -0.52094682395E+02  0.10412486666E+02 -0.11053982435E+01  0.53300751567E+02  0.41800000000E+01 0.  1.
</event>
<event>
11    1  0.1003949E-008  0.1466466E+03  0.7561462E-02  0.1100355E+00
         22   -1    0    0    0    0  0.00000000000E+00  0.00000000000E+00  0.96862952221E+03  0.96862952221E+03  0.00000000000E+00 0. -1.
         22   -1    0    0    0    0 -0.00000000000E+00 -0.00000000000E+00 -0.13143245434E+04  0.13143245434E+04  0.00000000000E+00 0.  1.
         24    2    1    2    0    0 -0.75080185734E+02 -0.23012072969E+02 -0.12468087551E+04  0.12518493361E+04  0.80175425035E+02 0.  0.
         25    2    1    2    0    0  0.23097313259E+02  0.95640165560E+01  0.28575715049E+01  0.12759771811E+03  0.12509218864E+03 0.  0.
        -24    2    1    2    0    0  0.51982872475E+02  0.13448056413E+02  0.89825616243E+03  0.90350701136E+03  0.81103125515E+02 0.  0.
        -13    1    3    3    0    0 -0.59844134189E+02  0.19712307590E+02 -0.87876929016E+03  0.88102517602E+03  0.00000000000E+00 0.  1.
         14    1    3    3    0    0 -0.15236051545E+02 -0.42724380560E+02 -0.36803946495E+03  0.37082416011E+03  0.00000000000E+00 0. -1.
         13    1    5    5    0    0  0.40796087731E+02  0.19645417849E+01  0.87046969821E+03  0.87142737833E+03  0.00000000000E+00 0. -1.
        -14    1    5    5    0    0  0.11186784744E+02  0.11483514628E+02  0.27786464219E+02  0.32079633024E+02  0.00000000000E+00 0.  1.
          5    1    4    4  501    0 -0.22184731337E+02 -0.35565835658E+02 -0.33599189084E+02  0.53883846166E+02  0.41800000000E+01 0. -1.
         -5    1    4    4    0  501  0.45282044595E+02  0.45129852214E+02  0.36456760589E+02  0.73713871939E+02  0.41800000000E+01 0. -1.
</event>
<event>
11    1  0.1003949E-008  0.1711027E+03  0.7561462E-02  0.1077076E+00
         22   -1    0    0    0    0  0.00000000000E+00  0.00000000000E+00  0.17112436908E+04  0.17112436908E+04  0.00000000000E+00 0.  1.
         22   -1    0    0    0    0 -0.00000000000E+00 -0.00000000000E+00 -0.84245178184E+03  0.84245178184E+03  0.00000000000E+00 0. -1.
         24    2    1    2    0    0 -0.10408215961E+03 -0.50248820005E+02 -0.79629102950E+03  0.80855569380E+03  0.79529028995E+02 0.  0.
         25    2    1    2    0    0  0.15572567207E+03  0.75745807931E+02  0.25942449886E+03  0.33606111854E+03  0.12509233560E+03 0.  0.
        -24    2    1    2    0    0 -0.51643512458E+02 -0.25496987926E+02  0.14056584396E+04  0.14090786603E+04  0.79434711208E+02 0.  0.
        -11    1    3    3    0    0  0.70087865634E+01 -0.50178963973E+00 -0.19194990722E+03  0.19207847814E+03  0.00000000000E+00 0.  1.
         12    1    3    3    0    0 -0.11109094617E+03 -0.49747030365E+02 -0.60434112228E+03  0.61647721566E+03  0.00000000000E+00 0. -1.
         11    1    5    5    0    0 -0.13742363239E+02 -0.39150612639E+02  0.32076120015E+03  0.32343371893E+03  0.00000000000E+00 0. -1.
        -12    1    5    5    0    0 -0.37901149219E+02  0.13653624712E+02  0.10848972394E+04  0.10856449414E+04  0.00000000000E+00 0.  1.
          5    1    4    4  501    0 -0.60901404242E+01  0.47663172072E+02  0.73945070535E+02  0.88284843766E+02  0.41800000000E+01 0.  1.
         -5    1    4    4    0  501  0.16181581249E+03  0.28082635859E+02  0.18547942833E+03  0.24777627478E+03  0.41800000000E+01 0.  1.
</event>
<event>
11    1  0.1292813E-008  0.1734743E+03  0.7561462E-02  0.1075047E+00
         22   -1    0    0    0    0  0.00000000000E+00  0.00000000000E+00  0.32348898995E+03  0.32348898995E+03  0.00000000000E+00 0.  1.
         22   -1    0    0    0    0 -0.00000000000E+00 -0.00000000000E+00 -0.10058738220E+04  0.10058738220E+04  0.00000000000E+00 0.  1.
         24    2    1    2    0    0  0.83426720150E+02 -0.21730292707E+02 -0.51863944439E+03  0.53186401700E+03  0.80375593547E+02 0.  0.
         25    2    1    2    0    0 -0.13311988038E+03  0.12866661925E+03 -0.43401334904E+03  0.48815351084E+03  0.12510100536E+03 0.  0.
        -24    2    1    2    0    0  0.49693160226E+02 -0.10693632654E+03  0.27026796141E+03  0.30934528409E+03  0.93514414476E+02 0.  0.
        -11    1    3    3    0    0 -0.14448295643E+02  0.30202092155E+01 -0.10762228821E+03  0.10862979255E+03  0.00000000000E+00 0.  1.
         12    1    3    3    0    0  0.97875015793E+02 -0.24750501923E+02 -0.41101715619E+03  0.42323422445E+03  0.00000000000E+00 0. -1.
         13    1    5    5    0    0  0.73629926017E+02 -0.92816746573E+02  0.18520132573E+03  0.21985414598E+03  0.00000000000E+00 0. -1.
        -14    1    5    5    0    0 -0.23936765792E+02 -0.14119579972E+02  0.85066635677E+02  0.89491138112E+02  0.00000000000E+00 0.  1.
          5    1    4    4  501    0 -0.51040851636E+02 -0.81018371358E+01 -0.18725241502E+03  0.19429808963E+03  0.41800000000E+01 0. -1.
         -5    1    4    4    0  501 -0.82079028740E+02  0.13676845639E+03 -0.24676093401E+03  0.29385542121E+03  0.41800000000E+01 0. -1.
</event>
<event>
11    1  0.1003949E-008  0.1542448E+03  0.7561462E-02  0.1092619E+00
         22   -1    0    0    0    0  0.00000000000E+00  0.00000000000E+00  0.49363962088E+03  0.49363962088E+03  0.00000000000E+00 0.  1.
         22   -1    0    0    0    0 -0.00000000000E+00 -0.00000000000E+00 -0.13652123508E+03  0.13652123508E+03  0.00000000000E+00 0.  1.
        -24    2    1    2    0    0  0.23840000990E+01  0.31801898929E+00 -0.86162001168E+02  0.10289447277E+03  0.56192503855E+02 0.  0.
         25    2    1    2    0    0 -0.87558538037E+02  0.27448351667E+02  0.17717681642E+03  0.23549535371E+03  0.12508608135E+03 0.  0.
         24    2    1    2    0    0  0.85174537938E+02 -0.27766370656E+02  0.26610357055E+03  0.29177102948E+03  0.79331898567E+02 0.  0.
        -13    1    5    5    0    0  0.41929099211E+02 -0.17140358671E+02  0.23006969928E+03  0.23448647676E+03  0.00000000000E+00 0.  1.
         14    1    5    5    0    0  0.43245438726E+02 -0.10626011985E+02  0.36033871270E+02  0.57284552717E+02  0.00000000000E+00 0. -1.
         13    1    3    3    0    0  0.15284491389E+02 -0.11399919336E+02 -0.47668418141E+01  0.19654430003E+02  0.00000000000E+00 0. -1.
        -14    1    3    3    0    0 -0.12900491290E+02  0.11717938326E+02 -0.81395159354E+02  0.83240042770E+02  0.00000000000E+00 0.  1.
          5    1    4    4  501    0 -0.10001328026E+03  0.47684221224E+02  0.83612022027E+02  0.13887002488E+03  0.41800000000E+01 0. -1.
         -5    1    4    4    0  501  0.12454742227E+02 -0.20235869558E+02  0.93564794393E+02  0.96625328825E+02  0.41800000000E+01 0. -1.
</event>
<event>
11    1  0.1003949E-008  0.1317569E+03  0.7561462E-02  0.1117129E+00
         22   -1    0    0    0    0  0.00000000000E+00  0.00000000000E+00  0.72286493136E+03  0.72286493136E+03  0.00000000000E+00 0.  1.
         22   -1    0    0    0    0 -0.00000000000E+00 -0.00000000000E+00 -0.23480923698E+04  0.23480923698E+04  0.00000000000E+00 0. -1.
        -24    2    1    2    0    0  0.40270674010E+02  0.91322034794E+01 -0.23021037029E+04  0.23037694375E+04  0.77246603836E+02 0.  0.
         25    2    1    2    0    0 -0.56010842519E+02  0.24908617944E+01  0.69212299911E+02  0.15355999763E+03  0.12508761546E+03 0.  0.
         24    2    1    2    0    0  0.15740168509E+02 -0.11623065274E+02  0.60766396459E+03  0.61362786602E+03  0.83071147466E+02 0.  0.
        -13    1    5    5    0    0 -0.43939929168E+01  0.31036478551E+02  0.37014471338E+03  0.37146962058E+03  0.00000000000E+00 0.  1.
         14    1    5    5    0    0  0.20134161426E+02 -0.42659543825E+02  0.23751925121E+03  0.24215824544E+03  0.00000000000E+00 0. -1.
         13    1    3    3    0    0  0.37106576235E+02 -0.26648584404E+02 -0.16865088306E+04  0.16871274643E+04  0.00000000000E+00 0. -1.
        -14    1    3    3    0    0  0.31640977749E+01  0.35780787884E+02 -0.61559487231E+03  0.61664197320E+03  0.00000000000E+00 0.  1.
          5    1    4    4  501    0  0.23898111146E+02  0.58294782985E+00  0.69398032955E+02  0.73518833795E+02  0.41800000000E+01 0. -1.
         -5    1    4    4    0  501 -0.79908953665E+02  0.19079139645E+01 -0.18573304384E+00  0.80041163837E+02  0.41800000000E+01 0. -1.
</event>
<event>
11    1  0.1003949E-008  0.1496416E+03  0.7561462E-02  0.1097246E+00
         22   -1    0    0    0    0  0.00000000000E+00  0.00000000000E+00  0.17651821039E+03  0.17651821039E+03  0.00000000000E+00 0. -1.
         22   -1    0    0    0    0 -0.00000000000E+00 -0.00000000000E+00 -0.55772077525E+03  0.55772077525E+03  0.00000000000E+00 0.  1.
         24    2    1    2    0    0 -0.70840117663E+02 -0.96822559860E+01 -0.25916687738E+03  0.28050361122E+03  0.80017105838E+02 0.  0.
         25    2    1    2    0    0  0.10547270961E+03  0.16198183777E+02 -0.24947263997E+03  0.29878199903E+03  0.12508881334E+03 0.  0.
        -24    2    1    2    0    0 -0.34632591944E+02 -0.65159277909E+01  0.12743695249E+03  0.15495337539E+03  0.80799120930E+02 0.  0.
        -13    1    3    3    0    0 -0.72836116685E+02 -0.12531251657E+02 -0.26422402431E+03  0.27436557216E+03  0.00000000000E+00 0.  1.
         14    1    3    3    0    0  0.19959990220E+01  0.28489956711E+01  0.50571469340E+01  0.61380390633E+01  0.00000000000E+00 0. -1.
         11    1    5    5    0    0 -0.31266412815E+02 -0.38690886735E+02  0.47766252543E+02  0.68965122843E+02  0.00000000000E+00 0. -1.
        -12    1    5    5    0    0 -0.33661791285E+01  0.32174958944E+02  0.79670699950E+02  0.85988252544E+02  0.00000000000E+00 0.  1.
          5    1    4    4  501    0  0.18699118353E+02  0.11776900991E+02  0.10369755462E+02  0.24766038287E+02  0.41800000000E+01 0. -1.
         -5    1    4    4    0  501  0.86773591255E+02  0.44212827860E+01 -0.25984239543E+03  0.27401596075E+03  0.41800000000E+01 0. -1.
</event>
<event>
11    1  0.1003949E-008  0.1395219E+03  0.7561462E-02  0.1108093E+00
         22   -1    0    0    0    0  0.00000000000E+00  0.00000000000E+00  0.16191844162E+04  0.16191844162E+04  0.00000000000E+00 0. -1.
         22   -1    0    0    0    0 -0.00000000000E+00 -0.00000000000E+00 -0.20216781552E+03  0.20216781552E+03  0.00000000000E+00 0.  1.
         24    2    1    2    0    0 -0.16492133332E+02  0.38856389703E+02 -0.46192494574E+02  0.10799433550E+03  0.88018296176E+02 0.  0.
         25    2    1    2    0    0  0.30706787907E+02 -0.87809907078E+02 -0.74456416217E+02  0.17275729965E+03  0.12509132689E+03 0.  0.
        -24    2    1    2    0    0 -0.14214654575E+02  0.48953517375E+02  0.15376655115E+04  0.15406005966E+04  0.80227612039E+02 0.  0.
        -11    1    3    3    0    0 -0.39042741885E+02  0.38475176298E+02 -0.60221884832E+02  0.81433103206E+02  0.00000000000E+00 0.  1.
         12    1    3    3    0    0  0.22550608553E+02  0.38121340478E+00  0.14029390258E+02  0.26561232290E+02  0.00000000000E+00 0. -1.
         11    1    5    5    0    0  0.61960562475E+01  0.19439691982E+02  0.13071134280E+04  0.13072726596E+04  0.00000000000E+00 0. -1.
        -12    1    5    5    0    0 -0.20410710823E+02  0.29513825393E+02  0.23055208342E+03  0.23332793698E+03  0.00000000000E+00 0.  1.
          5    1    4    4  501    0  0.12787860580E+02 -0.60609648501E+02 -0.10878263951E+03  0.12525252064E+03  0.41800000000E+01 0. -1.
         -5    1    4    4    0  501  0.17918927327E+02 -0.27200258577E+02  0.34326223291E+02  0.47504779008E+02  0.41800000000E+01 0. -1.
</event>
<event>
11    1  0.1003949E-008  0.1335964E+03  0.7561462E-02  0.1114927E+00
         22   -1    0    0    0    0  0.00000000000E+00  0.00000000000E+00  0.10853324393E+04  0.10853324393E+04  0.00000000000E+00 0. -1.
         22   -1    0    0    0    0 -0.00000000000E+00 -0.00000000000E+00 -0.21477939811E+03  0.21477939811E+03  0.00000000000E+00 0. -1.
         24    2    1    2    0    0 -0.14542162642E+02 -0.86275061621E+01 -0.17244550469E+03  0.19060532595E+03  0.79416810789E+02 0.  0.
         25    2    1    2    0    0  0.58720066512E+02 -0.44435539560E+01  0.12380584956E+03  0.18559230219E+03  0.12509525516E+03 0.  0.
        -24    2    1    2    0    0 -0.44177903870E+02  0.13071060118E+02  0.91919269630E+03  0.92391420926E+03  0.81115432163E+02 0.  0.
        -11    1    3    3    0    0 -0.42005578529E+02  0.61141893524E+01 -0.57266651274E+02  0.71283387175E+02  0.00000000000E+00 0.  1.
         12    1    3    3    0    0  0.27463415887E+02 -0.14741695514E+02 -0.11517885341E+03  0.11932193877E+03  0.00000000000E+00 0. -1.
         13    1    5    5    0    0  0.10228053840E+02  0.19337412854E+02  0.57291777100E+03  0.57333526051E+03  0.00000000000E+00 0. -1.
        -14    1    5    5    0    0 -0.54405957711E+02 -0.62663527358E+01  0.34627492531E+03  0.35057894875E+03  0.00000000000E+00 0.  1.
          5    1    4    4  501    0  0.37377154257E+02  0.17458940378E+02 -0.14467067692E+02  0.43916223734E+02  0.41800000000E+01 0. -1.
         -5    1    4    4    0  501  0.21342912255E+02 -0.21902494334E+02  0.13827291725E+03  0.14167607846E+03  0.41800000000E+01 0. -1.
</event>
<event>
11    1  0.1003949E-008  0.1914664E+03  0.7561462E-02  0.1060728E+00
         22   -1    0    0    0    0  0.00000000000E+00  0.00000000000E+00  0.20355246882E+03  0.20355246882E+03  0.00000000000E+00 0.  1.
         22   -1    0    0    0    0 -0.00000000000E+00 -0.00000000000E+00 -0.16725433802E+04  0.16725433802E+04  0.00000000000E+00 0.  1.
         24    2    1    2    0    0  0.14325580786E+03  0.18239858871E+01 -0.14724672679E+04  0.14817100712E+04  0.82336665751E+02 0.  0.
         25    2    1    2    0    0 -0.16636006098E+03 -0.13859206144E+02 -0.12283253525E+03  0.24208797692E+03  0.12510399422E+03 0.  0.
        -24    2    1    2    0    0  0.23104253114E+02  0.12035220257E+02  0.12630889176E+03  0.15229780095E+03  0.81006363927E+02 0.  0.
        -11    1    3    3    0    0  0.13122121728E+03  0.15164184510E+02 -0.97369553701E+03  0.98261485800E+03  0.00000000000E+00 0.  1.
         12    1    3    3    0    0  0.12034590581E+02 -0.13340198623E+02 -0.49877173090E+03  0.49909521318E+03  0.00000000000E+00 0. -1.
         13    1    5    5    0    0 -0.23635382135E+02  0.10172308890E+02  0.11229807707E+02  0.28075180105E+02  0.00000000000E+00 0. -1.
        -14    1    5    5    0    0  0.46739635249E+02  0.18629113672E+01  0.11507908406E+03  0.12422262084E+03  0.00000000000E+00 0.  1.
          5    1    4    4  501    0 -0.46049700055E+02 -0.48163583950E+02 -0.91111282226E+02  0.11295593762E+03  0.41800000000E+01 0. -1.
         -5    1    4    4    0  501 -0.12031036092E+03  0.34304377805E+02 -0.31721253028E+02  0.12913203931E+03  0.41800000000E+01 0. -1.
</event>
<event>
11    1  0.1003949E-008  0.3605846E+03  0.7561462E-02  0.9773794E-01
         22   -1    0    0    0    0  0.00000000000E+00  0.00000000000E+00  0.26536639777E+04  0.26536639777E+04  0.00000000000E+00 0. -1.
         22   -1    0    0    0    0 -0.00000000000E+00 -0.00000000000E+00 -0.16042658222E+03  0.16042658222E+03  0.00000000000E+00 0.  1.
         24    2    1    2    0    0  0.15839854531E+03  0.29180272182E+03  0.10178124386E+03  0.35666298515E+03  0.81302741389E+02 0.  0.
         25    2    1    2    0    0 -0.18035240980E+03 -0.32423929952E+03  0.11889006732E+04  0.12517162487E+04  0.12510252359E+03 0.  0.
        -24    2    1    2    0    0  0.21953864489E+02  0.32436577698E+02  0.12025554784E+04  0.12057113261E+04  0.77884654555E+02 0.  0.
        -11    1    3    3    0    0  0.92367665020E+02  0.99426859725E+02  0.18853980089E+02  0.13701444647E+03  0.00000000000E+00 0.  1.
         12    1    3    3    0    0  0.66030880288E+02  0.19237586210E+03  0.82927263767E+02  0.21964853868E+03  0.00000000000E+00 0. -1.
         13    1    5    5    0    0  0.41861854329E+02  0.41445457907E+02  0.10435563250E+04  0.10452176540E+04  0.00000000000E+00 0. -1.
        -14    1    5    5    0    0 -0.19907989840E+02 -0.90088802092E+01  0.15899915344E+03  0.16049367208E+03  0.00000000000E+00 0.  1.
          5    1    4    4  501    0 -0.18010669054E+03 -0.32707635983E+03  0.11893956913E+04  0.12466342479E+04  0.41800000000E+01 0.  1.
         -5    1    4    4    0  501 -0.24571925178E+00  0.28370603114E+01 -0.49501809369E+00  0.50820007944E+01  0.41800000000E+01 0.  1.
</event>
<event>
11    1  0.1003949E-008  0.1324563E+03  0.7561462E-02  0.1116287E+00
         22   -1    0    0    0    0  0.00000000000E+00  0.00000000000E+00  0.28580339350E+04  0.28580339350E+04  0.00000000000E+00 0. -1.
         22   -1    0    0    0    0 -0.00000000000E+00 -0.00000000000E+00 -0.13255013204E+03  0.13255013204E+03  0.00000000000E+00 0. -1.
         24    2    1    2    0    0 -0.20603559239E+00 -0.13034120312E+02 -0.73302549760E+02  0.10911188435E+03  0.79763455050E+02 0.  0.
         25    2    1    2    0    0 -0.30882456387E+02  0.43301515461E+02  0.73143428355E+02  0.15435973107E+03  0.12509283797E+03 0.  0.
        -24    2    1    2    0    0  0.31088491979E+02 -0.30267395149E+02  0.27256429244E+04  0.27271124516E+04  0.78296635111E+02 0.  0.
        -13    1    3    3    0    0 -0.29447489934E+02  0.20587396089E+02 -0.37670890712E+02  0.52058539628E+02  0.00000000000E+00 0.  1.
         14    1    3    3    0    0  0.29241454342E+02 -0.33621516401E+02 -0.35631659048E+02  0.57053344720E+02  0.00000000000E+00 0. -1.
         11    1    5    5    0    0  0.31212265383E+02 -0.20807410730E+02  0.26891966462E+04  0.26894582644E+04  0.00000000000E+00 0. -1.
        -12    1    5    5    0    0 -0.12377340339E+00 -0.94599844185E+01  0.36446278170E+02  0.37654187250E+02  0.00000000000E+00 0.  1.
          5    1    4    4  501    0 -0.65458603331E+02 -0.14815560033E+02  0.45457286586E+02  0.81167523511E+02  0.41800000000E+01 0.  1.
         -5    1    4    4    0  501  0.34576146944E+02  0.58117075493E+02  0.27686141769E+02  0.73192207560E+02  0.41800000000E+01 0.  1.
</event>
<event>
11    1  0.1003949E-008  0.1307379E+03  0.7561462E-02  0.1118366E+00
         22   -1    0    0    0    0  0.00000000000E+00  0.00000000000E+00  0.84514599400E+03  0.84514599400E+03  0.00000000000E+00 0. -1.
         22   -1    0    0    0    0 -0.00000000000E+00 -0.00000000000E+00 -0.22282142118E+04  0.22282142118E+04  0.00000000000E+00 0. -1.
        -24    2    1    2    0    0  0.35473676799E+02 -0.13440441765E+02 -0.22053548830E+04  0.22070251443E+04  0.77011689783E+02 0.  0.
         25    2    1    2    0    0 -0.65453481113E+02  0.16652924515E+02  0.24866405127E+03  0.28642935714E+03  0.12508592308E+03 0.  0.
         24    2    1    2    0    0  0.29979804314E+02 -0.32124827498E+01  0.57362261386E+03  0.57990570445E+03  0.79615414432E+02 0.  0.
        -13    1    5    5    0    0  0.54140072838E+01 -0.17025303779E+02  0.25931277602E+02  0.31489738038E+02  0.00000000000E+00 0.  1.
         14    1    5    5    0    0  0.24565797030E+02  0.13812821029E+02  0.54769133625E+03  0.54841596641E+03  0.00000000000E+00 0. -1.
         11    1    3    3    0    0  0.15723584605E+02 -0.36166902180E+02 -0.18428733641E+04  0.18432952862E+04  0.00000000000E+00 0. -1.
        -12    1    3    3    0    0  0.19750092194E+02  0.22726460415E+02 -0.36248151886E+03  0.36372985808E+03  0.00000000000E+00 0.  1.
          5    1    4    4  501    0 -0.91878675745E+01 -0.37660154226E+02  0.17368901651E+03  0.17801137880E+03  0.41800000000E+01 0. -1.
         -5    1    4    4    0  501 -0.56265613538E+02  0.54313078740E+02  0.74975034757E+02  0.10841797833E+03  0.41800000000E+01 0. -1.
</event>
<event>
11    1  0.1003949E-008  0.1410098E+03  0.7561462E-02  0.1106436E+00
         22   -1    0    0    0    0  0.00000000000E+00  0.00000000000E+00  0.11002863680E+04  0.11002863680E+04  0.00000000000E+00 0. -1.
         22   -1    0    0    0    0 -0.00000000000E+00 -0.00000000000E+00 -0.64001488741E+02  0.64001488741E+02  0.00000000000E+00 0.  1.
         24    2    1    2    0    0  0.39828833407E+01  0.65436342962E+00 -0.11619850189E+02  0.78629781273E+02  0.77661638107E+02 0.  0.
         25    2    1    2    0    0 -0.60780921041E+02 -0.30850551774E+02  0.32023051327E+03  0.35048716210E+03  0.12509033639E+03 0.  0.
        -24    2    1    2    0    0  0.56798037700E+02  0.30196188344E+02  0.72767421614E+03  0.73517091334E+03  0.82635828168E+02 0.  0.
        -11    1    3    3    0    0  0.10392232448E+02  0.89102236097E+01 -0.43225233258E+02  0.45341056122E+02  0.00000000000E+00 0.  1.
         12    1    3    3    0    0 -0.64093491077E+01 -0.82558601801E+01  0.31605383069E+02  0.33288725152E+02  0.00000000000E+00 0. -1.
         11    1    5    5    0    0  0.39846879160E+02 -0.12518569844E+02  0.55224998575E+03  0.55382717081E+03  0.00000000000E+00 0. -1.
        -12    1    5    5    0    0  0.16951158540E+02  0.42714758188E+02  0.17542423040E+03  0.18134374253E+03  0.00000000000E+00 0.  1.
          5    1    4    4  501    0 -0.26084743521E+02  0.41033132039E+02  0.20173926915E+03  0.20755803257E+03  0.41800000000E+01 0.  1.
         -5    1    4    4    0  501 -0.34696177520E+02 -0.71883683813E+02  0.11849124413E+03  0.14292912953E+03  0.41800000000E+01 0.  1.
</event>
<event>
11    1  0.1003949E-008  0.2195010E+03  0.7561462E-02  0.1041530E+00
         22   -1    0    0    0    0  0.00000000000E+00  0.00000000000E+00  0.77803792688E+03  0.77803792688E+03  0.00000000000E+00 0.  1.
         22   -1    0    0    0    0 -0.00000000000E+00 -0.00000000000E+00 -0.56209527094E+03  0.56209527094E+03  0.00000000000E+00 0.  1.
        -24    2    1    2    0    0  0.17734770631E+03 -0.52705158112E+01 -0.41899157685E+03  0.46298015356E+03  0.85537675003E+02 0.  0.
         25    2    1    2    0    0 -0.19523039335E+03  0.14898169076E+02 -0.44754484929E+01  0.23238808525E+03  0.12508929051E+03 0.  0.
         24    2    1    2    0    0  0.17882687035E+02 -0.96276532650E+01  0.63940968129E+03  0.64476495900E+03  0.80402920519E+02 0.  0.
        -11    1    5    5    0    0  0.19396457573E+02  0.31124634975E+02  0.41996465537E+03  0.42156289831E+03  0.00000000000E+00 0.  1.
         12    1    5    5    0    0 -0.15137705381E+01 -0.40752288240E+02  0.21944502591E+03  0.22320206069E+03  0.00000000000E+00 0. -1.
         11    1    3    3    0    0  0.65072444752E+02 -0.80879170379E+01 -0.26116911030E+03  0.26927521543E+03  0.00000000000E+00 0. -1.
        -12    1    3    3    0    0  0.11227526156E+03  0.28174012266E+01 -0.15782246655E+03  0.19370493813E+03  0.00000000000E+00 0.  1.
          5    1    4    4  501    0 -0.17242698559E+03  0.58601847906E+02  0.39484014140E+01  0.18220401810E+03  0.41800000000E+01 0. -1.
         -5    1    4    4    0  501 -0.22803407754E+02 -0.43703678830E+02 -0.84238499069E+01  0.50184067150E+02  0.41800000000E+01 0. -1.
</event>
<event>
11    1  0.1003949E-008  0.2396709E+03  0.7561462E-02  0.1029550E+00
         22   -1    0    0    0    0  0.00000000000E+00  0.00000000000E+00  0.21405369390E+03  0.21405369390E+03  0.00000000000E+00 0.  1.
         22   -1    0    0    0    0 -0.00000000000E+00 -0.00000000000E+00 -0.15196309543E+04  0.15196309543E+04  0.00000000000E+00 0. -1.
         24    2    1    2    0    0 -0.60748663487E+02  0.12815327974E+03 -0.12091217190E+04  0.12199161625E+04  0.78143770554E+02 0.  0.
         25    2    1    2    0    0  0.23289347431E+03 -0.15814899843E+03 -0.92587320778E+02  0.32166989870E+03  0.12509450700E+03 0.  0.
        -24    2    1    2    0    0 -0.17214481082E+03  0.29995718690E+02 -0.38682206037E+01  0.19209858701E+03  0.79707747239E+02 0.  0.
        -11    1    3    3    0    0 -0.11922079991E+02  0.46132346220E+02 -0.17410908655E+03  0.18051122785E+03  0.00000000000E+00 0.  1.
         12    1    3    3    0    0 -0.48826583496E+02  0.82020933516E+02 -0.10350126325E+04  0.10394049347E+04  0.00000000000E+00 0. -1.
         11    1    5    5    0    0 -0.73501857370E+02 -0.22164012276E+02  0.16872252771E+02  0.78603049499E+02  0.00000000000E+00 0. -1.
        -12    1    5    5    0    0 -0.98642953449E+02  0.52159730966E+02 -0.20740473375E+02  0.11349553751E+03  0.00000000000E+00 0.  1.
          5    1    4    4  501    0  0.15563321177E+03 -0.12052005504E+03 -0.12095934489E+03  0.23107448104E+03  0.41800000000E+01 0. -1.
         -5    1    4    4    0  501  0.77260262538E+02 -0.37628943384E+02  0.28372024114E+02  0.90595417654E+02  0.41800000000E+01 0. -1.
</event>
<event>
11    1  0.1003949E-008  0.1304510E+03  0.7561462E-02  0.1118716E+00
         22   -1    0    0    0    0  0.00000000000E+00  0.00000000000E+00  0.26341703656E+03  0.26341703656E+03  0.00000000000E+00 0. -1.
         22   -1    0    0    0    0 -0.00000000000E+00 -0.00000000000E+00 -0.48407806612E+03  0.48407806612E+03  0.00000000000E+00 0.  1.
         24    2    1    2    0    0 -0.26573493608E+02  0.19076114521E+02 -0.31982019852E+03  0.33085561884E+03  0.78169255048E+02 0.  0.
         25    2    1    2    0    0 -0.63164744587E+01 -0.37600142936E+02 -0.12129893440E+03  0.17836685361E+03  0.12509050476E+03 0.  0.
        -24    2    1    2    0    0  0.32889968067E+02  0.18524028414E+02  0.22045810336E+03  0.23827263022E+03  0.82141228060E+02 0.  0.
        -13    1    3    3    0    0 -0.82614694200E+01  0.70389289886E+01 -0.30309257980E+03  0.30328684496E+03  0.00000000000E+00 0.  1.
         14    1    3    3    0    0 -0.18312024188E+02  0.12037185533E+02 -0.16727618716E+02  0.27568773881E+02  0.00000000000E+00 0. -1.
         11    1    5    5    0    0  0.48034836140E+02  0.80377145821E+01  0.21283586909E+03  0.21833702734E+03  0.00000000000E+00 0. -1.
        -12    1    5    5    0    0 -0.15144868073E+02  0.10486313832E+02  0.76222342704E+01  0.19935602876E+02  0.00000000000E+00 0.  1.
          5    1    4    4  501    0 -0.23423833897E+02  0.38945883713E+02 -0.73205456831E+02  0.86266848572E+02  0.41800000000E+01 0.  1.
         -5    1    4    4    0  501  0.17107359438E+02 -0.76546026649E+02 -0.48093477573E+02  0.92100005036E+02  0.41800000000E+01 0.  1.
</event>
<event>
11    1  0.1003949E-008  0.1345113E+03  0.7561462E-02  0.1113847E+00
         22   -1    0    0    0    0  0.00000000000E+00  0.00000000000E+00  0.40195420227E+03  0.40195420227E+03  0.00000000000E+00 0.  1.
         22   -1    0    0    0    0 -0.00000000000E+00 -0.00000000000E+00 -0.53768780992E+03  0.53768780992E+03  0.00000000000E+00 0.  1.
         24    2    1    2    0    0  0.39421021850E+02 -0.25951858913E+02 -0.41791705315E+03  0.42845635763E+03  0.81808747273E+02 0.  0.
         25    2    1    2    0    0 -0.59475440880E+02  0.36252876402E+02 -0.62918638688E+02  0.15638578664E+03  0.12508461158E+03 0.  0.
        -24    2    1    2    0    0  0.20054419031E+02 -0.10301017488E+02  0.34510208419E+03  0.35479986793E+03  0.79241448029E+02 0.  0.
        -13    1    3    3    0    0  0.59339319185E+02 -0.95374960654E+01 -0.36089212354E+03  0.36586232857E+03  0.00000000000E+00 0.  1.
         14    1    3    3    0    0 -0.19918297335E+02 -0.16414362848E+02 -0.57024929615E+02  0.62594029061E+02  0.00000000000E+00 0. -1.
         11    1    5    5    0    0 -0.29024008422E+02  0.68077129690E+01  0.14704538290E+03  0.15003693763E+03  0.00000000000E+00 0. -1.
        -12    1    5    5    0    0  0.49078427453E+02 -0.17108730457E+02  0.19805670129E+03  0.20476293030E+03  0.00000000000E+00 0.  1.
          5    1    4    4  501    0  0.28964463666E+02  0.44661039184E+02 -0.15509774153E+02  0.55601925063E+02  0.41800000000E+01 0. -1.
         -5    1    4    4    0  501 -0.88439904546E+02 -0.84081627817E+01 -0.47408864535E+02  0.10078386158E+03  0.41800000000E+01 0. -1.
</event>
<event>
11    1  0.1003949E-008  0.1701362E+03  0.7561462E-02  0.1077913E+00
         22   -1    0    0    0    0  0.00000000000E+00  0.00000000000E+00  0.37187745733E+03  0.37187745733E+03  0.00000000000E+00 0.  1.
         22   -1    0    0    0    0 -0.00000000000E+00 -0.00000000000E+00 -0.86779387696E+03  0.86779387696E+03  0.00000000000E+00 0. -1.
         24    2    1    2    0    0 -0.11352098406E+03 -0.14956197535E+02 -0.73190189911E+03  0.74626358739E+03  0.90101333356E+02 0.  0.
         25    2    1    2    0    0  0.10740042288E+03  0.12224798163E+03 -0.18208094246E+02  0.20605601317E+03  0.12509246988E+03 0.  0.
        -24    2    1    2    0    0  0.61205611830E+01 -0.10729178410E+03  0.25419357373E+03  0.28735173374E+03  0.80047846676E+02 0.  0.
        -13    1    3    3    0    0 -0.12629991794E+01  0.11608089304E+02 -0.10521168875E+02  0.15717439317E+02  0.00000000000E+00 0.  1.
         14    1    3    3    0    0 -0.11225798488E+03 -0.26564286839E+02 -0.72138073023E+03  0.73054614807E+03  0.00000000000E+00 0. -1.
         11    1    5    5    0    0 -0.44235728144E+01  0.54858827937E+01 -0.19238742802E+01  0.73050803361E+01  0.00000000000E+00 0. -1.
        -12    1    5    5    0    0  0.10544133997E+02 -0.11277766689E+03  0.25611744801E+03  0.28004665341E+03  0.00000000000E+00 0.  1.
          5    1    4    4  501    0  0.36780146409E+02  0.12337402579E+03 -0.34713934651E+02  0.13340336978E+03  0.41800000000E+01 0.  1.
         -5    1    4    4    0  501  0.70620276469E+02 -0.11260441595E+01  0.16505840405E+02  0.72652643390E+02  0.41800000000E+01 0.  1.
</event>
<event>
11    1  0.1003949E-008  0.1895530E+03  0.7561462E-02  0.1062167E+00
         22   -1    0    0    0    0  0.00000000000E+00  0.00000000000E+00  0.35329861193E+04  0.35329861193E+04  0.00000000000E+00 0.  1.
         22   -1    0    0    0    0 -0.00000000000E+00 -0.00000000000E+00 -0.90316768847E+02  0.90316768847E+02  0.00000000000E+00 0.  1.
         24    2    1    2    0    0 -0.47214984674E+02 -0.10313414188E+02 -0.42956478836E+02  0.10641987193E+03  0.84524013021E+02 0.  0.
         25    2    1    2    0    0  0.10907880282E+03 -0.11582225390E+03  0.75891287818E+03  0.78543649763E+03  0.12509498554E+03 0.  0.
        -24    2    1    2    0    0 -0.61863818142E+02  0.12613566809E+03  0.27267129511E+04  0.27314465186E+04  0.78097550875E+02 0.  0.
        -11    1    3    3    0    0 -0.42888666678E+02 -0.45062042094E+02 -0.30192408563E+02  0.69149164144E+02  0.00000000000E+00 0.  1.
         12    1    3    3    0    0 -0.43263179962E+01  0.34748627906E+02 -0.12764070273E+02  0.37270707783E+02  0.00000000000E+00 0. -1.
         13    1    5    5    0    0 -0.17804581151E+02  0.71307998742E+02  0.77781425390E+03  0.78127898178E+03  0.00000000000E+00 0. -1.
        -14    1    5    5    0    0 -0.44059236990E+02  0.54827669350E+02  0.19488986972E+04  0.19501675368E+04  0.00000000000E+00 0.  1.
          5    1    4    4  501    0  0.30671215979E+02 -0.11004464786E+03  0.55920116447E+03  0.57076611914E+03  0.41800000000E+01 0.  1.
         -5    1    4    4    0  501  0.78407586836E+02 -0.57776060431E+01  0.19971171371E+03  0.21467037849E+03  0.41800000000E+01 0.  1.
</event>
<event>
11    1  0.1003949E-008  0.1411399E+03  0.7561462E-02  0.1106292E+00
         22   -1    0    0    0    0  0.00000000000E+00  0.00000000000E+00  0.58194129378E+03  0.58194129378E+03  0.00000000000E+00 0. -1.
         22   -1    0    0    0    0 -0.00000000000E+00 -0.00000000000E+00 -0.74258701840E+03  0.74258701840E+03  0.00000000000E+00 0.  1.
        -24    2    1    2    0    0  0.32348397937E+01 -0.58265080828E+02 -0.51406767179E+03  0.52383514874E+03  0.82051252487E+02 0.  0.
         25    2    1    2    0    0  0.16100107514E+02  0.11219735988E+03 -0.18666856402E+03  0.25168901016E+03  0.12511891950E+03 0.  0.
         24    2    1    2    0    0 -0.19334947308E+02 -0.53932279050E+02  0.54009051120E+03  0.54900415328E+03  0.80157776423E+02 0.  0.
        -13    1    5    5    0    0 -0.31813956124E+02 -0.24271697409E+02  0.99570621925E+02  0.10731053932E+03  0.00000000000E+00 0.  1.
         14    1    5    5    0    0  0.12479008816E+02 -0.29660581641E+02  0.44051988928E+03  0.44169361396E+03  0.00000000000E+00 0. -1.
         13    1    3    3    0    0 -0.59154610911E+01 -0.31211557955E+02 -0.52346709507E+02  0.61231789343E+02  0.00000000000E+00 0. -1.
        -14    1    3    3    0    0  0.91503008848E+01 -0.27053522873E+02 -0.46172096229E+03  0.46260335939E+03  0.00000000000E+00 0.  1.
          5    1    4    4  501    0 -0.42694229516E+02  0.73262735517E+02 -0.51835446266E+02  0.99471661990E+02  0.41800000000E+01 0. -1.
         -5    1    4    4    0  501  0.58794337030E+02  0.38934624361E+02 -0.13483311775E+03  0.15221734817E+03  0.41800000000E+01 0. -1.
</event>
<event>
11    1  0.1003949E-008  0.1261206E+03  0.7561462E-02  0.1124130E+00
         22   -1    0    0    0    0  0.00000000000E+00  0.00000000000E+00  0.72515840746E+02  0.72515840746E+02  0.00000000000E+00 0.  1.
         22   -1    0    0    0    0 -0.00000000000E+00 -0.00000000000E+00 -0.65769616882E+03  0.65769616882E+03  0.00000000000E+00 0. -1.
        -24    2    1    2    0    0  0.13998759363E+02  0.10817606783E+02 -0.34002546984E+03  0.35055711238E+03  0.83426512670E+02 0.  0.
         25    2    1    2    0    0 -0.15714988090E+02  0.30214098772E+01 -0.26747913521E+03  0.29571697465E+03  0.12508937425E+03 0.  0.
         24    2    1    2    0    0  0.17162287267E+01 -0.13839016661E+02  0.22324276979E+02  0.83937922547E+02  0.79704063107E+02 0.  0.
        -11    1    5    5    0    0 -0.15536249096E+02 -0.42881538367E+02  0.20786175764E+02  0.50122514618E+02  0.00000000000E+00 0.  1.
         12    1    5    5    0    0  0.17252477823E+02  0.29042521707E+02  0.15381012148E+01  0.33815407930E+02  0.00000000000E+00 0. -1.
         11    1    3    3    0    0  0.46201548153E+02 -0.90261001458E+01 -0.17191874114E+03  0.17824732001E+03  0.00000000000E+00 0. -1.
        -12    1    3    3    0    0 -0.32202788790E+02  0.19843706929E+02 -0.16810672870E+03  0.17230979237E+03  0.00000000000E+00 0.  1.
          5    1    4    4  501    0 -0.59772078922E+02  0.64265444008E+01 -0.22956441109E+03  0.23734214360E+03  0.41800000000E+01 0.  1.
         -5    1    4    4    0  501  0.44057090832E+02 -0.34051345235E+01 -0.37914724124E+02  0.58374831042E+02  0.41800000000E+01 0.  1.
</event>
<event>
11    1  0.1003949E-008  0.1555217E+03  0.7561462E-02  0.1091367E+00
         22   -1    0    0    0    0  0.00000000000E+00  0.00000000000E+00  0.18825274965E+04  0.18825274965E+04  0.00000000000E+00 0.  1.
         22   -1    0    0    0    0 -0.00000000000E+00 -0.00000000000E+00 -0.95958606231E+03  0.95958606231E+03  0.00000000000E+00 0.  1.
         24    2    1    2    0    0 -0.28984564623E+02  0.84828967604E+02 -0.73124383207E+03  0.74279874299E+03  0.94849206154E+02 0.  0.
         25    2    1    2    0    0  0.68114657620E+01 -0.11051172129E+03 -0.19014034009E+03  0.25309971615E+03  0.12508749248E+03 0.  0.
        -24    2    1    2    0    0  0.22173098861E+02  0.25682753689E+02  0.18443256064E+04  0.18462150997E+04  0.76302043803E+02 0.  0.
        -11    1    3    3    0    0  0.10124809753E+02  0.53211640536E+02 -0.59685992435E+03  0.59931273952E+03  0.00000000000E+00 0.  1.
         12    1    3    3    0    0 -0.39109374375E+02  0.31617327068E+02 -0.13438390772E+03  0.14348600346E+03  0.00000000000E+00 0. -1.
         11    1    5    5    0    0 -0.12434797521E+02 -0.21155545694E+02  0.44187465680E+03  0.44255552604E+03  0.00000000000E+00 0. -1.
        -12    1    5    5    0    0  0.34607896382E+02  0.46838299383E+02  0.14024509496E+04  0.14036595737E+04  0.00000000000E+00 0.  1.
          5    1    4    4  501    0 -0.50698040878E+02 -0.25215735612E+02 -0.34339546093E+02  0.66353609526E+02  0.41800000000E+01 0. -1.
         -5    1    4    4    0  501  0.57509506640E+02 -0.85295985682E+02 -0.15580079400E+03  0.18674610662E+03  0.41800000000E+01 0. -1.
</event>
<event>
11    1  0.1003949E-008  0.1551021E+03  0.7561462E-02  0.1091777E+00
         22   -1    0    0    0    0  0.00000000000E+00  0.00000000000E+00  0.11425251237E+04  0.11425251237E+04  0.00000000000E+00 0.  1.
         22   -1    0    0    0    0 -0.00000000000E+00 -0.00000000000E+00 -0.13308421811E+03  0.13308421811E+03  0.00000000000E+00 0.  1.
        -24    2    1    2    0    0 -0.98440481162E+01  0.16129574993E+01 -0.97698383323E+02  0.12450508530E+03  0.76531269727E+02 0.  0.
         25    2    1    2    0    0  0.41126982877E+02 -0.86604699080E+02  0.34845646170E+03  0.38244080441E+03  0.12508901052E+03 0.  0.
         24    2    1    2    0    0 -0.31282934761E+02  0.84991741581E+02  0.75868282718E+03  0.76866345206E+03  0.83914552568E+02 0.  0.
        -11    1    5    5    0    0 -0.44656314223E+02  0.10737977388E+02  0.35852837057E+03  0.36145827292E+03  0.00000000000E+00 0.  1.
         12    1    5    5    0    0  0.13373379462E+02  0.74253764193E+02  0.40015445661E+03  0.40720517914E+03  0.00000000000E+00 0. -1.
         11    1    3    3    0    0  0.71006972731E+01 -0.38543751594E+00  0.11750246181E+02  0.13734509425E+02  0.00000000000E+00 0. -1.
        -12    1    3    3    0    0 -0.16944745389E+02  0.19983950152E+01 -0.10944862950E+03  0.11077057587E+03  0.00000000000E+00 0.  1.
          5    1    4    4  501    0 -0.30378898809E+02 -0.52531907337E+02  0.69178675343E+02  0.92117535266E+02  0.41800000000E+01 0. -1.
         -5    1    4    4    0  501  0.71505881686E+02 -0.34072791743E+02  0.27927778635E+03  0.29032326914E+03  0.41800000000E+01 0. -1.
</event>
<event>
11    1  0.1003949E-008  0.1338387E+03  0.7561462E-02  0.1114640E+00
         22   -1    0    0    0    0  0.00000000000E+00  0.00000000000E+00  0.70871661564E+03  0.70871661564E+03  0.00000000000E+00 0.  1.
         22   -1    0    0    0    0 -0.00000000000E+00 -0.00000000000E+00 -0.56964646442E+03  0.56964646442E+03  0.00000000000E+00 0.  1.
         24    2    1    2    0    0 -0.82551994885E+01 -0.26465718027E+02 -0.22746358634E+03  0.24295622443E+03  0.80743181308E+02 0.  0.
         25    2    1    2    0    0 -0.14177179000E+02 -0.15772014561E+02 -0.31912331920E+03  0.34342334445E+03  0.12510056676E+03 0.  0.
        -24    2    1    2    0    0  0.22432378489E+02  0.42237732588E+02  0.68565705676E+03  0.69198351118E+03  0.80176945593E+02 0.  0.
        -13    1    3    3    0    0  0.55571727483E+01 -0.56574805417E+00 -0.20723007903E+03  0.20730534941E+03  0.00000000000E+00 0.  1.
         14    1    3    3    0    0 -0.13812372237E+02 -0.25899969973E+02 -0.20233507314E+02  0.35650875019E+02  0.00000000000E+00 0. -1.
         13    1    5    5    0    0  0.68114466821E+00  0.19823467829E+02  0.32462879445E+02  0.38043033221E+02  0.00000000000E+00 0. -1.
        -14    1    5    5    0    0  0.21751233821E+02  0.22414264759E+02  0.65319417731E+03  0.65394047796E+03  0.00000000000E+00 0.  1.
          5    1    4    4  501    0  0.29276469377E+02  0.11991168881E+02 -0.15596903682E+02  0.35519510059E+02  0.41800000000E+01 0.  1.
         -5    1    4    4    0  501 -0.43453648378E+02 -0.27763183442E+02 -0.30352641552E+03  0.30790383439E+03  0.41800000000E+01 0.  1.
</event>
<event>
11    1  0.1003949E-008  0.1298730E+03  0.7561462E-02  0.1119425E+00
         22   -1    0    0    0    0  0.00000000000E+00  0.00000000000E+00  0.51438992131E+03  0.51438992131E+03  0.00000000000E+00 0. -1.
         22   -1    0    0    0    0 -0.00000000000E+00 -0.00000000000E+00 -0.15676983600E+03  0.15676983600E+03  0.00000000000E+00 0. -1.
         24    2    1    2    0    0 -0.16334734850E+02 -0.25171226502E+02 -0.99058029286E+02  0.13056817511E+03  0.79593598858E+02 0.  0.
         25    2    1    2    0    0 -0.18982246870E+02  0.11982386762E+02  0.72027522845E+02  0.14607823081E+03  0.12508789782E+03 0.  0.
        -24    2    1    2    0    0  0.35316981720E+02  0.13188839741E+02  0.38465059176E+03  0.39451335139E+03  0.79142099996E+02 0.  0.
        -11    1    3    3    0    0  0.83647839499E+01  0.14308737198E+02  0.43687988858E+01  0.17140477661E+02  0.00000000000E+00 0.  1.
         12    1    3    3    0    0 -0.24699518799E+02 -0.39479963701E+02 -0.10342682817E+03  0.11342769745E+03  0.00000000000E+00 0. -1.
         13    1    5    5    0    0  0.13548085679E+02  0.22616733183E+02  0.35745113753E+03  0.35842207377E+03  0.00000000000E+00 0. -1.
        -14    1    5    5    0    0  0.21768896041E+02 -0.94278934424E+01  0.27199454227E+02  0.36091277614E+02  0.00000000000E+00 0.  1.
          5    1    4    4  501    0 -0.35900924068E+01  0.47837040341E+02  0.90646752463E+02  0.10264296042E+03  0.41800000000E+01 0. -1.
         -5    1    4    4    0  501 -0.15392154464E+02 -0.35854653580E+02 -0.18619229618E+02  0.43435270391E+02  0.41800000000E+01 0. -1.
</event>
<event>
11    1  0.1003949E-008  0.2059410E+03  0.7561462E-02  0.1050400E+00
         22   -1    0    0    0    0  0.00000000000E+00  0.00000000000E+00  0.33871083757E+03  0.33871083757E+03  0.00000000000E+00 0. -1.
         22   -1    0    0    0    0 -0.00000000000E+00 -0.00000000000E+00 -0.69986388264E+03  0.69986388264E+03  0.00000000000E+00 0.  1.
         24    2    1    2    0    0  0.27403753558E+02  0.33037522939E+02 -0.40306264805E+03  0.41321402899E+03  0.80273855435E+02 0.  0.
         25    2    1    2    0    0 -0.16677148737E+03  0.51352110602E+02 -0.21939432424E+03  0.30697056523E+03  0.12508912879E+03 0.  0.
        -24    2    1    2    0    0  0.13936773382E+03 -0.84389633541E+02  0.26130392723E+03  0.31839012599E+03  0.80916960307E+02 0.  0.
        -11    1    3    3    0    0  0.41439281843E+02 -0.70128308411E+01 -0.27771228365E+03  0.28087453848E+03  0.00000000000E+00 0.  1.
         12    1    3    3    0    0 -0.14035528285E+02  0.40050353780E+02 -0.12535036440E+03  0.13233949051E+03  0.00000000000E+00 0. -1.
         13    1    5    5    0    0  0.69963563047E+02 -0.58708474297E+02  0.20805942297E+03  0.22722303712E+03  0.00000000000E+00 0. -1.
        -14    1    5    5    0    0  0.69404170769E+02 -0.25681159244E+02  0.53244504251E+02  0.91167088871E+02  0.00000000000E+00 0.  1.
          5    1    4    4  501    0 -0.16186885793E+03 -0.63792459024E+00 -0.15760265152E+03  0.22596017853E+03  0.41800000000E+01 0.  1.
         -5    1    4    4    0  501 -0.49026294446E+01  0.51990035192E+02 -0.61791672724E+02  0.81010386697E+02  0.41800000000E+01 0.  1.
</event>
<event>
11    1  0.1003949E-008  0.1380227E+03  0.7561462E-02  0.1109787E+00
         22   -1    0    0    0    0  0.00000000000E+00  0.00000000000E+00  0.31888973724E+03  0.31888973724E+03  0.00000000000E+00 0.  1.
         22   -1    0    0    0    0 -0.00000000000E+00 -0.00000000000E+00 -0.24708575189E+03  0.24708575189E+03  0.00000000000E+00 0.  1.
         24    2    1    2    0    0  0.43467660850E+01 -0.31234732543E+02 -0.15377935166E+03  0.17678069499E+03  0.81294663004E+02 0.  0.
         25    2    1    2    0    0 -0.14023009432E+02  0.84236200615E+02  0.11411802745E+02  0.15188855201E+03  0.12509005037E+03 0.  0.
        -24    2    1    2    0    0  0.96762433473E+01 -0.53001468072E+02  0.21417153426E+03  0.23730624213E+03  0.86844810798E+02 0.  0.
        -13    1    3    3    0    0 -0.13687436446E+02  0.79020070058E+01 -0.12254371598E+03  0.12355869034E+03  0.00000000000E+00 0.  1.
         14    1    3    3    0    0  0.18034202531E+02 -0.39136739549E+02 -0.31235635680E+02  0.53222004658E+02  0.00000000000E+00 0. -1.
         13    1    5    5    0    0  0.41636616480E+01 -0.45444848975E+02  0.34040817180E+02  0.56932834208E+02  0.00000000000E+00 0. -1.
        -14    1    5    5    0    0  0.55125816994E+01 -0.75566190976E+01  0.18013071708E+03  0.18037340792E+03  0.00000000000E+00 0.  1.
          5    1    4    4  501    0  0.14669704075E+02  0.10316435334E+03  0.34986678518E+02  0.10999829131E+03  0.41800000000E+01 0.  1.
         -5    1    4    4    0  501 -0.28692713507E+02 -0.18928152720E+02 -0.23574875773E+02  0.41890260700E+02  0.41800000000E+01 0.  1.
</event>
<event>
11    1  0.1003949E-008  0.1565120E+03  0.7561462E-02  0.1090405E+00
         22   -1    0    0    0    0  0.00000000000E+00  0.00000000000E+00  0.10127023268E+04  0.10127023268E+04  0.00000000000E+00 0. -1.
         22   -1    0    0    0    0 -0.00000000000E+00 -0.00000000000E+00 -0.60764424461E+03  0.60764424461E+03  0.00000000000E+00 0. -1.
        -24    2    1    2    0    0  0.31026837744E+02  0.49746871023E+02 -0.55501385317E+03  0.56382475988E+03  0.80128439406E+02 0.  0.
         25    2    1    2    0    0  0.65198307601E+02 -0.33572430631E+02  0.76310665629E+02  0.16385128353E+03  0.12508396386E+03 0.  0.
         24    2    1    2    0    0 -0.96225145345E+02 -0.16174440392E+02  0.88376126976E+03  0.89267052803E+03  0.79409058462E+02 0.  0.
        -11    1    5    5    0    0 -0.31772233118E+02 -0.40671305142E+02  0.25722176582E+03  0.26234836891E+03  0.00000000000E+00 0.  1.
         12    1    5    5    0    0 -0.64452912228E+02  0.24496864749E+02  0.62653950394E+03  0.63032215912E+03  0.00000000000E+00 0. -1.
         13    1    3    3    0    0  0.11399874853E+02  0.69456699592E+02 -0.43275569971E+03  0.43844234044E+03  0.00000000000E+00 0. -1.
        -14    1    3    3    0    0  0.19626962891E+02 -0.19709828569E+02 -0.12225815347E+03  0.12538241944E+03  0.00000000000E+00 0.  1.
          5    1    4    4  501    0  0.41886536779E+02  0.29612449547E+02  0.81265222317E+02  0.96191932560E+02  0.41800000000E+01 0. -1.
         -5    1    4    4    0  501  0.23311770823E+02 -0.63184880178E+02 -0.49545566879E+01  0.67659350972E+02  0.41800000000E+01 0. -1.
</event>
<event>
11    1  0.1003949E-008  0.1448593E+03  0.7561462E-02  0.1102250E+00
         22   -1    0    0    0    0  0.00000000000E+00  0.00000000000E+00  0.87958325307E+02  0.87958325307E+02  0.00000000000E+00 0.  1.
         22   -1    0    0    0    0 -0.00000000000E+00 -0.00000000000E+00 -0.11585687504E+04  0.11585687504E+04  0.00000000000E+00 0. -1.
        -24    2    1    2    0    0  0.60896084848E+02 -0.24129493730E+02 -0.75594375041E+03  0.76293251044E+03  0.79526700438E+02 0.  0.
         25    2    1    2    0    0 -0.11959824116E+03  0.17892156949E+02 -0.33875570468E+03  0.38082354945E+03  0.12508908745E+03 0.  0.
         24    2    1    2    0    0  0.58702156314E+02  0.62373367803E+01  0.24089030040E+02  0.10277101577E+03  0.80602436612E+02 0.  0.
        -11    1    5    5    0    0  0.78425312084E+02  0.11545253930E+02  0.21830539207E+02  0.82221620672E+02  0.00000000000E+00 0.  1.
         12    1    5    5    0    0 -0.19723155770E+02 -0.53079171496E+01  0.22584908330E+01  0.20549395097E+02  0.00000000000E+00 0. -1.
         11    1    3    3    0    0  0.43225509604E+02 -0.10278706437E+02 -0.71379750946E+03  0.71517898529E+03  0.00000000000E+00 0. -1.
        -12    1    3    3    0    0  0.17670575245E+02 -0.13850787293E+02 -0.42146240955E+02  0.47753525155E+02  0.00000000000E+00 0.  1.
          5    1    4    4  501    0 -0.54289037265E+02 -0.30504641579E+01 -0.29355395915E+03  0.29857663041E+03  0.41800000000E+01 0. -1.
         -5    1    4    4    0  501 -0.65309203898E+02  0.20942621107E+02 -0.45201745530E+02  0.82246919040E+02  0.41800000000E+01 0. -1.
</event>
<event>
11    1  0.1003949E-008  0.1727046E+03  0.7561462E-02  0.1075702E+00
         22   -1    0    0    0    0  0.00000000000E+00  0.00000000000E+00  0.10621486823E+04  0.10621486823E+04  0.00000000000E+00 0.  1.
         22   -1    0    0    0    0 -0.00000000000E+00 -0.00000000000E+00 -0.78344801668E+03  0.78344801668E+03  0.00000000000E+00 0. -1.
        -24    2    1    2    0    0 -0.17158364263E+02 -0.11959038138E+03 -0.75526436434E+03  0.76843373372E+03  0.73958598453E+02 0.  0.
         25    2    1    2    0    0 -0.43450938222E+02  0.46522277222E+02  0.28250549390E+03  0.31545128084E+03  0.12509136736E+03 0.  0.
         24    2    1    2    0    0  0.60609302485E+02  0.73068104157E+02  0.75145953604E+03  0.76171168439E+03  0.80627665527E+02 0.  0.
        -11    1    5    5    0    0 -0.17115892137E+02  0.19555155121E+02  0.25837280148E+03  0.25967645715E+03  0.00000000000E+00 0.  1.
         12    1    5    5    0    0  0.77725194622E+02  0.53512949035E+02  0.49308673456E+03  0.50203522724E+03  0.00000000000E+00 0. -1.
         13    1    3    3    0    0 -0.44125370108E+02 -0.77352893765E+02 -0.54857172856E+03  0.55575305652E+03  0.00000000000E+00 0. -1.
        -14    1    3    3    0    0  0.26967005844E+02 -0.42237487613E+02 -0.20669263579E+03  0.21268067720E+03  0.00000000000E+00 0.  1.
          5    1    4    4  501    0 -0.60033892754E+02  0.69977661011E+01  0.48753117463E+02  0.77764875567E+02  0.41800000000E+01 0.  1.
         -5    1    4    4    0  501  0.16582954532E+02  0.39524511121E+02  0.23375237644E+03  0.23768640527E+03  0.41800000000E+01 0.  1.
</event>
<event>
11    1  0.1003949E-008  0.1609437E+03  0.7561462E-02  0.1086193E+00
         22   -1    0    0    0    0  0.00000000000E+00  0.00000000000E+00  0.22149647075E+03  0.22149647075E+03  0.00000000000E+00 0.  1.
         22   -1    0    0    0    0 -0.00000000000E+00 -0.00000000000E+00 -0.17714629071E+04  0.17714629071E+04  0.00000000000E+00 0. -1.
        -24    2    1    2    0    0  0.14044308808E+01 -0.98927925831E+02 -0.14571604200E+04  0.14627139737E+04  0.80168398648E+02 0.  0.
         25    2    1    2    0    0 -0.71227403205E+01  0.12249865456E+03 -0.27679058358E+03  0.32759272287E+03  0.12508921265E+03 0.  0.
         24    2    1    2    0    0  0.57183094397E+01 -0.23570728724E+02  0.18398456723E+03  0.20265268135E+03  0.81421802756E+02 0.  0.
        -13    1    5    5    0    0  0.21370356540E+02 -0.40091847210E+02  0.53451881376E+02  0.70150922830E+02  0.00000000000E+00 0.  1.
         14    1    5    5    0    0 -0.15652047100E+02  0.16521118486E+02  0.13053268585E+03  0.13250175852E+03  0.00000000000E+00 0. -1.
         11    1    3    3    0    0 -0.25536870880E+02 -0.44454572239E+02 -0.10273657139E+04  0.10286440837E+04  0.00000000000E+00 0. -1.
        -12    1    3    3    0    0  0.26941301761E+02 -0.54473353592E+02 -0.42979470613E+03  0.43406989001E+03  0.00000000000E+00 0.  1.
          5    1    4    4  501    0  0.14992599040E+02  0.46206044096E+02 -0.23041609795E+03  0.23551820977E+03  0.41800000000E+01 0. -1.
         -5    1    4    4    0  501 -0.22115339361E+02  0.76292610459E+02 -0.46374485631E+02  0.92074513103E+02  0.41800000000E+01 0. -1.
</event>
<event>
11    1  0.1003949E-008  0.1313295E+03  0.7561462E-02  0.1117646E+00
         22   -1    0    0    0    0  0.00000000000E+00  0.00000000000E+00  0.85788585271E+03  0.85788585271E+03  0.00000000000E+00 0.  1.
         22   -1    0    0    0    0 -0.00000000000E+00 -0.00000000000E+00 -0.13257067772E+03  0.13257067772E+03  0.00000000000E+00 0. -1.
        -24    2    1    2    0    0  0.10719398361E+02  0.14858915029E+02 -0.77301022410E+02  0.11314102433E+03  0.80558987474E+02 0.  0.
         25    2    1    2    0    0 -0.44840333072E+02 -0.33196676664E+02  0.10145323700E+03  0.17044927053E+03  0.12509004642E+03 0.  0.
         24    2    1    2    0    0  0.34120934711E+02  0.18337761635E+02  0.70116296039E+03  0.70686623558E+03  0.80807588092E+02 0.  0.
        -13    1    5    5    0    0  0.54306313505E+02  0.25206495343E+01  0.60168422213E+03  0.60413527667E+03  0.00000000000E+00 0.  1.
         14    1    5    5    0    0 -0.20185378794E+02  0.15817112101E+02  0.99478738266E+02  0.10273095891E+03  0.00000000000E+00 0. -1.
         11    1    3    3    0    0 -0.12242461408E+02 -0.15737712398E+02 -0.71770802619E+02  0.74488935833E+02  0.00000000000E+00 0. -1.
        -12    1    3    3    0    0  0.22961859769E+02  0.30596627427E+02 -0.55302197905E+01  0.38652088493E+02  0.00000000000E+00 0.  1.
          5    1    4    4  501    0 -0.71980950853E+02  0.17375027293E+02  0.33437352966E+02  0.81355256944E+02  0.41800000000E+01 0.  1.
         -5    1    4    4    0  501  0.27140617781E+02 -0.50571703957E+02  0.68015884037E+02  0.89094013581E+02  0.41800000000E+01 0.  1.
</event>
<event>
11    1  0.1003949E-008  0.1351823E+03  0.7561462E-02  0.1113061E+00
         22   -1    0    0    0    0  0.00000000000E+00  0.00000000000E+00  0.27290841708E+04  0.27290841708E+04  0.00000000000E+00 0.  1.
         22   -1    0    0    0    0 -0.00000000000E+00 -0.00000000000E+00 -0.29028612964E+03  0.29028612964E+03  0.00000000000E+00 0. -1.
         24    2    1    2    0    0 -0.12957619819E+02 -0.15486022184E+02 -0.26596636256E+03  0.27853437070E+03  0.80222022224E+02 0.  0.
         25    2    1    2    0    0 -0.38878500113E+02  0.17375448295E+02  0.23761558074E+03  0.27188506959E+03  0.12508750090E+03 0.  0.
        -24    2    1    2    0    0  0.51836119931E+02 -0.18894261106E+01  0.24671488230E+04  0.24689508602E+04  0.78768533405E+02 0.  0.
        -13    1    3    3    0    0 -0.47860839894E+01 -0.30857993025E+02 -0.34970607611E+02  0.46883533678E+02  0.00000000000E+00 0.  1.
         14    1    3    3    0    0 -0.81715358293E+01  0.15371970840E+02 -0.23099575495E+03  0.23165083702E+03  0.00000000000E+00 0. -1.
         11    1    5    5    0    0  0.20186165913E+02  0.31973301229E+02  0.57909510679E+03  0.58032828295E+03  0.00000000000E+00 0. -1.
        -12    1    5    5    0    0  0.31649954018E+02 -0.33862727340E+02  0.18880537162E+04  0.18886225772E+04  0.00000000000E+00 0.  1.
          5    1    4    4  501    0  0.26492570434E+02  0.44419948606E+02  0.15274016204E+03  0.16131341427E+03  0.41800000000E+01 0. -1.
         -5    1    4    4    0  501 -0.65371070547E+02 -0.27044500311E+02  0.84875418701E+02  0.11057165532E+03  0.41800000000E+01 0. -1.
</event>
<event>
11    1  0.1003949E-008  0.2131006E+03  0.7561462E-02  0.1045628E+00
         22   -1    0    0    0    0  0.00000000000E+00  0.00000000000E+00  0.18701373934E+03  0.18701373934E+03  0.00000000000E+00 0. -1.
         22   -1    0    0    0    0 -0.00000000000E+00 -0.00000000000E+00 -0.43998756038E+04  0.43998756038E+04  0.00000000000E+00 0. -1.
         24    2    1    2    0    0 -0.14884040368E+03  0.82047082011E+02 -0.40728564015E+04  0.40773540827E+04  0.88158148646E+02 0.  0.
         25    2    1    2    0    0  0.25963285695E+03 -0.83116217600E+02 -0.18641863081E+03  0.35315257142E+03  0.12508919518E+03 0.  0.
        -24    2    1    2    0    0 -0.11079245326E+03  0.10691355895E+01  0.46413167844E+02  0.15638268902E+03  0.10012618301E+03 0.  0.
        -13    1    3    3    0    0  0.11585438544E+02  0.95280852772E+01 -0.39866995856E+03  0.39895205558E+03  0.00000000000E+00 0.  1.
         14    1    3    3    0    0 -0.16042584223E+03  0.72518996734E+02 -0.36741864429E+04  0.36784020271E+04  0.00000000000E+00 0. -1.
         13    1    5    5    0    0 -0.12493677775E+03 -0.13930261999E+02  0.28113975552E+02  0.12881632760E+03  0.00000000000E+00 0. -1.
        -14    1    5    5    0    0  0.14144324490E+02  0.14999397588E+02  0.18299192292E+02  0.27566361418E+02  0.00000000000E+00 0.  1.
          5    1    4    4  501    0  0.24483075031E+03 -0.77631565691E+02 -0.11776920866E+03  0.28258771239E+03  0.41800000000E+01 0. -1.
         -5    1    4    4    0  501  0.14802106640E+02 -0.54846519097E+01 -0.68649422152E+02  0.70564859026E+02  0.41800000000E+01 0. -1.
</event>
<event>
11    1  0.1003949E-008  0.1326801E+03  0.7561462E-02  0.1116019E+00
         22   -1    0    0    0    0  0.00000000000E+00  0.00000000000E+00  0.29779589241E+03  0.29779589241E+03  0.00000000000E+00 0.  1.
         22   -1    0    0    0    0 -0.00000000000E+00 -0.00000000000E+00 -0.38784278182E+03  0.38784278182E+03  0.00000000000E+00 0.  1.
        -24    2    1    2    0    0 -0.32938566392E+02 -0.28317264823E+02 -0.33005482432E+03  0.34249359961E+03  0.80491378887E+02 0.  0.
         25    2    1    2    0    0  0.54048304135E+02  0.27142892168E+02  0.72736329308E+02  0.15683268537E+03  0.12509181358E+03 0.  0.
         24    2    1    2    0    0 -0.21109737743E+02  0.11743726551E+01  0.16727160559E+03  0.18631238925E+03  0.79281247295E+02 0.  0.
        -11    1    5    5    0    0  0.13448919358E+02  0.25284785640E+02  0.11825306319E+03  0.12167161037E+03  0.00000000000E+00 0.  1.
         12    1    5    5    0    0 -0.34558657101E+02 -0.24110412985E+02  0.49018542402E+02  0.64640778879E+02  0.00000000000E+00 0. -1.
         11    1    3    3    0    0  0.11623559887E+02 -0.65977865036E+01 -0.59683518223E+01  0.14637593882E+02  0.00000000000E+00 0. -1.
        -12    1    3    3    0    0 -0.44562126279E+02 -0.21719478319E+02 -0.32408647250E+03  0.32785600573E+03  0.00000000000E+00 0.  1.
          5    1    4    4  501    0  0.44665601700E+02 -0.21327981248E+02 -0.18503957025E+02  0.53007240873E+02  0.41800000000E+01 0.  1.
         -5    1    4    4    0  501  0.93827024351E+01  0.48470873416E+02  0.91240286333E+02  0.10382544450E+03  0.41800000000E+01 0.  1.
</event>
<event>
11    1  0.1003949E-008  0.2447485E+03  0.7561462E-02  0.1026735E+00
         22   -1    0    0    0    0  0.00000000000E+00  0.00000000000E+00  0.23058042148E+03  0.23058042148E+03  0.00000000000E+00 0.  1.
         22   -1    0    0    0    0 -0.00000000000E+00 -0.00000000000E+00 -0.68474991180E+03  0.68474991180E+03  0.00000000000E+00 0.  1.
         24    2    1    2    0    0 -0.73599666729E+02 -0.10087807589E+03 -0.34340059602E+03  0.37389940123E+03  0.79268504177E+02 0.  0.
         25    2    1    2    0    0 -0.15491795335E+03  0.41979964883E+02 -0.19160462154E+03  0.27950635723E+03  0.12509829343E+03 0.  0.
        -24    2    1    2    0    0  0.22851762008E+03  0.58898111011E+02  0.80835727237E+02  0.26192457482E+03  0.79879771702E+02 0.  0.
        -13    1    3    3    0    0 -0.87276006039E+02 -0.63193665977E+02 -0.24522849512E+03  0.26785734164E+03  0.00000000000E+00 0.  1.
         14    1    3    3    0    0  0.13676339310E+02 -0.37684409916E+02 -0.98172100898E+02  0.10604205959E+03  0.00000000000E+00 0. -1.
         11    1    5    5    0    0 -0.23071574914E+01 -0.74360858998E+01  0.74990712854E+01  0.10809922263E+02  0.00000000000E+00 0. -1.
        -12    1    5    5    0    0  0.23082477757E+03  0.66334196910E+02  0.73336655951E+02  0.25111465255E+03  0.00000000000E+00 0.  1.
          5    1    4    4  501    0 -0.25960501538E+01  0.33592898624E+02  0.75786606763E+00  0.33959815597E+02  0.41800000000E+01 0.  1.
         -5    1    4    4    0  501 -0.15232190320E+03  0.83870662586E+01 -0.19236248760E+03  0.24554654164E+03  0.41800000000E+01 0.  1.
</event>
<event>
11    1  0.1003949E-008  0.1258946E+03  0.7561462E-02  0.1124419E+00
         22   -1    0    0    0    0  0.00000000000E+00  0.00000000000E+00  0.10581695984E+03  0.10581695984E+03  0.00000000000E+00 0.  1.
         22   -1    0    0    0    0 -0.00000000000E+00 -0.00000000000E+00 -0.70332132864E+03  0.70332132864E+03  0.00000000000E+00 0.  1.
        -24    2    1    2    0    0  0.10196452013E+02  0.22542131901E+02 -0.54214473663E+03  0.54850321648E+03  0.79515707215E+02 0.  0.
         25    2    1    2    0    0 -0.19872339245E+02 -0.10403678299E+02 -0.10389157440E+03  0.16414656902E+03  0.12508992965E+03 0.  0.
         24    2    1    2    0    0  0.96758872322E+01 -0.12138453603E+02  0.48531942235E+02  0.96488502975E+02  0.81937274422E+02 0.  0.
        -13    1    5    5    0    0  0.30380534316E+02 -0.34613619672E+01  0.62828041555E+02  0.69873605157E+02  0.00000000000E+00 0.  1.
         14    1    5    5    0    0 -0.20704647084E+02 -0.86770916354E+01 -0.14296099321E+02  0.26614897818E+02  0.00000000000E+00 0. -1.
         13    1    3    3    0    0  0.24165393316E+02  0.47949948809E+02 -0.38192825891E+03  0.38568427344E+03  0.00000000000E+00 0. -1.
        -14    1    3    3    0    0 -0.13968941303E+02 -0.25407816907E+02 -0.16021647772E+03  0.16281894305E+03  0.00000000000E+00 0.  1.
          5    1    4    4  501    0  0.19817722044E+02  0.36076822518E+01 -0.11782927556E+03  0.11961173879E+03  0.41800000000E+01 0. -1.
         -5    1    4    4    0  501 -0.39690061289E+02 -0.14011360551E+02  0.13937701160E+02  0.44534830226E+02  0.41800000000E+01 0. -1.
</event>
<event>
11    1  0.1003949E-008  0.1531324E+03  0.7561462E-02  0.1093720E+00
         22   -1    0    0    0    0  0.00000000000E+00  0.00000000000E+00  0.10780450800E+04  0.10780450800E+04  0.00000000000E+00 0.  1.
         22   -1    0    0    0    0 -0.00000000000E+00 -0.00000000000E+00 -0.37335088976E+03  0.37335088976E+03  0.00000000000E+00 0. -1.
         24    2    1    2    0    0 -0.76975752733E+02 -0.43190630281E+02 -0.33807216608E+03  0.35879338547E+03  0.81542669355E+02 0.  0.
         25    2    1    2    0    0  0.45444365987E+02  0.10481624445E+03  0.34032199988E+03  0.38014821664E+03  0.12506785164E+03 0.  0.
        -24    2    1    2    0    0  0.31531386746E+02 -0.61625614164E+02  0.70244435641E+03  0.71245436761E+03  0.96804996777E+02 0.  0.
        -11    1    3    3    0    0 -0.21065449422E+02  0.19792102078E+02 -0.42065674630E+02  0.51039214788E+02  0.00000000000E+00 0.  1.
         12    1    3    3    0    0 -0.55910303311E+02 -0.62982732359E+02 -0.29600649145E+03  0.30775417068E+03  0.00000000000E+00 0. -1.
         11    1    5    5    0    0  0.35796038156E+01 -0.14483685453E+02  0.10267337859E+02  0.18111016937E+02  0.00000000000E+00 0. -1.
        -12    1    5    5    0    0  0.27951782931E+02 -0.47141928711E+02  0.69217701855E+03  0.69434335067E+03  0.00000000000E+00 0.  1.
          5    1    4    4  501    0 -0.24520373490E+02 -0.14119819463E+02  0.36015220017E+02  0.45991156656E+02  0.41800000000E+01 0. -1.
         -5    1    4    4    0  501  0.69964739477E+02  0.11893606391E+03  0.30430677986E+03  0.33415705999E+03  0.41800000000E+01 0. -1.
</event>
<event>
11    1  0.1003949E-008  0.1641955E+03  0.7561462E-02  0.1083196E+00
         22   -1    0    0    0    0  0.00000000000E+00  0.00000000000E+00  0.13351154583E+04  0.13351154583E+04  0.00000000000E+00 0. -1.
         22   -1    0    0    0    0 -0.00000000000E+00 -0.00000000000E+00 -0.18253226225E+04  0.18253226225E+04  0.00000000000E+00 0.  1.
        -24    2    1    2    0    0 -0.15199797234E+02  0.24010874263E+02 -0.17244269149E+04  0.17264474086E+04  0.78516966480E+02 0.  0.
         25    2    1    2    0    0  0.76549347498E+02  0.63340667369E+02 -0.30177008930E+02  0.16257148383E+03  0.12508794004E+03 0.  0.
         24    2    1    2    0    0 -0.61349550264E+02 -0.87351541632E+02  0.12643967596E+04  0.12714191884E+04  0.80084504694E+02 0.  0.
        -13    1    5    5    0    0 -0.62645037795E+01  0.19533826149E+01  0.67896188713E+01  0.94423850621E+01  0.00000000000E+00 0.  1.
         14    1    5    5    0    0 -0.55085046484E+02 -0.89304924247E+02  0.12576071407E+04  0.12619768034E+04  0.00000000000E+00 0. -1.
         11    1    3    3    0    0 -0.43394864563E+02  0.51400552278E+01 -0.64010512732E+03  0.64159497228E+03  0.00000000000E+00 0. -1.
        -12    1    3    3    0    0  0.28195067329E+02  0.18870819035E+02 -0.10843217875E+04  0.10848524363E+04  0.00000000000E+00 0.  1.
          5    1    4    4  501    0  0.10882888644E+02 -0.68965849598E+01 -0.60238272131E+02  0.61742383973E+02  0.41800000000E+01 0.  1.
         -5    1    4    4    0  501  0.65666458854E+02  0.70237252329E+02  0.30061263201E+02  0.10082909986E+03  0.41800000000E+01 0.  1.
</event>
<event>
11    1  0.1003949E-008  0.1890615E+03  0.7561462E-02  0.1062540E+00
         22   -1    0    0    0    0  0.00000000000E+00  0.00000000000E+00  0.63207505554E+02  0.63207505554E+02  0.00000000000E+00 0. -1.
         22   -1    0    0    0    0 -0.00000000000E+00 -0.00000000000E+00 -0.19077521304E+04  0.19077521304E+04  0.00000000000E+00 0. -1.
         24    2    1    2    0    0 -0.11413797950E+03 -0.90349217515E+02 -0.13023076062E+04  0.13128867242E+04  0.80473535748E+02 0.  0.
         25    2    1    2    0    0  0.63152768480E+02  0.12482659066E+03 -0.52086637723E+03  0.55364225744E+03  0.12509203166E+03 0.  0.
        -24    2    1    2    0    0  0.50985211016E+02 -0.34477373140E+02 -0.21370641365E+02  0.10443065427E+03  0.81614191396E+02 0.  0.
        -11    1    3    3    0    0 -0.54029928459E+02 -0.57789058382E+02 -0.38550037529E+03  0.39353443024E+03  0.00000000000E+00 0.  1.
         12    1    3    3    0    0 -0.60108051038E+02 -0.32560159134E+02 -0.91680723095E+03  0.91935229401E+03  0.00000000000E+00 0. -1.
         11    1    5    5    0    0  0.70854365341E+02 -0.22687705558E+02 -0.22353063361E+01  0.74431644251E+02  0.00000000000E+00 0. -1.
        -12    1    5    5    0    0 -0.19869154325E+02 -0.11789667583E+02 -0.19135335029E+02  0.29999010016E+02  0.00000000000E+00 0.  1.
          5    1    4    4  501    0  0.28140450233E+01  0.71276866319E+01  0.58822018908E+01  0.10525942485E+02  0.41800000000E+01 0. -1.
         -5    1    4    4    0  501  0.60338723456E+02  0.11769890402E+03 -0.52674857913E+03  0.54311631495E+03  0.41800000000E+01 0. -1.
</event>
<event>
11    1  0.1003949E-008  0.1355797E+03  0.7561462E-02  0.1112597E+00
         22   -1    0    0    0    0  0.00000000000E+00  0.00000000000E+00  0.16290337328E+04  0.16290337328E+04  0.00000000000E+00 0. -1.
         22   -1    0    0    0    0 -0.00000000000E+00 -0.00000000000E+00 -0.56069908323E+02  0.56069908323E+02  0.00000000000E+00 0.  1.
         24    2    1    2    0    0  0.46173864869E+02  0.31046945628E+02  0.13512579322E+02  0.99492401457E+02  0.81364669962E+02 0.  0.
         25    2    1    2    0    0 -0.25580536014E+02 -0.16761672316E+02  0.35479773684E+03  0.37744439835E+03  0.12509005676E+03 0.  0.
        -24    2    1    2    0    0 -0.20593328855E+02 -0.14285273312E+02  0.12046535084E+04  0.12081668414E+04  0.88593945191E+02 0.  0.
        -11    1    3    3    0    0  0.60094472386E+02  0.19127271484E+02 -0.15715779569E+02  0.64993721645E+02  0.00000000000E+00 0.  1.
         12    1    3    3    0    0 -0.13920607517E+02  0.11919674144E+02  0.29228358891E+02  0.34498679813E+02  0.00000000000E+00 0. -1.
         13    1    5    5    0    0 -0.28776989659E+02  0.32907007104E+02  0.51489620029E+03  0.51674856876E+03  0.00000000000E+00 0. -1.
        -14    1    5    5    0    0  0.81836608039E+01 -0.47192280416E+02  0.68975730807E+03  0.69141827259E+03  0.00000000000E+00 0.  1.
          5    1    4    4  501    0 -0.58449098579E+02 -0.99760047680E+01  0.33049341264E+03  0.33579634601E+03  0.41800000000E+01 0.  1.
         -5    1    4    4    0  501  0.32868562565E+02 -0.67856675481E+01  0.24304324200E+02  0.41648052343E+02  0.41800000000E+01 0.  1.
</event>
<event>
11    1  0.1003949E-008  0.1576294E+03  0.7561462E-02  0.1089328E+00
         22   -1    0    0    0    0  0.00000000000E+00  0.00000000000E+00  0.63729570587E+03  0.63729570587E+03  0.00000000000E+00 0.  1.
         22   -1    0    0    0    0 -0.00000000000E+00 -0.00000000000E+00 -0.15366209370E+03  0.15366209370E+03  0.00000000000E+00 0.  1.
         24    2    1    2    0    0 -0.50504370231E+02 -0.19303960998E+02 -0.35285957026E+02  0.10379982977E+03  0.81277128238E+02 0.  0.
         25    2    1    2    0    0  0.97510796590E+02 -0.63296008927E+02  0.18970464099E+02  0.17182035334E+03  0.12509042776E+03 0.  0.
        -24    2    1    2    0    0 -0.47006426359E+02  0.82599969924E+02  0.49994910511E+03  0.51533761646E+03  0.81187388731E+02 0.  0.
        -11    1    3    3    0    0 -0.64034155984E+02 -0.15671370192E+01 -0.46188933702E+02  0.78969909760E+02  0.00000000000E+00 0.  1.
         12    1    3    3    0    0  0.13529785753E+02 -0.17736823979E+02  0.10902976676E+02  0.24829920011E+02  0.00000000000E+00 0. -1.
         11    1    5    5    0    0 -0.41163703155E+02  0.24446310867E+01  0.11722593588E+03  0.12426723913E+03  0.00000000000E+00 0. -1.
        -12    1    5    5    0    0 -0.58427232037E+01  0.80155338838E+02  0.38272316923E+03  0.39107037733E+03  0.00000000000E+00 0.  1.
          5    1    4    4  501    0  0.51194590768E+02 -0.80801234562E+02  0.55022438881E+02  0.11042946532E+03  0.41800000000E+01 0.  1.
         -5    1    4    4    0  501  0.46316205823E+02  0.17505225636E+02 -0.36051974781E+02  0.61390888021E+02  0.41800000000E+01 0.  1.
</event>
<event>
11    1  0.1003949E-008  0.1325383E+03  0.7561462E-02  0.1116189E+00
         22   -1    0    0    0    0  0.00000000000E+00  0.00000000000E+00  0.14325718408E+04  0.14325718408E+04  0.00000000000E+00 0.  1.
         22   -1    0    0    0    0 -0.00000000000E+00 -0.00000000000E+00 -0.19859341737E+04  0.19859341737E+04  0.00000000000E+00 0. -1.
         24    2    1    2    0    0 -0.13252063346E+02  0.15444227003E+01 -0.17082728022E+04  0.17102953333E+04  0.82074098990E+02 0.  0.
         25    2    1    2    0    0 -0.25906584062E+02  0.18245334756E+02 -0.25994431949E+03  0.29021147631E+03  0.12509040096E+03 0.  0.
        -24    2    1    2    0    0  0.39158647407E+02 -0.19789757456E+02  0.14148547889E+04  0.14179992049E+04  0.83562176004E+02 0.  0.
        -11    1    3    3    0    0 -0.33264213083E+02 -0.18647169153E+02 -0.42493238659E+03  0.42664008012E+03  0.00000000000E+00 0.  1.
         12    1    3    3    0    0  0.20012149737E+02  0.20191591854E+02 -0.12833404157E+04  0.12836552532E+04  0.00000000000E+00 0. -1.
         11    1    5    5    0    0  0.25819163464E+01 -0.28600270530E+00  0.61126681501E-01  0.25984276089E+01  0.00000000000E+00 0. -1.
        -12    1    5    5    0    0  0.36576731061E+02 -0.19503754751E+02  0.14147936622E+04  0.14154007773E+04  0.00000000000E+00 0.  1.
          5    1    4    4  501    0  0.46603846764E+02  0.10648743514E+02 -0.56899355714E+02  0.74433348388E+02  0.41800000000E+01 0. -1.
         -5    1    4    4    0  501 -0.72510430825E+02  0.75965912418E+01 -0.20304496377E+03  0.21577812792E+03  0.41800000000E+01 0. -1.
</event>
<event>
11    1  0.1003949E-008  0.1654929E+03  0.7561462E-02  0.1082022E+00
         22   -1    0    0    0    0  0.00000000000E+00  0.00000000000E+00  0.73425801224E+03  0.73425801224E+03  0.00000000000E+00 0. -1.
         22   -1    0    0    0    0 -0.00000000000E+00 -0.00000000000E+00 -0.10927222875E+04  0.10927222875E+04  0.00000000000E+00 0.  1.
         24    2    1    2    0    0 -0.10721755978E+03 -0.19083169902E+02 -0.10516557164E+04  0.10606702869E+04  0.84746322834E+02 0.  0.
         25    2    1    2    0    0  0.87559021627E+02  0.19894923958E+01  0.14620660704E+03  0.21141028145E+03  0.12508954718E+03 0.  0.
        -24    2    1    2    0    0  0.19658538155E+02  0.17093677506E+02  0.54698483411E+03  0.55489973135E+03  0.89680829456E+02 0.  0.
        -13    1    3    3    0    0 -0.17564032298E+01 -0.29629497250E+02 -0.32069257299E+03  0.32206322117E+03  0.00000000000E+00 0.  1.
         14    1    3    3    0    0 -0.10546115655E+03  0.10546327348E+02 -0.73096314340E+03  0.73860706574E+03  0.00000000000E+00 0. -1.
         11    1    5    5    0    0 -0.26463996863E+01  0.24940573701E+02  0.51234939724E+03  0.51296290363E+03  0.00000000000E+00 0. -1.
        -12    1    5    5    0    0  0.22304937841E+02 -0.78468961951E+01  0.34635436870E+02  0.41936827720E+02  0.00000000000E+00 0.  1.
          5    1    4    4  501    0  0.74111828137E+02 -0.41541686357E+02  0.14191692998E+03  0.16545743317E+03  0.41800000000E+01 0.  1.
         -5    1    4    4    0  501  0.13447193490E+02  0.43531178753E+02  0.42896770642E+01  0.45952848287E+02  0.41800000000E+01 0.  1.
</event>
<event>
11    1  0.1003949E-008  0.1470897E+03  0.7561462E-02  0.1099890E+00
         22   -1    0    0    0    0  0.00000000000E+00  0.00000000000E+00  0.80781083464E+02  0.80781083464E+02  0.00000000000E+00 0.  1.
         22   -1    0    0    0    0 -0.00000000000E+00 -0.00000000000E+00 -0.22732102336E+04  0.22732102336E+04  0.00000000000E+00 0.  1.
         24    2    1    2    0    0 -0.80230067265E+02  0.14469745588E+02 -0.19417182640E+04  0.19448597858E+04  0.74589088413E+02 0.  0.
         25    2    1    2    0    0  0.85162021395E+02  0.63090083324E+02 -0.24785201765E+03  0.29717118133E+03  0.12508860803E+03 0.  0.
        -24    2    1    2    0    0 -0.49319541308E+01 -0.77559828912E+02 -0.28588684439E+01  0.11196034997E+03  0.80542508063E+02 0.  0.
        -13    1    3    3    0    0 -0.48283135114E+02  0.25864617271E+02 -0.16875068999E+04  0.16883956221E+04  0.00000000000E+00 0.  1.
         14    1    3    3    0    0 -0.31946932151E+02 -0.11394871683E+02 -0.25421136419E+03  0.25646416369E+03  0.00000000000E+00 0. -1.
         13    1    5    5    0    0 -0.36136722971E+02 -0.15834664875E+02 -0.14081200184E+02  0.41891282594E+02  0.00000000000E+00 0. -1.
        -14    1    5    5    0    0  0.31204768840E+02 -0.61725164037E+02  0.11222331740E+02  0.70069067379E+02  0.00000000000E+00 0.  1.
          5    1    4    4  501    0  0.17391491049E+02 -0.28190731092E+02 -0.12290922235E+02  0.35576965157E+02  0.41800000000E+01 0. -1.
         -5    1    4    4    0  501  0.67770530346E+02  0.91280814415E+02 -0.23556109542E+03  0.26159421618E+03  0.41800000000E+01 0. -1.
</event>
<event>
11    1  0.1003949E-008  0.2247865E+03  0.7561462E-02  0.1038260E+00
         22   -1    0    0    0    0  0.00000000000E+00  0.00000000000E+00  0.14836060626E+04  0.14836060626E+04  0.00000000000E+00 0. -1.
         22   -1    0    0    0    0 -0.00000000000E+00 -0.00000000000E+00 -0.51850896599E+03  0.51850896599E+03  0.00000000000E+00 0.  1.
         24    2    1    2    0    0 -0.13321728419E+03 -0.84274720724E+02 -0.35263492760E+03  0.39435335048E+03  0.79461308250E+02 0.  0.
         25    2    1    2    0    0  0.12929265287E+03 -0.10701223494E+03 -0.57337668163E+02  0.21703323703E+03  0.12509040439E+03 0.  0.
        -24    2    1    2    0    0  0.39246313205E+01  0.19128695566E+03  0.13750696923E+04  0.13907284410E+04  0.81870848554E+02 0.  0.
        -13    1    3    3    0    0 -0.11062920097E+03 -0.27523200479E+02 -0.20469717118E+03  0.23430168279E+03  0.00000000000E+00 0.  1.
         14    1    3    3    0    0 -0.22588083229E+02 -0.56751520245E+02 -0.14793775642E+03  0.16005166768E+03  0.00000000000E+00 0. -1.
         11    1    5    5    0    0 -0.20600037736E+02  0.10984210842E+03  0.54686679790E+03  0.55816927986E+03  0.00000000000E+00 0. -1.
        -12    1    5    5    0    0  0.24524669057E+02  0.81444847242E+02  0.82820289442E+03  0.83255916118E+03  0.00000000000E+00 0.  1.
          5    1    4    4  501    0  0.35912989032E+02 -0.10271952832E+03 -0.58166403692E+02  0.12345787621E+03  0.41800000000E+01 0.  1.
         -5    1    4    4    0  501  0.93379663842E+02 -0.42927066200E+01  0.82873552910E+00  0.93575360817E+02  0.41800000000E+01 0.  1.
</event>
<event>
11    1  0.1003949E-008  0.1275410E+03  0.7561462E-02  0.1122328E+00
         22   -1    0    0    0    0  0.00000000000E+00  0.00000000000E+00  0.58348837162E+03  0.58348837162E+03  0.00000000000E+00 0. -1.
         22   -1    0    0    0    0 -0.00000000000E+00 -0.00000000000E+00 -0.78128267517E+03  0.78128267517E+03  0.00000000000E+00 0. -1.
         24    2    1    2    0    0  0.13567227387E+02 -0.73301119433E+00 -0.70013374169E+03  0.70485583374E+03  0.80311164425E+02 0.  0.
         25    2    1    2    0    0 -0.54265666015E+01  0.24354564087E+02 -0.21451019523E+02  0.12935553796E+03  0.12510042584E+03 0.  0.
        -24    2    1    2    0    0 -0.81406607856E+01 -0.23621552893E+02  0.52379045767E+03  0.53055967510E+03  0.80702398828E+02 0.  0.
        -13    1    3    3    0    0 -0.29832801605E+02 -0.15692999202E+02 -0.22522450537E+03  0.22773305446E+03  0.00000000000E+00 0.  1.
         14    1    3    3    0    0  0.43400028992E+02  0.14959988008E+02 -0.47490923632E+03  0.47712277927E+03  0.00000000000E+00 0. -1.
         11    1    5    5    0    0 -0.95653939761E+01  0.62999317622E+01  0.45939594576E+03  0.45953870444E+03  0.00000000000E+00 0. -1.
        -12    1    5    5    0    0  0.14247331905E+01 -0.29921484655E+02  0.64394511909E+02  0.71020970654E+02  0.00000000000E+00 0.  1.
          5    1    4    4  501    0 -0.43019255951E+02 -0.21464083857E+02  0.24616725980E+02  0.54173968624E+02  0.41800000000E+01 0.  1.
         -5    1    4    4    0  501  0.37592689350E+02  0.45818647944E+02 -0.46067745503E+02  0.75181569335E+02  0.41800000000E+01 0.  1.
</event>
<event>
11    1  0.1003949E-008  0.1405493E+03  0.7561462E-02  0.1106947E+00
         22   -1    0    0    0    0  0.00000000000E+00  0.00000000000E+00  0.36657556839E+03  0.36657556839E+03  0.00000000000E+00 0. -1.
         22   -1    0    0    0    0 -0.00000000000E+00 -0.00000000000E+00 -0.54033696997E+03  0.54033696997E+03  0.00000000000E+00 0.  1.
         24    2    1    2    0    0  0.50879621420E+02  0.38514711698E+02 -0.48101542712E+03  0.49170127531E+03  0.79512163370E+02 0.  0.
         25    2    1    2    0    0 -0.69260248210E+02 -0.23560218382E+02  0.63518473075E+02  0.15822273255E+03  0.12509105005E+03 0.  0.
        -24    2    1    2    0    0  0.18380626790E+02 -0.14954493316E+02  0.24373555246E+03  0.25698853050E+03  0.77939726494E+02 0.  0.
        -13    1    3    3    0    0  0.57977397540E+02  0.34238149976E+02 -0.47824833171E+03  0.48296490175E+03  0.00000000000E+00 0.  1.
         14    1    3    3    0    0 -0.70977761199E+01  0.42765617228E+01 -0.27670954100E+01  0.87363735626E+01  0.00000000000E+00 0. -1.
         11    1    5    5    0    0  0.78406079536E+01  0.24714501732E+01  0.23447039334E+03  0.23461446791E+03  0.00000000000E+00 0. -1.
        -12    1    5    5    0    0  0.10540018837E+02 -0.17425943490E+02  0.92651591232E+01  0.22374062598E+02  0.00000000000E+00 0.  1.
          5    1    4    4  501    0  0.17688681189E+02 -0.14003268680E+02  0.66757469500E+02  0.70590460474E+02  0.41800000000E+01 0. -1.
         -5    1    4    4    0  501 -0.86948929400E+02 -0.95569497022E+01 -0.32389964248E+01  0.87632272076E+02  0.41800000000E+01 0. -1.
</event>
<event>
11    1  0.1003949E-008  0.7111216E+03  0.7561462E-02  0.9016074E-01
         22   -1    0    0    0    0  0.00000000000E+00  0.00000000000E+00  0.15012625712E+04  0.15012625712E+04  0.00000000000E+00 0. -1.
         22   -1    0    0    0    0 -0.00000000000E+00 -0.00000000000E+00 -0.14350012195E+04  0.14350012195E+04  0.00000000000E+00 0.  1.
         24    2    1    2    0    0 -0.32613971431E+03  0.60430871936E+03 -0.10672021431E+04  0.12711355087E+04  0.72862375187E+02 0.  0.
         25    2    1    2    0    0  0.32946636077E+03 -0.70625572642E+03  0.33730730239E+03  0.85835224202E+03  0.12508845330E+03 0.  0.
        -24    2    1    2    0    0 -0.33266464642E+01  0.10194700706E+03  0.79615619238E+03  0.80677603998E+03  0.81355007104E+02 0.  0.
        -13    1    3    3    0    0 -0.18622424014E+03  0.41357506293E+03 -0.67973078173E+03  0.81716444852E+03  0.00000000000E+00 0.  1.
         14    1    3    3    0    0 -0.13991547417E+03  0.19073365643E+03 -0.38747136133E+03  0.45397106016E+03  0.00000000000E+00 0. -1.
         13    1    5    5    0    0 -0.17466090594E+02  0.10642913344E+03  0.56869799748E+03  0.57883472348E+03  0.00000000000E+00 0. -1.
        -14    1    5    5    0    0  0.14139444130E+02 -0.44821263848E+01  0.22745819491E+03  0.22794131650E+03  0.00000000000E+00 0.  1.
          5    1    4    4  501    0  0.21857375992E+03 -0.56837490065E+03  0.29357450101E+03  0.67603844288E+03  0.41800000000E+01 0. -1.
         -5    1    4    4    0  501  0.11089260085E+03 -0.13788082577E+03  0.43732801388E+02  0.18231379914E+03  0.41800000000E+01 0. -1.
</event>
<event>
11    1  0.1003949E-008  0.1314770E+03  0.7561462E-02  0.1117467E+00
         22   -1    0    0    0    0  0.00000000000E+00  0.00000000000E+00  0.43975808593E+03  0.43975808593E+03  0.00000000000E+00 0.  1.
         22   -1    0    0    0    0 -0.00000000000E+00 -0.00000000000E+00 -0.21193158904E+04  0.21193158904E+04  0.00000000000E+00 0.  1.
         24    2    1    2    0    0  0.15571011857E+02 -0.37235607595E+02 -0.20546053389E+04  0.20565767192E+04  0.80472083128E+02 0.  0.
         25    2    1    2    0    0 -0.34520362051E+02  0.38870897820E+02  0.19485779676E+02  0.13685988424E+03  0.12509328604E+03 0.  0.
        -24    2    1    2    0    0  0.18949350194E+02 -0.16352902252E+01  0.35556175476E+03  0.36563737296E+03  0.83094975847E+02 0.  0.
        -11    1    3    3    0    0  0.13319003634E+02  0.13811582980E+02 -0.13438812701E+04  0.13440182379E+04  0.00000000000E+00 0.  1.
         12    1    3    3    0    0  0.22520082230E+01 -0.51047190574E+02 -0.71072406886E+03  0.71255848129E+03  0.00000000000E+00 0. -1.
         13    1    5    5    0    0  0.48630900458E+02 -0.14371524859E+02  0.17456265830E+03  0.18177906062E+03  0.00000000000E+00 0. -1.
        -14    1    5    5    0    0 -0.29681550264E+02  0.12736234634E+02  0.18099909646E+03  0.18385831234E+03  0.00000000000E+00 0.  1.
          5    1    4    4  501    0  0.13358676412E+02  0.50771416357E+02  0.54830118830E+02  0.76026345994E+02  0.41800000000E+01 0. -1.
         -5    1    4    4    0  501 -0.47879038463E+02 -0.11900518537E+02 -0.35344339154E+02  0.60833538248E+02  0.41800000000E+01 0. -1.
</event>
<event>
11    1  0.1003949E-008  0.1475863E+03  0.7561462E-02  0.1099371E+00
         22   -1    0    0    0    0  0.00000000000E+00  0.00000000000E+00  0.14455559687E+03  0.14455559687E+03  0.00000000000E+00 0. -1.
         22   -1    0    0    0    0 -0.00000000000E+00 -0.00000000000E+00 -0.46228400333E+03  0.46228400333E+03  0.00000000000E+00 0.  1.
        -24    2    1    2    0    0 -0.21546671392E+02  0.42095177009E+02 -0.23468370944E+03  0.25283971317E+03  0.81333966467E+02 0.  0.
         25    2    1    2    0    0 -0.55951797875E+02 -0.60428004849E+02 -0.15769780598E+03  0.21748514143E+03  0.12509612815E+03 0.  0.
         24    2    1    2    0    0  0.77498469267E+02  0.18332827840E+02  0.74653108968E+02  0.13651474560E+03  0.81982216195E+02 0.  0.
        -13    1    5    5    0    0  0.11541391537E+02 -0.33665365946E+01 -0.17437936433E+02  0.21180625918E+02  0.00000000000E+00 0.  1.
         14    1    5    5    0    0  0.65957077730E+02  0.21699364435E+02  0.92091045401E+02  0.11533411968E+03  0.00000000000E+00 0. -1.
         13    1    3    3    0    0 -0.34970321823E+02  0.13732745619E+02 -0.37173472032E+02  0.52852424103E+02  0.00000000000E+00 0. -1.
        -14    1    3    3    0    0  0.13423650431E+02  0.28362431390E+02 -0.19751023741E+03  0.19998728907E+03  0.00000000000E+00 0.  1.
          5    1    4    4  501    0  0.33450859578E+02 -0.59517566938E+01 -0.80084833473E+02  0.87094410651E+02  0.41800000000E+01 0.  1.
         -5    1    4    4    0  501 -0.89402657453E+02 -0.54476248155E+02 -0.77612972506E+02  0.13039073078E+03  0.41800000000E+01 0.  1.
</event>
<event>
11    1  0.1003949E-008  0.1558403E+03  0.7561462E-02  0.1091056E+00
         22   -1    0    0    0    0  0.00000000000E+00  0.00000000000E+00  0.11505024897E+04  0.11505024897E+04  0.00000000000E+00 0. -1.
         22   -1    0    0    0    0 -0.00000000000E+00 -0.00000000000E+00 -0.43141190563E+03  0.43141190563E+03  0.00000000000E+00 0.  1.
        -24    2    1    2    0    0  0.25004523792E+02 -0.95076136068E+02 -0.38716972728E+03  0.40777853418E+03  0.81964854373E+02 0.  0.
         25    2    1    2    0    0  0.18785651603E+02  0.27680184278E+02  0.10586827038E+03  0.16724159844E+03  0.12507025333E+03 0.  0.
         24    2    1    2    0    0 -0.43790175394E+02  0.67395951791E+02  0.10003920410E+04  0.10068942627E+04  0.81191297809E+02 0.  0.
        -11    1    5    5    0    0 -0.21828833803E+02  0.53759023037E+02  0.27560284681E+03  0.28164420767E+03  0.00000000000E+00 0.  1.
         12    1    5    5    0    0 -0.21961341591E+02  0.13636928754E+02  0.72478919419E+03  0.72525005506E+03  0.00000000000E+00 0. -1.
         13    1    3    3    0    0  0.41715763701E+02 -0.13935268454E+02 -0.10913732148E+03  0.11766627209E+03  0.00000000000E+00 0. -1.
        -14    1    3    3    0    0 -0.16711239910E+02 -0.81140867615E+02 -0.27803240580E+03  0.29011226209E+03  0.00000000000E+00 0.  1.
          5    1    4    4  501    0 -0.16214678783E+02 -0.45361281329E+02  0.38466770871E+02  0.61787753747E+02  0.41800000000E+01 0.  1.
         -5    1    4    4    0  501  0.35000330385E+02  0.73041465606E+02  0.67401499506E+02  0.10545384469E+03  0.41800000000E+01 0.  1.
</event>
<event>
11    1  0.1389435E-008  0.1867649E+03  0.7561462E-02  0.1064299E+00
         22   -1    0    0    0    0  0.00000000000E+00  0.00000000000E+00  0.17958691968E+04  0.17958691968E+04  0.00000000000E+00 0. -1.
         22   -1    0    0    0    0 -0.00000000000E+00 -0.00000000000E+00 -0.89934739604E+03  0.89934739604E+03  0.00000000000E+00 0.  1.
         24    2    1    2    0    0  0.76456579906E+02 -0.19215533276E+02 -0.62597071777E+03  0.63647432797E+03  0.83936793653E+02 0.  0.
         25    2    1    2    0    0 -0.16846711926E+03  0.12177917584E+03 -0.20879177808E+03  0.32008171632E+03  0.12508781151E+03 0.  0.
        -24    2    1    2    0    0  0.92010539358E+02 -0.10256364256E+03  0.17312842966E+04  0.17386605485E+04  0.81301582225E+02 0.  0.
        -11    1    3    3    0    0  0.49945000130E+02 -0.34158307029E+02 -0.56598637502E+03  0.56921162118E+03  0.00000000000E+00 0.  1.
         12    1    3    3    0    0  0.26511579776E+02  0.14942773753E+02 -0.59984342751E+02  0.67262706791E+02  0.00000000000E+00 0. -1.
         11    1    5    5    0    0  0.49197002410E+02 -0.10119602669E+03  0.10449187215E+04  0.10509596165E+04  0.00000000000E+00 0. -1.
        -12    1    5    5    0    0  0.42813536948E+02 -0.13676158680E+01  0.68636557508E+03  0.68770093207E+03  0.00000000000E+00 0.  1.
          5    1    4    4  501    0  0.10074088046E+02 -0.44783709629E+01 -0.45858310652E+02  0.47349763593E+02  0.41800000000E+01 0. -1.
         -5    1    4    4    0  501 -0.17854120731E+03  0.12625754680E+03 -0.16293346742E+03  0.27273195273E+03  0.41800000000E+01 0. -1.
</event>
<event>
11    1  0.1003949E-008  0.1480895E+03  0.7561462E-02  0.1098847E+00
         22   -1    0    0    0    0  0.00000000000E+00  0.00000000000E+00  0.29836900472E+03  0.29836900472E+03  0.00000000000E+00 0. -1.
         22   -1    0    0    0    0 -0.00000000000E+00 -0.00000000000E+00 -0.14411626650E+03  0.14411626650E+03  0.00000000000E+00 0. -1.
         24    2    1    2    0    0 -0.60059535339E+02  0.15284720970E+02 -0.23179354078E+02  0.10477548602E+03  0.81239457997E+02 0.  0.
         25    2    1    2    0    0  0.46032205343E+02  0.68010016695E+02  0.36206402847E+02  0.15395845717E+03  0.12509187275E+03 0.  0.
        -24    2    1    2    0    0  0.14027329996E+02 -0.83294737665E+02  0.14122568944E+03  0.18375132803E+03  0.81762313342E+02 0.  0.
        -11    1    3    3    0    0 -0.43342376090E+02  0.78459346671E+01 -0.53538382138E+02  0.69328771934E+02  0.00000000000E+00 0.  1.
         12    1    3    3    0    0 -0.16717159248E+02  0.74387863028E+01  0.30359028059E+02  0.35446714089E+02  0.00000000000E+00 0. -1.
         13    1    5    5    0    0  0.43681307221E+02 -0.70114293318E+02  0.83058827182E+02  0.11714452399E+03  0.00000000000E+00 0. -1.
        -14    1    5    5    0    0 -0.29653977226E+02 -0.13180444346E+02  0.58166862262E+02  0.66606804036E+02  0.00000000000E+00 0.  1.
          5    1    4    4  501    0 -0.32589458424E+02 -0.10324531573E+02 -0.63496450760E+01  0.35020838727E+02  0.41800000000E+01 0. -1.
         -5    1    4    4    0  501  0.78621663767E+02  0.78334548268E+02  0.42556047923E+02  0.11893761844E+03  0.41800000000E+01 0. -1.
</event>
<event>
11    1  0.1003949E-008  0.1588780E+03  0.7561462E-02  0.1088137E+00
         22   -1    0    0    0    0  0.00000000000E+00  0.00000000000E+00  0.45235887273E+03  0.45235887273E+03  0.00000000000E+00 0.  1.
         22   -1    0    0    0    0 -0.00000000000E+00 -0.00000000000E+00 -0.18932379661E+04  0.18932379661E+04  0.00000000000E+00 0. -1.
        -24    2    1    2    0    0  0.85986231550E+02 -0.41671638652E+02 -0.16293842674E+04  0.16345138155E+04  0.87247719225E+02 0.  0.
         25    2    1    2    0    0 -0.13996277500E+03  0.82953907737E+01 -0.22094242994E+03  0.29003010935E+03  0.12507403843E+03 0.  0.
         24    2    1    2    0    0  0.53976543445E+02  0.33376247878E+02  0.40944760402E+03  0.42105291399E+03  0.74905105165E+02 0.  0.
        -13    1    5    5    0    0  0.25338901188E+02  0.55376111840E+02  0.22452216856E+03  0.23263442963E+03  0.00000000000E+00 0.  1.
         14    1    5    5    0    0  0.28637642257E+02 -0.21999863962E+02  0.18492543546E+03  0.18841848436E+03  0.00000000000E+00 0. -1.
         11    1    3    3    0    0  0.88850119363E+02 -0.42217878885E+02 -0.16284983214E+04  0.16314666640E+04  0.00000000000E+00 0. -1.
        -12    1    3    3    0    0 -0.28638878132E+01  0.54624023331E+00 -0.88594608793E+00  0.30471515010E+01  0.00000000000E+00 0.  1.
          5    1    4    4  501    0  0.20722273853E+02  0.56276493040E+01 -0.54021203252E+02  0.58282466241E+02  0.41800000000E+01 0. -1.
         -5    1    4    4    0  501 -0.16068504885E+03  0.26677414697E+01 -0.16692122669E+03  0.23174764311E+03  0.41800000000E+01 0. -1.
</event>
<event>
11    1  0.1003949E-008  0.2191419E+03  0.7561462E-02  0.1041756E+00
         22   -1    0    0    0    0  0.00000000000E+00  0.00000000000E+00  0.79391200718E+03  0.79391200718E+03  0.00000000000E+00 0.  1.
         22   -1    0    0    0    0 -0.00000000000E+00 -0.00000000000E+00 -0.25099770097E+04  0.25099770097E+04  0.00000000000E+00 0. -1.
         24    2    1    2    0    0 -0.63624530411E+02  0.16842731272E+03 -0.23933878520E+04  0.24015217541E+04  0.81150999719E+02 0.  0.
         25    2    1    2    0    0  0.66970619278E+02 -0.16404612325E+03 -0.31950952593E+01  0.21691514828E+03  0.12508308646E+03 0.  0.
        -24    2    1    2    0    0 -0.33460888671E+01 -0.43811894661E+01  0.68051794476E+03  0.68545211449E+03  0.81911763462E+02 0.  0.
        -13    1    3    3    0    0 -0.34752644993E+02  0.11753235672E+02 -0.57460262401E+03  0.57577257698E+03  0.00000000000E+00 0.  1.
         14    1    3    3    0    0 -0.28871885417E+02  0.15667407704E+03 -0.18187852280E+04  0.18257491771E+04  0.00000000000E+00 0. -1.
         11    1    5    5    0    0  0.15352656997E+02 -0.24355316531E+02  0.94324156287E+02  0.98620139827E+02  0.00000000000E+00 0. -1.
        -12    1    5    5    0    0 -0.18698745864E+02  0.19974127065E+02  0.58619378847E+03  0.58683197466E+03  0.00000000000E+00 0.  1.
          5    1    4    4  501    0 -0.61793147627E+01  0.17461547537E+02 -0.91680449965E+01  0.21085896291E+02  0.41800000000E+01 0.  1.
         -5    1    4    4    0  501  0.73149934040E+02 -0.18150767079E+03  0.59729497372E+01  0.19582925199E+03  0.41800000000E+01 0.  1.
</event>
<event>
11    1  0.1003949E-008  0.1309487E+03  0.7561462E-02  0.1118109E+00
         22   -1    0    0    0    0  0.00000000000E+00  0.00000000000E+00  0.15815741177E+04  0.15815741177E+04  0.00000000000E+00 0. -1.
         22   -1    0    0    0    0 -0.00000000000E+00 -0.00000000000E+00 -0.61110421954E+03  0.61110421954E+03  0.00000000000E+00 0.  1.
         24    2    1    2    0    0 -0.36774396583E+02 -0.11827060828E+02 -0.59705998336E+03  0.60375780051E+03  0.80935915042E+02 0.  0.
         25    2    1    2    0    0  0.43812094727E+02  0.45637857276E+02  0.54774958278E+03  0.56540191434E+03  0.12508959043E+03 0.  0.
        -24    2    1    2    0    0 -0.70376981441E+01 -0.33810796448E+02  0.10197802987E+04  0.10235186224E+04  0.80285823931E+02 0.  0.
        -13    1    3    3    0    0 -0.52999099195E+02  0.15017002685E+02 -0.45207266796E+03  0.45541641605E+03  0.00000000000E+00 0.  1.
         14    1    3    3    0    0  0.16224702612E+02 -0.26844063513E+02 -0.14498731539E+03  0.14834138447E+03  0.00000000000E+00 0. -1.
         11    1    5    5    0    0 -0.25482037858E+02 -0.27069090756E+02  0.95737240781E+03  0.95809393963E+03  0.00000000000E+00 0. -1.
        -12    1    5    5    0    0  0.18444339713E+02 -0.67417056922E+01  0.62407890938E+02  0.65424682761E+02  0.00000000000E+00 0.  1.
          5    1    4    4  501    0  0.23539946341E+02 -0.42930203463E+02  0.20157979941E+03  0.20748257607E+03  0.41800000000E+01 0.  1.
         -5    1    4    4    0  501  0.20272148386E+02  0.88568060739E+02  0.34616978337E+03  0.35791933826E+03  0.41800000000E+01 0.  1.
</event>
<event>
11    1  0.1003949E-008  0.1636440E+03  0.7561462E-02  0.1083699E+00
         22   -1    0    0    0    0  0.00000000000E+00  0.00000000000E+00  0.19250461656E+03  0.19250461656E+03  0.00000000000E+00 0. -1.
         22   -1    0    0    0    0 -0.00000000000E+00 -0.00000000000E+00 -0.29226853393E+04  0.29226853393E+04  0.00000000000E+00 0. -1.
         24    2    1    2    0    0  0.33715859694E+01 -0.10513236914E+00 -0.26647006064E+04  0.26659168570E+04  0.80448667949E+02 0.  0.
         25    2    1    2    0    0 -0.40662579250E+01 -0.10544157400E+03 -0.20177394537E+03  0.25978384345E+03  0.12506182594E+03 0.  0.
        -24    2    1    2    0    0  0.69467195554E+00  0.10554670637E+03  0.13629382905E+03  0.18948925537E+03  0.78673885556E+02 0.  0.
        -11    1    3    3    0    0  0.29811418201E+02 -0.19136399983E+02 -0.65880610542E+03  0.65975783966E+03  0.00000000000E+00 0.  1.
         12    1    3    3    0    0 -0.26439832232E+02  0.19031267613E+02 -0.20058945010E+04  0.20061590174E+04  0.00000000000E+00 0. -1.
         11    1    5    5    0    0 -0.21249363532E+02  0.10265194382E+03  0.12891699280E+03  0.16615820188E+03  0.00000000000E+00 0. -1.
        -12    1    5    5    0    0  0.21944035488E+02  0.28947625549E+01  0.73768362461E+01  0.23331053485E+02  0.00000000000E+00 0.  1.
          5    1    4    4  501    0 -0.33664739531E+02 -0.33193410949E+02 -0.46127275956E+01  0.47685080203E+02  0.41800000000E+01 0.  1.
         -5    1    4    4    0  501  0.29598481606E+02 -0.72248163053E+02 -0.19716121777E+03  0.21209876325E+03  0.41800000000E+01 0.  1.
</event>
<event>
11    1  0.1003949E-008  0.1714072E+03  0.7561462E-02  0.1076814E+00
         22   -1    0    0    0    0  0.00000000000E+00  0.00000000000E+00  0.81533440663E+03  0.81533440663E+03  0.00000000000E+00 0.  1.
         22   -1    0    0    0    0 -0.00000000000E+00 -0.00000000000E+00 -0.11541487896E+04  0.11541487896E+04  0.00000000000E+00 0. -1.
         24    2    1    2    0    0  0.30932810912E+02  0.98319296651E+02 -0.10082359018E+04  0.10165878568E+04  0.79295107346E+02 0.  0.
         25    2    1    2    0    0  0.87254388616E+02 -0.82904024345E+02 -0.79075376918E+02  0.19075408721E+03  0.12509117063E+03 0.  0.
        -24    2    1    2    0    0 -0.11818719953E+03 -0.15415272306E+02  0.74849689573E+03  0.76214125224E+03  0.80036496062E+02 0.  0.
        -11    1    3    3    0    0  0.51935031636E+02  0.45784795788E+02 -0.67958225264E+03  0.68309994374E+03  0.00000000000E+00 0.  1.
         12    1    3    3    0    0 -0.21002220724E+02  0.52534500863E+02 -0.32865364917E+03  0.33348791308E+03  0.00000000000E+00 0. -1.
         13    1    5    5    0    0 -0.15500600120E+02 -0.42226860356E+01  0.17011175386E+02  0.23398285609E+02  0.00000000000E+00 0. -1.
        -14    1    5    5    0    0 -0.10268659941E+03 -0.11192586270E+02  0.73148572034E+03  0.73874296663E+03  0.00000000000E+00 0.  1.
          5    1    4    4  501    0  0.39785608148E+02  0.24812854122E+02 -0.51518615421E+02  0.69786907656E+02  0.41800000000E+01 0. -1.
         -5    1    4    4    0  501  0.47468780468E+02 -0.10771687847E+03 -0.27556761497E+02  0.12096717956E+03  0.41800000000E+01 0. -1.
</event>
<event>
11    1  0.1003949E-008  0.1271044E+03  0.7561462E-02  0.1122879E+00
         22   -1    0    0    0    0  0.00000000000E+00  0.00000000000E+00  0.23974398224E+03  0.23974398224E+03  0.00000000000E+00 0. -1.
         22   -1    0    0    0    0 -0.00000000000E+00 -0.00000000000E+00 -0.12733041991E+03  0.12733041991E+03  0.00000000000E+00 0.  1.
         24    2    1    2    0    0 -0.20217443821E+02  0.13632542538E+02 -0.46464256101E+02  0.96783167213E+02  0.81323201548E+02 0.  0.
         25    2    1    2    0    0  0.12597621400E+01 -0.22893504028E+02  0.56611574256E+02  0.13920483889E+03  0.12508963708E+03 0.  0.
        -24    2    1    2    0    0  0.18957681681E+02  0.92609614893E+01  0.10226624417E+03  0.13108639604E+03  0.79247078360E+02 0.  0.
        -13    1    3    3    0    0 -0.21200921035E+02 -0.64684513873E+01 -0.65458815302E+02  0.69109886535E+02  0.00000000000E+00 0.  1.
         14    1    3    3    0    0  0.98347721333E+00  0.20100993926E+02  0.18994559201E+02  0.27673280678E+02  0.00000000000E+00 0. -1.
         11    1    5    5    0    0  0.21299648772E+02 -0.30958077754E+02  0.28971339327E+02  0.47449089753E+02  0.00000000000E+00 0. -1.
        -12    1    5    5    0    0 -0.23419670910E+01  0.40219039243E+02  0.73294904844E+02  0.83637306291E+02  0.00000000000E+00 0.  1.
          5    1    4    4  501    0 -0.36263271018E+02 -0.38253732009E+01 -0.26958863473E+02  0.45540213272E+02  0.41800000000E+01 0. -1.
         -5    1    4    4    0  501  0.37523033158E+02 -0.19068130827E+02  0.83570437730E+02  0.93664625622E+02  0.41800000000E+01 0. -1.
</event>
<event>
11    1  0.1003949E-008  0.1605771E+03  0.7561462E-02  0.1086536E+00
         22   -1    0    0    0    0  0.00000000000E+00  0.00000000000E+00  0.74814976707E+03  0.74814976707E+03  0.00000000000E+00 0. -1.
         22   -1    0    0    0    0 -0.00000000000E+00 -0.00000000000E+00 -0.40239761676E+03  0.40239761676E+03  0.00000000000E+00 0.  1.
         24    2    1    2    0    0 -0.16297612746E+02  0.34427270059E+01 -0.36613346769E+03  0.37471251970E+03  0.77963399766E+02 0.  0.
         25    2    1    2    0    0 -0.80133947707E+02 -0.43795555824E+02  0.23881533748E+03  0.28463960580E+03  0.12508972574E+03 0.  0.
        -24    2    1    2    0    0  0.96431560453E+02  0.40352828818E+02  0.47307028052E+03  0.49119525833E+03  0.80931420632E+02 0.  0.
        -11    1    3    3    0    0  0.17389768650E+01 -0.43163942856E+01 -0.34785678548E+03  0.34788791083E+03  0.00000000000E+00 0.  1.
         12    1    3    3    0    0 -0.18036589611E+02  0.77591212915E+01 -0.18276682216E+02  0.26824608867E+02  0.00000000000E+00 0. -1.
         13    1    5    5    0    0  0.90682213751E+02  0.23210398071E+02  0.45854767087E+03  0.46800422319E+03  0.00000000000E+00 0. -1.
        -14    1    5    5    0    0  0.57493467017E+01  0.17142430747E+02  0.14522609655E+02  0.23191035134E+02  0.00000000000E+00 0.  1.
          5    1    4    4  501    0 -0.59604084293E+01  0.24763797355E+02  0.14314951605E+03  0.14545799556E+03  0.41800000000E+01 0.  1.
         -5    1    4    4    0  501 -0.74173539277E+02 -0.68559353179E+02  0.95665821440E+02  0.13918161024E+03  0.41800000000E+01 0.  1.
</event>
<event>
11    1  0.1003949E-008  0.1562134E+03  0.7561462E-02  0.1090694E+00
         22   -1    0    0    0    0  0.00000000000E+00  0.00000000000E+00  0.64812111684E+03  0.64812111684E+03  0.00000000000E+00 0.  1.
         22   -1    0    0    0    0 -0.00000000000E+00 -0.00000000000E+00 -0.19316514054E+03  0.19316514054E+03  0.00000000000E+00 0.  1.
        -24    2    1    2    0    0  0.83425690207E+02 -0.49771316605E+02 -0.12683754129E+03  0.17947509040E+03  0.81771122343E+02 0.  0.
         25    2    1    2    0    0 -0.41562347690E+02  0.69426699882E+02  0.12070490702E+03  0.19173762670E+03  0.12508456145E+03 0.  0.
         24    2    1    2    0    0 -0.41863342517E+02 -0.19655383277E+02  0.46108861057E+03  0.47007354029E+03  0.78914846138E+02 0.  0.
        -13    1    5    5    0    0 -0.44872537243E+02  0.15298735939E+02  0.35917425956E+03  0.36228958673E+03  0.00000000000E+00 0.  1.
         14    1    5    5    0    0  0.30091947255E+01 -0.34954119217E+02  0.10191435101E+03  0.10778395356E+03  0.00000000000E+00 0. -1.
         11    1    3    3    0    0  0.78483560254E+02 -0.64822617382E+02 -0.78316339309E+02  0.12843321205E+03  0.00000000000E+00 0. -1.
        -12    1    3    3    0    0  0.49421299530E+01  0.15051300777E+02 -0.48521201982E+02  0.51041878348E+02  0.00000000000E+00 0.  1.
          5    1    4    4  501    0 -0.34759045861E+02  0.10351572480E+03  0.68806703444E+02  0.12913377323E+03  0.41800000000E+01 0. -1.
         -5    1    4    4    0  501 -0.68033018286E+01 -0.34089024915E+02  0.51898203576E+02  0.62603853475E+02  0.41800000000E+01 0. -1.
</event>
<event>
11    1  0.1003949E-008  0.1335383E+03  0.7561462E-02  0.1114996E+00
         22   -1    0    0    0    0  0.00000000000E+00  0.00000000000E+00  0.40801400416E+03  0.40801400416E+03  0.00000000000E+00 0.  1.
         22   -1    0    0    0    0 -0.00000000000E+00 -0.00000000000E+00 -0.14641245141E+03  0.14641245141E+03  0.00000000000E+00 0. -1.
         24    2    1    2    0    0 -0.26482868115E+01  0.40662728205E+02 -0.69932915196E+02  0.11430011976E+03  0.80705847745E+02 0.  0.
         25    2    1    2    0    0 -0.25168430159E+02 -0.72684682523E+02  0.69349436463E+02  0.16239923482E+03  0.12509058391E+03 0.  0.
        -24    2    1    2    0    0  0.27816716970E+02  0.32021954319E+02  0.26218503148E+03  0.27772710100E+03  0.81192220028E+02 0.  0.
        -11    1    3    3    0    0 -0.61773210902E+01  0.20399660655E+02  0.15545973361E+02  0.26381484766E+02  0.00000000000E+00 0.  1.
         12    1    3    3    0    0  0.35290342787E+01  0.20263067550E+02 -0.85478888557E+02  0.87918634990E+02  0.00000000000E+00 0. -1.
         13    1    5    5    0    0  0.30026954536E+02  0.78406347098E+00  0.26760258126E+02  0.40228648613E+02  0.00000000000E+00 0. -1.
        -14    1    5    5    0    0 -0.22102375659E+01  0.31237890848E+02  0.23542477336E+03  0.23749845239E+03  0.00000000000E+00 0.  1.
          5    1    4    4  501    0 -0.36506037608E+02 -0.38213974945E+02  0.10099948001E+03  0.11406737494E+03  0.41800000000E+01 0.  1.
         -5    1    4    4    0  501  0.11337607449E+02 -0.34470707578E+02 -0.31650043545E+02  0.48331859885E+02  0.41800000000E+01 0.  1.
</event>
<event>
11    1  0.1003949E-008  0.1550858E+03  0.7561462E-02  0.1091793E+00
         22   -1    0    0    0    0  0.00000000000E+00  0.00000000000E+00  0.19343160226E+04  0.19343160226E+04  0.00000000000E+00 0.  1.
         22   -1    0    0    0    0 -0.00000000000E+00 -0.00000000000E+00 -0.69632361468E+03  0.69632361468E+03  0.00000000000E+00 0.  1.
         24    2    1    2    0    0  0.82513583029E+02  0.39096539563E+02 -0.65264898156E+03  0.66426615885E+03  0.83437436806E+02 0.  0.
         25    2    1    2    0    0 -0.92923939190E+02 -0.45166903148E+02  0.14130645463E+03  0.21514560944E+03  0.12508081997E+03 0.  0.
        -24    2    1    2    0    0  0.10410356161E+02  0.60703635853E+01  0.17493349349E+04  0.17512278690E+04  0.80505341414E+02 0.  0.
        -11    1    3    3    0    0  0.99913590569E+02  0.33264007506E+02 -0.55033775678E+03  0.56032210942E+03  0.00000000000E+00 0.  1.
         12    1    3    3    0    0 -0.17400007540E+02  0.58325320567E+01 -0.10231122479E+03  0.10394404942E+03  0.00000000000E+00 0. -1.
         11    1    5    5    0    0  0.10188891609E+02 -0.93238524195E+01  0.51401524385E+02  0.53224660124E+02  0.00000000000E+00 0. -1.
        -12    1    5    5    0    0  0.22146455175E+00  0.15394216005E+02  0.16979334105E+04  0.16980032089E+04  0.00000000000E+00 0.  1.
          5    1    4    4  501    0 -0.80453910403E+02  0.29967580842E+02  0.75440095462E+02  0.11436593900E+03  0.41800000000E+01 0.  1.
         -5    1    4    4    0  501 -0.12470028786E+02 -0.75134483990E+02  0.65866359169E+02  0.10077967043E+03  0.41800000000E+01 0.  1.
</event>
<event>
11    1  0.1003949E-008  0.1260084E+03  0.7561462E-02  0.1124273E+00
         22   -1    0    0    0    0  0.00000000000E+00  0.00000000000E+00  0.19671191619E+04  0.19671191619E+04  0.00000000000E+00 0. -1.
         22   -1    0    0    0    0 -0.00000000000E+00 -0.00000000000E+00 -0.96309096463E+02  0.96309096463E+02  0.00000000000E+00 0.  1.
        -24    2    1    2    0    0  0.87273021450E+01 -0.19198942888E+02 -0.35769079980E+02  0.11522999208E+03  0.10748841231E+03 0.  0.
         25    2    1    2    0    0  0.43548531587E+02 -0.78371822738E+01  0.20788706389E+03  0.24662087750E+03  0.12508768866E+03 0.  0.
         24    2    1    2    0    0 -0.52275833732E+02  0.27036125161E+02  0.16986920815E+04  0.17015773887E+04  0.79668734993E+02 0.  0.
        -11    1    5    5    0    0 -0.41204436287E+02 -0.46625373914E+01  0.34708899554E+03  0.34955731383E+03  0.00000000000E+00 0.  1.
         12    1    5    5    0    0 -0.11071397445E+02  0.31698662553E+02  0.13516030859E+04  0.13520200749E+04  0.00000000000E+00 0. -1.
         13    1    3    3    0    0  0.14636755358E+02 -0.13787347206E+02  0.36952042332E+02  0.42068741162E+02  0.00000000000E+00 0. -1.
        -14    1    3    3    0    0 -0.59094532127E+01 -0.54115956815E+01 -0.72721122313E+02  0.73161250916E+02  0.00000000000E+00 0.  1.
          5    1    4    4  501    0  0.42270211302E+02  0.10196055764E+02  0.22010910049E+03  0.22440191362E+03  0.41800000000E+01 0.  1.
         -5    1    4    4    0  501  0.12783202848E+01 -0.18033238037E+02 -0.12222036606E+02  0.22218963875E+02  0.41800000000E+01 0.  1.
</event>
<event>
11    1  0.1003949E-008  0.1414297E+03  0.7561462E-02  0.1105972E+00
         22   -1    0    0    0    0  0.00000000000E+00  0.00000000000E+00  0.87935233550E+03  0.87935233550E+03  0.00000000000E+00 0.  1.
         22   -1    0    0    0    0 -0.00000000000E+00 -0.00000000000E+00 -0.12137597812E+03  0.12137597812E+03  0.00000000000E+00 0.  1.
        -24    2    1    2    0    0 -0.17157358345E+02 -0.62129456774E+02 -0.73296127684E+02  0.12567039102E+03  0.79159841462E+02 0.  0.
         25    2    1    2    0    0  0.29404065213E+02  0.78479241674E+02  0.27633907646E+03  0.31469419870E+03  0.12508222531E+03 0.  0.
         24    2    1    2    0    0 -0.12246706868E+02 -0.16349784900E+02  0.55493340860E+03  0.56036372390E+03  0.75094059610E+02 0.  0.
        -11    1    5    5    0    0 -0.38859186359E+02 -0.19373386270E+01  0.43244758779E+03  0.43419431806E+03  0.00000000000E+00 0.  1.
         12    1    5    5    0    0  0.26612479491E+02 -0.14412446273E+02  0.12248582081E+03  0.12616940584E+03  0.00000000000E+00 0. -1.
         11    1    3    3    0    0 -0.26815180569E+02  0.50565660171E+01 -0.22013427230E+01  0.27376425600E+02  0.00000000000E+00 0. -1.
        -12    1    3    3    0    0  0.96578222246E+01 -0.67186022791E+02 -0.71094784961E+02  0.98293965416E+02  0.00000000000E+00 0.  1.
          5    1    4    4  501    0  0.52971165273E+02  0.12562625431E+02  0.21402840627E+03  0.22088321575E+03  0.41800000000E+01 0.  1.
         -5    1    4    4    0  501 -0.23567100061E+02  0.65916616243E+02  0.62310670189E+02  0.93810982948E+02  0.41800000000E+01 0.  1.
</event>
<event>
11    1  0.1003949E-008  0.3699848E+03  0.7561462E-02  0.9742721E-01
         22   -1    0    0    0    0  0.00000000000E+00  0.00000000000E+00  0.66738634604E+03  0.66738634604E+03  0.00000000000E+00 0.  1.
         22   -1    0    0    0    0 -0.00000000000E+00 -0.00000000000E+00 -0.15665854327E+04  0.15665854327E+04  0.00000000000E+00 0.  1.
         24    2    1    2    0    0 -0.83088785102E+01 -0.36490281508E+03 -0.10797551939E+04  0.11424188610E+04  0.77630363416E+02 0.  0.
         25    2    1    2    0    0 -0.25971715366E+02  0.31417463044E+03 -0.38747866241E+03  0.51494461815E+03  0.12509203625E+03 0.  0.
        -24    2    1    2    0    0  0.34280593876E+02  0.50728184639E+02  0.56803476964E+03  0.57660829960E+03  0.77878904816E+02 0.  0.
        -11    1    3    3    0    0 -0.43524308848E+01 -0.36571574796E+03 -0.10395699821E+04  0.11020311700E+04  0.00000000000E+00 0.  1.
         12    1    3    3    0    0 -0.39564476253E+01  0.81293288603E+00 -0.40185211853E+02  0.40387691063E+02  0.00000000000E+00 0. -1.
         13    1    5    5    0    0 -0.14018343136E+02  0.38101437369E+02  0.14298705739E+03  0.14863893183E+03  0.00000000000E+00 0. -1.
        -14    1    5    5    0    0  0.48298937012E+02  0.12626747270E+02  0.42504771225E+03  0.42796936777E+03  0.00000000000E+00 0.  1.
          5    1    4    4  501    0 -0.39921995998E+02  0.57211652142E+02 -0.14671839068E+03  0.16251368395E+03  0.41800000000E+01 0. -1.
         -5    1    4    4    0  501  0.13950280632E+02  0.25696297830E+03 -0.24076027173E+03  0.35243093421E+03  0.41800000000E+01 0. -1.
</event>
<event>
11    1  0.1003949E-008  0.1747046E+03  0.7561462E-02  0.1074009E+00
         22   -1    0    0    0    0  0.00000000000E+00  0.00000000000E+00  0.28155202911E+04  0.28155202911E+04  0.00000000000E+00 0. -1.
         22   -1    0    0    0    0 -0.00000000000E+00 -0.00000000000E+00 -0.13120971795E+04  0.13120971795E+04  0.00000000000E+00 0. -1.
         24    2    1    2    0    0  0.40285007475E+02  0.53415032966E+02 -0.12863526255E+04  0.12904882311E+04  0.78617745360E+02 0.  0.
         25    2    1    2    0    0 -0.15849911131E+03 -0.47886022972E+02  0.47981024911E+03  0.52276227258E+03  0.12508988369E+03 0.  0.
        -24    2    1    2    0    0  0.11821410384E+03 -0.55290099940E+01  0.23099654881E+04  0.23143669669E+04  0.79679085878E+02 0.  0.
        -11    1    3    3    0    0 -0.16163131519E+02 -0.61446104816E+01 -0.39128532676E+03  0.39166721843E+03  0.00000000000E+00 0.  1.
         12    1    3    3    0    0  0.56448138994E+02  0.59559643447E+02 -0.89506729879E+03  0.89882101271E+03  0.00000000000E+00 0. -1.
         11    1    5    5    0    0  0.10518277371E+03  0.19727564955E+01  0.12874723135E+04  0.12917632390E+04  0.00000000000E+00 0. -1.
        -12    1    5    5    0    0  0.13031330132E+02 -0.75017664894E+01  0.10224931746E+04  0.10226037278E+04  0.00000000000E+00 0.  1.
          5    1    4    4  501    0 -0.22206109350E+02 -0.53945333239E+02  0.23808505768E+03  0.24516357266E+03  0.41800000000E+01 0. -1.
         -5    1    4    4    0  501 -0.13629300196E+03  0.60593102673E+01  0.24172519143E+03  0.27759869992E+03  0.41800000000E+01 0. -1.
</event>
<event>
11    1  0.1003949E-008  0.2588262E+03  0.7561462E-02  0.1019300E+00
         22   -1    0    0    0    0  0.00000000000E+00  0.00000000000E+00  0.13201309246E+04  0.13201309246E+04  0.00000000000E+00 0.  1.
         22   -1    0    0    0    0 -0.00000000000E+00 -0.00000000000E+00 -0.11264536874E+04  0.11264536874E+04  0.00000000000E+00 0.  1.
        -24    2    1    2    0    0 -0.71204712985E+01  0.25858695443E+02 -0.10210375975E+04  0.10244194722E+04  0.78728053254E+02 0.  0.
         25    2    1    2    0    0  0.12118607733E+03  0.17258505586E+03  0.74150840009E+02  0.25616140955E+03  0.12509457951E+03 0.  0.
         24    2    1    2    0    0 -0.11406560604E+03 -0.19844375130E+03  0.11405639947E+04  0.11660037302E+04  0.79294311824E+02 0.  0.
        -13    1    5    5    0    0 -0.10400289325E+03 -0.16840996140E+03  0.10763983541E+04  0.10944459482E+04  0.00000000000E+00 0.  1.
         14    1    5    5    0    0 -0.10062712788E+02 -0.30033789899E+02  0.64165640660E+02  0.71557782006E+02  0.00000000000E+00 0. -1.
         11    1    3    3    0    0 -0.15073051305E+02 -0.25232510955E+02 -0.26747865206E+03  0.26908865787E+03  0.00000000000E+00 0. -1.
        -12    1    3    3    0    0  0.79525800064E+01  0.51091206398E+02 -0.75355894540E+03  0.75533081435E+03  0.00000000000E+00 0.  1.
          5    1    4    4  501    0  0.15524354028E+02 -0.17766325188E+02  0.21367277941E+02  0.32104218497E+02  0.41800000000E+01 0. -1.
         -5    1    4    4    0  501  0.10566172331E+03  0.19035138105E+03  0.52783562067E+02  0.22405719105E+03  0.41800000000E+01 0. -1.
</event>
<event>
11    1  0.1003949E-008  0.1368500E+03  0.7561462E-02  0.1111128E+00
         22   -1    0    0    0    0  0.00000000000E+00  0.00000000000E+00  0.24337488140E+04  0.24337488140E+04  0.00000000000E+00 0.  1.
         22   -1    0    0    0    0 -0.00000000000E+00 -0.00000000000E+00 -0.15804928570E+03  0.15804928570E+03  0.00000000000E+00 0.  1.
         24    2    1    2    0    0  0.33289234457E+02 -0.41518310608E+02 -0.10210105345E+03  0.14579833511E+03  0.89445995766E+02 0.  0.
         25    2    1    2    0    0 -0.22936988581E+02  0.73418072108E+02  0.12898610553E+03  0.19545145620E+03  0.12509011773E+03 0.  0.
        -24    2    1    2    0    0 -0.10352245876E+02 -0.31899761500E+02  0.22488144762E+04  0.22505483084E+04  0.81709094894E+02 0.  0.
        -11    1    3    3    0    0 -0.26684299879E+02 -0.34596449103E+02 -0.44134532084E+02  0.62103325779E+02  0.00000000000E+00 0.  1.
         12    1    3    3    0    0  0.59973534337E+02 -0.69218615047E+01 -0.57966521361E+02  0.83695009327E+02  0.00000000000E+00 0. -1.
         11    1    5    5    0    0 -0.12277260666E+02 -0.52825081754E+02  0.93871474039E+03  0.94028005627E+03  0.00000000000E+00 0. -1.
        -12    1    5    5    0    0  0.19250147905E+01  0.20925320254E+02  0.13100997359E+04  0.13102682522E+04  0.00000000000E+00 0.  1.
          5    1    4    4  501    0  0.49035226998E+02  0.91789832799E+01  0.49209320948E+02  0.70197841056E+02  0.41800000000E+01 0.  1.
         -5    1    4    4    0  501 -0.71972215579E+02  0.64239088828E+02  0.79776784580E+02  0.12525361514E+03  0.41800000000E+01 0.  1.
</event>
<event>
11    1  0.1003949E-008  0.1497190E+03  0.7561462E-02  0.1097166E+00
         22   -1    0    0    0    0  0.00000000000E+00  0.00000000000E+00  0.70105189968E+03  0.70105189968E+03  0.00000000000E+00 0.  1.
         22   -1    0    0    0    0 -0.00000000000E+00 -0.00000000000E+00 -0.27273776458E+03  0.27273776458E+03  0.00000000000E+00 0.  1.
         24    2    1    2    0    0 -0.60742873166E+01 -0.16616733098E+02 -0.22051572522E+03  0.23552329746E+03  0.80814762228E+02 0.  0.
         25    2    1    2    0    0 -0.11656462551E+02 -0.66209663681E+02  0.91925898149E+02  0.16914697018E+03  0.12506292051E+03 0.  0.
        -24    2    1    2    0    0  0.17730749867E+02  0.82826396779E+02  0.55690396217E+03  0.56911939663E+03  0.81118882165E+02 0.  0.
        -13    1    3    3    0    0  0.75749418827E+01 -0.47668387884E+02 -0.11598680395E+03  0.12562879303E+03  0.00000000000E+00 0.  1.
         14    1    3    3    0    0 -0.13649229199E+02  0.31051654786E+02 -0.10452892127E+03  0.10989450444E+03  0.00000000000E+00 0. -1.
         13    1    5    5    0    0 -0.28393017059E+02  0.14640157777E+02  0.10403226033E+03  0.10882650792E+03  0.00000000000E+00 0. -1.
        -14    1    5    5    0    0  0.46123766927E+02  0.68186239002E+02  0.45287170184E+03  0.46029288870E+03  0.00000000000E+00 0.  1.
          5    1    4    4  501    0 -0.16377237235E+02 -0.91168790794E+02  0.10516093423E+03  0.14020077319E+03  0.41800000000E+01 0.  1.
         -5    1    4    4    0  501  0.47207746847E+01  0.24959127113E+02 -0.13235036084E+02  0.28946196988E+02  0.41800000000E+01 0.  1.
</event>
<event>
11    1  0.1003949E-008  0.1301630E+03  0.7561462E-02  0.1119069E+00
         22   -1    0    0    0    0  0.00000000000E+00  0.00000000000E+00  0.22180183715E+04  0.22180183715E+04  0.00000000000E+00 0.  1.
         22   -1    0    0    0    0 -0.00000000000E+00 -0.00000000000E+00 -0.81111490640E+02  0.81111490640E+02  0.00000000000E+00 0. -1.
         24    2    1    2    0    0  0.81637097974E+01  0.34480404441E+02 -0.42189353341E+02  0.98510004195E+02  0.81662322666E+02 0.  0.
         25    2    1    2    0    0  0.88575948086E+00 -0.46058297327E+02  0.43961425821E+03  0.45938067218E+03  0.12509098541E+03 0.  0.
        -24    2    1    2    0    0 -0.90494692783E+01  0.11577892886E+02  0.17394819760E+04  0.17412391858E+04  0.76814170190E+02 0.  0.
        -13    1    3    3    0    0 -0.20973046812E+02  0.14057015065E+02  0.16296586487E+02  0.30050742025E+02  0.00000000000E+00 0.  1.
         14    1    3    3    0    0  0.29136756609E+02  0.20423389377E+02 -0.58485939828E+02  0.68459262170E+02  0.00000000000E+00 0. -1.
         13    1    5    5    0    0 -0.23068984020E+02 -0.23214485510E+02  0.12041312119E+04  0.12045758863E+04  0.00000000000E+00 0. -1.
        -14    1    5    5    0    0  0.14019514742E+02  0.34792378396E+02  0.53535076413E+03  0.53666329951E+03  0.00000000000E+00 0.  1.
          5    1    4    4  501    0 -0.60779710398E+02 -0.23728429556E+02  0.17765141910E+03  0.18930058286E+03  0.41800000000E+01 0. -1.
         -5    1    4    4    0  501  0.61665469879E+02 -0.22329867772E+02  0.26196283911E+03  0.27008008932E+03  0.41800000000E+01 0. -1.
</event>
<event>
11    1  0.1003949E-008  0.4992858E+03  0.7561462E-02  0.9395119E-01
         22   -1    0    0    0    0  0.00000000000E+00  0.00000000000E+00  0.16178552695E+04  0.16178552695E+04  0.00000000000E+00 0.  1.
         22   -1    0    0    0    0 -0.00000000000E+00 -0.00000000000E+00 -0.21432114858E+04  0.21432114858E+04  0.00000000000E+00 0. -1.
        -24    2    1    2    0    0  0.45135782304E+02 -0.63575014526E+02 -0.86398349236E+03  0.87147388419E+03  0.83187946515E+02 0.  0.
         25    2    1    2    0    0 -0.36922205496E+03  0.41904552947E+03 -0.11708520078E+04  0.13032516035E+04  0.12508491615E+03 0.  0.
         24    2    1    2    0    0  0.32408627266E+03 -0.35547051495E+03  0.15094792838E+04  0.15863412677E+04  0.80992038250E+02 0.  0.
        -13    1    5    5    0    0  0.30696720241E+03 -0.31152268497E+03  0.12992038134E+04  0.13708412728E+04  0.00000000000E+00 0.  1.
         14    1    5    5    0    0  0.17119070252E+02 -0.43947829972E+02  0.21027547044E+03  0.21549999488E+03  0.00000000000E+00 0. -1.
         11    1    3    3    0    0  0.54875521851E+02 -0.58034947748E+02 -0.43055992358E+03  0.43790549877E+03  0.00000000000E+00 0. -1.
        -12    1    3    3    0    0 -0.97397395474E+01 -0.55400667777E+01 -0.43342356878E+03  0.43356838542E+03  0.00000000000E+00 0.  1.
          5    1    4    4  501    0 -0.30093870449E+03  0.25548059922E+03 -0.82600493188E+03  0.91549771180E+03  0.41800000000E+01 0. -1.
         -5    1    4    4    0  501 -0.68283350475E+02  0.16356493026E+03 -0.34484707588E+03  0.38775389167E+03  0.41800000000E+01 0. -1.
</event>
<event>
11    1  0.1003949E-008  0.1503786E+03  0.7561462E-02  0.1096493E+00
         22   -1    0    0    0    0  0.00000000000E+00  0.00000000000E+00  0.16320584526E+03  0.16320584526E+03  0.00000000000E+00 0. -1.
         22   -1    0    0    0    0 -0.00000000000E+00 -0.00000000000E+00 -0.23923966729E+04  0.23923966729E+04  0.00000000000E+00 0.  1.
        -24    2    1    2    0    0  0.68889817544E+01 -0.82188051502E+02 -0.22254733472E+04  0.22284110665E+04  0.79258617152E+02 0.  0.
         25    2    1    2    0    0 -0.92184723674E+01  0.11466483389E+03 -0.10559646651E+03  0.20008023951E+03  0.12509390129E+03 0.  0.
         24    2    1    2    0    0  0.23294906130E+01 -0.32476782383E+02  0.10187898610E+03  0.12711121210E+03  0.68685984831E+02 0.  0.
        -11    1    5    5    0    0 -0.19311871240E+02 -0.37008209175E+02  0.28682802481E+02  0.50648386700E+02  0.00000000000E+00 0.  1.
         12    1    5    5    0    0  0.21641361853E+02  0.45314267917E+01  0.73196183624E+02  0.76462825404E+02  0.00000000000E+00 0. -1.
         13    1    3    3    0    0  0.36425401335E+02 -0.36138374941E+02 -0.66397500295E+03  0.66595465052E+03  0.00000000000E+00 0. -1.
        -14    1    3    3    0    0 -0.29536419580E+02 -0.46049676560E+02 -0.15614983443E+04  0.15624564160E+04  0.00000000000E+00 0.  1.
          5    1    4    4  501    0  0.22615553865E+02  0.12199955765E+03 -0.11120525559E+03  0.16667164310E+03  0.41800000000E+01 0.  1.
         -5    1    4    4    0  501 -0.31834026232E+02 -0.73347237671E+01  0.56087890813E+01  0.33408596406E+02  0.41800000000E+01 0.  1.
</event>
<event>
11    1  0.1196065E-008  0.1536659E+03  0.7561462E-02  0.1093191E+00
         22   -1    0    0    0    0  0.00000000000E+00  0.00000000000E+00  0.14095504248E+04  0.14095504248E+04  0.00000000000E+00 0. -1.
         22   -1    0    0    0    0 -0.00000000000E+00 -0.00000000000E+00 -0.11176575292E+04  0.11176575292E+04  0.00000000000E+00 0.  1.
         24    2    1    2    0    0  0.94038809433E+01  0.39695436868E+01 -0.77140967277E+03  0.77558389899E+03  0.79707658808E+02 0.  0.
         25    2    1    2    0    0 -0.96911464560E+02  0.13229376460E+02 -0.32308931546E+03  0.36000265748E+03  0.12509340215E+03 0.  0.
        -24    2    1    2    0    0  0.87507583617E+02 -0.17198920147E+02  0.13863918839E+04  0.13916213975E+04  0.81081922980E+02 0.  0.
        -13    1    3    3    0    0 -0.96651506995E+01 -0.14349283368E+02 -0.68500972414E+03  0.68522816583E+03  0.00000000000E+00 0.  1.
         14    1    3    3    0    0  0.19069031643E+02  0.18318827055E+02 -0.86399948626E+02  0.90355733161E+02  0.00000000000E+00 0. -1.
         11    1    5    5    0    0  0.40707319632E+02 -0.18694149235E+02  0.11363789300E+04  0.11372614605E+04  0.00000000000E+00 0. -1.
        -12    1    5    5    0    0  0.46800263985E+02  0.14952290887E+01  0.25001295390E+03  0.25435993697E+03  0.00000000000E+00 0.  1.
          5    1    4    4  501    0 -0.11868852773E+03  0.17619228204E+02 -0.31302138877E+03  0.33525701491E+03  0.41800000000E+01 0.  1.
         -5    1    4    4    0  501  0.21777063166E+02 -0.43898517440E+01 -0.10067926690E+02  0.24745642573E+02  0.41800000000E+01 0.  1.
</event>
<event>
11    1  0.1003949E-008  0.1368116E+03  0.7561462E-02  0.1111172E+00
         22   -1    0    0    0    0  0.00000000000E+00  0.00000000000E+00  0.30556583608E+03  0.30556583608E+03  0.00000000000E+00 0. -1.
         22   -1    0    0    0    0 -0.00000000000E+00 -0.00000000000E+00 -0.18063986387E+03  0.18063986387E+03  0.00000000000E+00 0.  1.
        -24    2    1    2    0    0 -0.42265767579E+02 -0.24065490634E+02 -0.74102370858E+02  0.11919037356E+03  0.79684633618E+02 0.  0.
         25    2    1    2    0    0  0.46725643391E+02  0.71013692229E+02  0.44070089382E+01  0.15130544933E+03  0.12509071522E+03 0.  0.
         24    2    1    2    0    0 -0.44598758119E+01 -0.46948201595E+02  0.19462133413E+03  0.21570987706E+03  0.80182686650E+02 0.  0.
        -11    1    5    5    0    0 -0.37805298075E+02 -0.13459295216E+02  0.53447368964E+02  0.66835727268E+02  0.00000000000E+00 0.  1.
         12    1    5    5    0    0  0.33345422263E+02 -0.33488906379E+02  0.14117396517E+03  0.14887414979E+03  0.00000000000E+00 0. -1.
         11    1    3    3    0    0 -0.45316714027E+01 -0.79889466037E+01  0.16976617291E+02  0.19301938975E+02  0.00000000000E+00 0. -1.
        -12    1    3    3    0    0 -0.37734096176E+02 -0.16076544031E+02 -0.91078988149E+02  0.99888434588E+02  0.00000000000E+00 0.  1.
          5    1    4    4  501    0  0.38317828794E+02  0.44732244105E+01  0.54914675913E+02  0.67241057181E+02  0.41800000000E+01 0. -1.
         -5    1    4    4    0  501  0.84078145961E+01  0.66540467819E+02 -0.50507666975E+02  0.84064392147E+02  0.41800000000E+01 0. -1.
</event>
<event>
11    1  0.1003949E-008  0.2344199E+03  0.7561462E-02  0.1032543E+00
         22   -1    0    0    0    0  0.00000000000E+00  0.00000000000E+00  0.49107072668E+03  0.49107072668E+03  0.00000000000E+00 0. -1.
         22   -1    0    0    0    0 -0.00000000000E+00 -0.00000000000E+00 -0.10890951352E+04  0.10890951352E+04  0.00000000000E+00 0. -1.
         24    2    1    2    0    0 -0.17165487179E+03  0.81234871578E+02 -0.82283472856E+03  0.84863112908E+03  0.83983947015E+02 0.  0.
         25    2    1    2    0    0  0.21499630397E+03 -0.12917021524E+03 -0.16687225767E+03  0.32619480021E+03  0.12509333347E+03 0.  0.
        -24    2    1    2    0    0 -0.43341432180E+02  0.47935343657E+02  0.39168257771E+03  0.40533993258E+03  0.81908133613E+02 0.  0.
        -13    1    3    3    0    0 -0.67281838178E+02  0.37306074947E+02 -0.17777924545E+03  0.19371125184E+03  0.00000000000E+00 0.  1.
         14    1    3    3    0    0 -0.10437303361E+03  0.43928796632E+02 -0.64505548311E+03  0.65491987725E+03  0.00000000000E+00 0. -1.
         13    1    5    5    0    0 -0.16768633911E+02  0.55616407563E+02  0.35321569068E+03  0.35796046712E+03  0.00000000000E+00 0. -1.
        -14    1    5    5    0    0 -0.26572798269E+02 -0.76810639063E+01  0.38466887027E+02  0.47379465469E+02  0.00000000000E+00 0.  1.
          5    1    4    4  501    0  0.13967283492E+02  0.12929687802E+02  0.11067367147E+02  0.22410284477E+02  0.41800000000E+01 0.  1.
         -5    1    4    4    0  501  0.20102902048E+03 -0.14209990304E+03 -0.17793962482E+03  0.30378451573E+03  0.41800000000E+01 0.  1.
</event>
<event>
11    1  0.1003949E-008  0.1432079E+03  0.7561462E-02  0.1104028E+00
         22   -1    0    0    0    0  0.00000000000E+00  0.00000000000E+00  0.47578945592E+03  0.47578945592E+03  0.00000000000E+00 0. -1.
         22   -1    0    0    0    0 -0.00000000000E+00 -0.00000000000E+00 -0.80341565188E+03  0.80341565188E+03  0.00000000000E+00 0. -1.
         24    2    1    2    0    0  0.45706991665E+02 -0.49515465029E+02 -0.71395334476E+03  0.72185786527E+03  0.82513567296E+02 0.  0.
         25    2    1    2    0    0 -0.90077336745E+02  0.97001343406E+02  0.28059522685E+02  0.18427789046E+03  0.12509123423E+03 0.  0.
        -24    2    1    2    0    0  0.44370345080E+02 -0.47485878378E+02  0.35826762611E+03  0.37306935207E+03  0.81249082259E+02 0.  0.
        -11    1    3    3    0    0 -0.23340359761E+02 -0.22401944010E+02 -0.21885778977E+03  0.22123596370E+03  0.00000000000E+00 0.  1.
         12    1    3    3    0    0  0.69047351427E+02 -0.27113521019E+02 -0.49509555499E+03  0.50062190157E+03  0.00000000000E+00 0. -1.
         13    1    5    5    0    0  0.62802356194E+01 -0.56488315519E+02  0.27821095322E+03  0.28395722502E+03  0.00000000000E+00 0. -1.
        -14    1    5    5    0    0  0.38090109460E+02  0.90024371416E+01  0.80056672891E+02  0.89112127051E+02  0.00000000000E+00 0.  1.
          5    1    4    4  501    0 -0.10686586679E+03  0.10442601431E+03  0.47865810576E+02  0.15695131147E+03  0.41800000000E+01 0.  1.
         -5    1    4    4    0  501  0.16788530049E+02 -0.74246709052E+01 -0.19806287891E+02  0.27326578990E+02  0.41800000000E+01 0.  1.
</event>
<event>
11    1  0.1003949E-008  0.1616489E+03  0.7561462E-02  0.1085537E+00
         22   -1    0    0    0    0  0.00000000000E+00  0.00000000000E+00  0.58006232568E+03  0.58006232568E+03  0.00000000000E+00 0. -1.
         22   -1    0    0    0    0 -0.00000000000E+00 -0.00000000000E+00 -0.16403768951E+04  0.16403768951E+04  0.00000000000E+00 0.  1.
         24    2    1    2    0    0 -0.88711437611E+01 -0.71521598155E+01 -0.14908326376E+04  0.14929811923E+04  0.79252992185E+02 0.  0.
         25    2    1    2    0    0 -0.92141539833E+02 -0.12578809316E+02 -0.97313066461E+02  0.18375559577E+03  0.12509195125E+03 0.  0.
        -24    2    1    2    0    0  0.10101268359E+03  0.19730969131E+02  0.52783113462E+03  0.54370243269E+03  0.80085924198E+02 0.  0.
        -11    1    3    3    0    0  0.44496453650E+01  0.44097355497E+01 -0.14190286458E+04  0.14190424739E+04  0.00000000000E+00 0.  1.
         12    1    3    3    0    0 -0.13320789126E+02 -0.11561895365E+02 -0.71803991799E+02  0.73938718447E+02  0.00000000000E+00 0. -1.
         11    1    5    5    0    0  0.83428087673E+02  0.24607875401E+02  0.51261584284E+03  0.51994306964E+03  0.00000000000E+00 0. -1.
        -12    1    5    5    0    0  0.17584595921E+02 -0.48769062701E+01  0.15215291782E+02  0.23759363049E+02  0.00000000000E+00 0.  1.
          5    1    4    4  501    0  0.92106628074E+01  0.97965752754E+01 -0.76536864904E+02  0.77821419197E+02  0.41800000000E+01 0. -1.
         -5    1    4    4    0  501 -0.10135220264E+03 -0.22375384591E+02 -0.20776201556E+02  0.10593417658E+03  0.41800000000E+01 0. -1.
</event>
<event>
11    1  0.1003949E-008  0.1898533E+03  0.7561462E-02  0.1061940E+00
         22   -1    0    0    0    0  0.00000000000E+00  0.00000000000E+00  0.13611278357E+04  0.13611278357E+04  0.00000000000E+00 0.  1.
         22   -1    0    0    0    0 -0.00000000000E+00 -0.00000000000E+00 -0.55964765993E+03  0.55964765993E+03  0.00000000000E+00 0.  1.
         24    2    1    2    0    0 -0.14350865218E+03 -0.25998643894E-01 -0.53458305423E+03  0.55873798618E+03  0.76251959971E+02 0.  0.
         25    2    1    2    0    0  0.10405606075E+03  0.53778353320E+01  0.65548410256E+03  0.67540127051E+03  0.12510348757E+03 0.  0.
        -24    2    1    2    0    0  0.39452591429E+02 -0.53518366881E+01  0.68057912746E+03  0.68663623897E+03  0.81830475982E+02 0.  0.
        -11    1    3    3    0    0 -0.14815093566E+03 -0.57794161876E+01 -0.52924303489E+03  0.54961831425E+03  0.00000000000E+00 0.  1.
         12    1    3    3    0    0  0.46422834833E+01  0.57534175438E+01 -0.53400193480E+01  0.91196719244E+01  0.00000000000E+00 0. -1.
         11    1    5    5    0    0  0.44318123640E+02  0.43234081700E+01  0.16382724367E+03  0.16977088593E+03  0.00000000000E+00 0. -1.
        -12    1    5    5    0    0 -0.48655322113E+01 -0.96752448581E+01  0.51675188379E+03  0.51686535304E+03  0.00000000000E+00 0.  1.
          5    1    4    4  501    0  0.75120139505E+01 -0.36267658658E+02  0.59581895026E+02  0.70279783957E+02  0.41800000000E+01 0. -1.
         -5    1    4    4    0  501  0.96544046801E+02  0.41645493990E+02  0.59590220753E+03  0.60512148655E+03  0.41800000000E+01 0. -1.
</event>
<event>
11    1  0.1003949E-008  0.2208790E+03  0.7561462E-02  0.1040668E+00
         22   -1    0    0    0    0  0.00000000000E+00  0.00000000000E+00  0.27252179275E+03  0.27252179275E+03  0.00000000000E+00 0. -1.
         22   -1    0    0    0    0 -0.00000000000E+00 -0.00000000000E+00 -0.93959822082E+03  0.93959822082E+03  0.00000000000E+00 0.  1.
         24    2    1    2    0    0 -0.36393130560E+00 -0.19478921329E+02 -0.64988410163E+03  0.65365392001E+03  0.67338998871E+02 0.  0.
         25    2    1    2    0    0 -0.12366943709E+03 -0.11684494601E+03 -0.19732521682E+03  0.28901910446E+03  0.12509168827E+03 0.  0.
        -24    2    1    2    0    0  0.12403336839E+03  0.13632386733E+03  0.18013289037E+03  0.26944698911E+03  0.78646986374E+02 0.  0.
        -13    1    3    3    0    0  0.61854381005E+01  0.79316007082E+01 -0.54371649319E+03  0.54380952079E+03  0.00000000000E+00 0.  1.
         14    1    3    3    0    0 -0.65493694061E+01 -0.27410522037E+02 -0.10616760844E+03  0.10984439922E+03  0.00000000000E+00 0. -1.
         13    1    5    5    0    0  0.67516793094E+02  0.12129552198E+03  0.14718842916E+03  0.20232536836E+03  0.00000000000E+00 0. -1.
        -14    1    5    5    0    0  0.56516575298E+02  0.15028345355E+02  0.32944461206E+02  0.67121620747E+02  0.00000000000E+00 0.  1.
          5    1    4    4  501    0 -0.10700551676E+03 -0.14323572081E+03 -0.17647443452E+03  0.25125156870E+03  0.41800000000E+01 0.  1.
         -5    1    4    4    0  501 -0.16663920323E+02  0.26390774804E+02 -0.20850782300E+02  0.37767535766E+02  0.41800000000E+01 0.  1.
</event>
<event>
11    1  0.1003949E-008  0.2775709E+03  0.7561462E-02  0.1010157E+00
         22   -1    0    0    0    0  0.00000000000E+00  0.00000000000E+00  0.22206416630E+04  0.22206416630E+04  0.00000000000E+00 0. -1.
         22   -1    0    0    0    0 -0.00000000000E+00 -0.00000000000E+00 -0.11601981027E+04  0.11601981027E+04  0.00000000000E+00 0.  1.
         24    2    1    2    0    0 -0.43333380916E+01  0.63339399190E+01 -0.60028214227E+03  0.60563397545E+03  0.79968526793E+02 0.  0.
         25    2    1    2    0    0  0.20590907347E+03 -0.15026362853E+03 -0.51276632445E+03  0.58613491805E+03  0.12508850496E+03 0.  0.
        -24    2    1    2    0    0 -0.20157573538E+03  0.14392968861E+03  0.21734920270E+04  0.21890708722E+04  0.81333630573E+02 0.  0.
        -13    1    3    3    0    0  0.17578615806E+02  0.81462785967E+01 -0.55457731347E+03  0.55491563882E+03  0.00000000000E+00 0.  1.
         14    1    3    3    0    0 -0.21911953898E+02 -0.18123386777E+01 -0.45704828796E+02  0.50718336629E+02  0.00000000000E+00 0. -1.
         13    1    5    5    0    0 -0.18094868057E+03  0.14253294897E+03  0.17527038550E+04  0.17677751185E+04  0.00000000000E+00 0. -1.
        -14    1    5    5    0    0 -0.20627054811E+02  0.13967396458E+01  0.42078817208E+03  0.42129575364E+03  0.00000000000E+00 0.  1.
          5    1    4    4  501    0  0.85820566805E+02 -0.13523588953E+03 -0.25200636604E+03  0.29862785609E+03  0.41800000000E+01 0.  1.
         -5    1    4    4    0  501  0.12008850667E+03 -0.15027739001E+02 -0.26075995841E+03  0.28750706197E+03  0.41800000000E+01 0.  1.
</event>
<event>
11    1  0.1003949E-008  0.1420409E+03  0.7561462E-02  0.1105301E+00
         22   -1    0    0    0    0  0.00000000000E+00  0.00000000000E+00  0.11622465378E+03  0.11622465378E+03  0.00000000000E+00 0. -1.
         22   -1    0    0    0    0 -0.00000000000E+00 -0.00000000000E+00 -0.57971095451E+03  0.57971095451E+03  0.00000000000E+00 0. -1.
        -24    2    1    2    0    0  0.57211183785E+02  0.33460800699E+02 -0.44332417646E+03  0.45501592205E+03  0.78169170084E+02 0.  0.
         25    2    1    2    0    0 -0.68467435808E+02 -0.34701323663E+02 -0.48363475847E+02  0.15452049873E+03  0.12508232130E+03 0.  0.
         24    2    1    2    0    0  0.11256252022E+02  0.12405229635E+01  0.28201351571E+02  0.86399187509E+02  0.80878064177E+02 0.  0.
        -11    1    5    5    0    0 -0.76611758896E+00  0.33749210375E+02 -0.96162323577E+01  0.35100827082E+02  0.00000000000E+00 0.  1.
         12    1    5    5    0    0  0.12022369611E+02 -0.32508687411E+02  0.37817583929E+02  0.51298360427E+02  0.00000000000E+00 0. -1.
         11    1    3    3    0    0  0.53233807576E+02 -0.76270306859E+01 -0.33113287211E+03  0.33547129364E+03  0.00000000000E+00 0. -1.
        -12    1    3    3    0    0  0.39773762093E+01  0.41087831385E+02 -0.11219130435E+03  0.11954462841E+03  0.00000000000E+00 0.  1.
          5    1    4    4  501    0  0.19140745281E+02  0.28270993384E+02  0.38033550800E+01  0.34605709164E+02  0.41800000000E+01 0.  1.
         -5    1    4    4    0  501 -0.87608181089E+02 -0.62972317047E+02 -0.52166830927E+02  0.11991478957E+03  0.41800000000E+01 0.  1.
</event>
<event>
11    1  0.1003949E-008  0.1519501E+03  0.7561462E-02  0.1094903E+00
         22   -1    0    0    0    0  0.00000000000E+00  0.00000000000E+00  0.19726418076E+03  0.19726418076E+03  0.00000000000E+00 0. -1.
         22   -1    0    0    0    0 -0.00000000000E+00 -0.00000000000E+00 -0.22550981245E+04  0.22550981245E+04  0.00000000000E+00 0. -1.
         24    2    1    2    0    0 -0.30327212239E+02 -0.79190544862E+02 -0.18676887661E+04  0.18713197532E+04  0.79908756616E+02 0.  0.
         25    2    1    2    0    0  0.56258620600E+02  0.85581863101E+02 -0.35837666894E+03  0.39315429550E+03  0.12508867076E+03 0.  0.
        -24    2    1    2    0    0 -0.25931408362E+02 -0.63913182388E+01  0.16823149137E+03  0.18788825652E+03  0.79289818761E+02 0.  0.
        -11    1    3    3    0    0 -0.40302132877E+02 -0.16464168128E+02 -0.11507004291E+04  0.11515236898E+04  0.00000000000E+00 0.  1.
         12    1    3    3    0    0  0.99749206388E+01 -0.62726376734E+02 -0.71698833708E+03  0.71979606340E+03  0.00000000000E+00 0. -1.
         13    1    5    5    0    0 -0.19402530151E+02 -0.38272406908E+02  0.13379691484E+03  0.14050925139E+03  0.00000000000E+00 0. -1.
        -14    1    5    5    0    0 -0.65288782103E+01  0.31881088669E+02  0.34434576533E+02  0.47379005123E+02  0.00000000000E+00 0.  1.
          5    1    4    4  501    0  0.87734075497E+02  0.94168707098E+02 -0.28631099548E+03  0.31393705090E+03  0.41800000000E+01 0. -1.
         -5    1    4    4    0  501 -0.31475454897E+02 -0.85868439975E+01 -0.72065673460E+02  0.79217244600E+02  0.41800000000E+01 0. -1.
</event>
<event>
11    1  0.1003949E-008  0.2471097E+03  0.7561462E-02  0.1025450E+00
         22   -1    0    0    0    0  0.00000000000E+00  0.00000000000E+00  0.45310466523E+03  0.45310466523E+03  0.00000000000E+00 0. -1.
         22   -1    0    0    0    0 -0.00000000000E+00 -0.00000000000E+00 -0.10579520537E+04  0.10579520537E+04  0.00000000000E+00 0.  1.
        -24    2    1    2    0    0 -0.57174470379E+02  0.12866593078E+03 -0.71732864655E+03  0.73551288207E+03  0.81209425099E+02 0.  0.
         25    2    1    2    0    0 -0.10138949309E+03 -0.26391788907E+03 -0.21596133379E+03  0.37711905170E+03  0.12508796897E+03 0.  0.
         24    2    1    2    0    0  0.15856396346E+03  0.13525195829E+03  0.32844259192E+03  0.39842478512E+03  0.86209921041E+02 0.  0.
        -11    1    5    5    0    0 -0.99331800631E+01  0.77926379254E+01  0.31980031370E+02  0.34381909174E+02  0.00000000000E+00 0.  1.
         12    1    5    5    0    0  0.16849714353E+03  0.12745932036E+03  0.29646256055E+03  0.36404287595E+03  0.00000000000E+00 0. -1.
         11    1    3    3    0    0  0.13807313311E+02  0.15034167617E+00 -0.10097991874E+03  0.10191961780E+03  0.00000000000E+00 0. -1.
        -12    1    3    3    0    0 -0.70981783691E+02  0.12851558910E+03 -0.61634872781E+03  0.63359326428E+03  0.00000000000E+00 0.  1.
          5    1    4    4  501    0 -0.23668288468E+02  0.16124101712E+01 -0.47257830691E+02  0.53043026942E+02  0.41800000000E+01 0.  1.
         -5    1    4    4    0  501 -0.77721204617E+02 -0.26553029924E+03 -0.16870350310E+03  0.32407602475E+03  0.41800000000E+01 0.  1.
</event>
<event>
11    1  0.1003949E-008  0.1293011E+03  0.7561462E-02  0.1120131E+00
         22   -1    0    0    0    0  0.00000000000E+00  0.00000000000E+00  0.91754618511E+03  0.91754618511E+03  0.00000000000E+00 0. -1.
         22   -1    0    0    0    0 -0.00000000000E+00 -0.00000000000E+00 -0.13691797512E+03  0.13691797512E+03  0.00000000000E+00 0. -1.
        -24    2    1    2    0    0 -0.31776517923E+02  0.11569989756E+02 -0.10031019055E+03  0.13284804122E+03  0.80267402922E+02 0.  0.
         25    2    1    2    0    0  0.10962426725E+02 -0.20916897390E+02  0.20728298503E+03  0.24325143638E+03  0.12508930417E+03 0.  0.
         24    2    1    2    0    0  0.20814091198E+02  0.93469076332E+01  0.67365541551E+03  0.67836468263E+03  0.76461969173E+02 0.  0.
        -11    1    5    5    0    0 -0.28316060289E+01  0.14170140211E+02  0.22363803167E+02  0.26626125486E+02  0.00000000000E+00 0.  1.
         12    1    5    5    0    0  0.23645697227E+02 -0.48232325782E+01  0.65129161234E+03  0.65173855715E+03  0.00000000000E+00 0. -1.
         11    1    3    3    0    0 -0.55062072390E+02  0.44736179441E+01 -0.91647279307E+02  0.10700966722E+03  0.00000000000E+00 0. -1.
        -12    1    3    3    0    0  0.23285554466E+02  0.70963718122E+01 -0.86629112459E+01  0.25838374000E+02  0.00000000000E+00 0.  1.
          5    1    4    4  501    0  0.45076505276E+02  0.29779898553E+02  0.47235705238E+02  0.71884754539E+02  0.41800000000E+01 0. -1.
         -5    1    4    4    0  501 -0.34114078551E+02 -0.50696795943E+02  0.16004727979E+03  0.17136668184E+03  0.41800000000E+01 0. -1.
</event>
<event>
11    1  0.1003949E-008  0.1661201E+03  0.7561462E-02  0.1081458E+00
         22   -1    0    0    0    0  0.00000000000E+00  0.00000000000E+00  0.12955925370E+04  0.12955925370E+04  0.00000000000E+00 0.  1.
         22   -1    0    0    0    0 -0.00000000000E+00 -0.00000000000E+00 -0.13736571303E+04  0.13736571303E+04  0.00000000000E+00 0.  1.
         24    2    1    2    0    0 -0.42678267620E+02  0.47042237669E+02 -0.13390190638E+04  0.13429739781E+04  0.81071856448E+02 0.  0.
         25    2    1    2    0    0  0.12499936409E+03  0.23987492845E+02  0.25518921748E+03  0.31139880928E+03  0.12508973126E+03 0.  0.
        -24    2    1    2    0    0 -0.82321096475E+02 -0.71029730514E+02  0.10057652531E+04  0.10148768800E+04  0.81174821197E+02 0.  0.
        -11    1    3    3    0    0 -0.28736861738E+02  0.24576495855E+02 -0.12372092230E+04  0.12377869254E+04  0.00000000000E+00 0.  1.
         12    1    3    3    0    0 -0.13941405881E+02  0.22465741814E+02 -0.10180984084E+03  0.10518705265E+03  0.00000000000E+00 0. -1.
         13    1    5    5    0    0 -0.28847194431E+02 -0.74522575540E+02  0.50980097390E+03  0.51602597597E+03  0.00000000000E+00 0. -1.
        -14    1    5    5    0    0 -0.53473902045E+02  0.34928450256E+01  0.49596427921E+03  0.49885090399E+03  0.00000000000E+00 0.  1.
          5    1    4    4  501    0  0.67444285490E+02  0.42376468124E+02  0.23402098481E+03  0.24724034952E+03  0.41800000000E+01 0. -1.
         -5    1    4    4    0  501  0.57555078605E+02 -0.18388975279E+02  0.21168232665E+02  0.64158459763E+02  0.41800000000E+01 0. -1.
</event>
<event>
11    1  0.1003949E-008  0.1555126E+03  0.7561462E-02  0.1091375E+00
         22   -1    0    0    0    0  0.00000000000E+00  0.00000000000E+00  0.21438606896E+03  0.21438606896E+03  0.00000000000E+00 0. -1.
         22   -1    0    0    0    0 -0.00000000000E+00 -0.00000000000E+00 -0.68738926341E+03  0.68738926341E+03  0.00000000000E+00 0. -1.
         24    2    1    2    0    0 -0.70207461686E+02  0.14271843194E+02 -0.55965596965E+03  0.57000395340E+03  0.80974868623E+02 0.  0.
         25    2    1    2    0    0  0.18951951327E+02 -0.96675254285E+02 -0.23855810490E+02  0.16100297462E+03  0.12509027497E+03 0.  0.
        -24    2    1    2    0    0  0.51255510359E+02  0.82403411091E+02  0.11050858569E+03  0.17076840435E+03  0.86788541352E+02 0.  0.
        -11    1    3    3    0    0 -0.26344595237E+02 -0.33150101062E+02 -0.18179583514E+03  0.18666197409E+03  0.00000000000E+00 0.  1.
         12    1    3    3    0    0 -0.43862866449E+02  0.47421944256E+02 -0.37786013451E+03  0.38334197931E+03  0.00000000000E+00 0. -1.
         13    1    5    5    0    0  0.22531545613E+01  0.21866582064E+02  0.86527092874E+02  0.89275763328E+02  0.00000000000E+00 0. -1.
        -14    1    5    5    0    0  0.49002355798E+02  0.60536829026E+02  0.23981492816E+02  0.81492641017E+02  0.00000000000E+00 0.  1.
          5    1    4    4  501    0  0.16080281431E+01 -0.36859226112E+02  0.51286693985E+02  0.63316551423E+02  0.41800000000E+01 0.  1.
         -5    1    4    4    0  501  0.17343923184E+02 -0.59816028173E+02 -0.75142504476E+02  0.97686423195E+02  0.41800000000E+01 0.  1.
</event>
<event>
11    1  0.1003949E-008  0.1674896E+03  0.7561462E-02  0.1080237E+00
         22   -1    0    0    0    0  0.00000000000E+00  0.00000000000E+00  0.75519789528E+03  0.75519789528E+03  0.00000000000E+00 0.  1.
         22   -1    0    0    0    0 -0.00000000000E+00 -0.00000000000E+00 -0.65861227351E+03  0.65861227351E+03  0.00000000000E+00 0. -1.
        -24    2    1    2    0    0  0.94692933879E+02  0.56431508204E+02 -0.50511285628E+03  0.52333956647E+03  0.81203678534E+02 0.  0.
         25    2    1    2    0    0 -0.12956710772E+03 -0.10361195426E+02 -0.83153193026E+02  0.19863881378E+03  0.12509170659E+03 0.  0.
         24    2    1    2    0    0  0.34874173843E+02 -0.46070312779E+02  0.68485167109E+03  0.69183178853E+03  0.79187944216E+02 0.  0.
        -13    1    5    5    0    0  0.13015630667E+02 -0.44696394776E+02  0.64220356936E+03  0.64388865408E+03  0.00000000000E+00 0.  1.
         14    1    5    5    0    0  0.21858543177E+02 -0.13739180026E+01  0.42648101728E+02  0.47943134456E+02  0.00000000000E+00 0. -1.
         11    1    3    3    0    0  0.51753832911E+02  0.71755179637E+02 -0.38045076736E+03  0.39060216514E+03  0.00000000000E+00 0. -1.
        -12    1    3    3    0    0  0.42939100968E+02 -0.15323671433E+02 -0.12466208892E+03  0.13273740133E+03  0.00000000000E+00 0.  1.
          5    1    4    4  501    0 -0.85967663872E+02 -0.34228387357E+02 -0.10852349371E+03  0.14267740823E+03  0.41800000000E+01 0.  1.
         -5    1    4    4    0  501 -0.43599443850E+02  0.23867191931E+02  0.25370300683E+02  0.55961405553E+02  0.41800000000E+01 0.  1.
</event>
<event>
11    1  0.1003949E-008  0.2408763E+03  0.7561462E-02  0.1028875E+00
         22   -1    0    0    0    0  0.00000000000E+00  0.00000000000E+00  0.14896296813E+04  0.14896296813E+04  0.00000000000E+00 0.  1.
         22   -1    0    0    0    0 -0.00000000000E+00 -0.00000000000E+00 -0.12833428219E+03  0.12833428219E+03  0.00000000000E+00 0. -1.
        -24    2    1    2    0    0 -0.90162229051E+02 -0.10023669844E+03  0.28366773774E+03  0.32449134204E+03  0.81551347998E+02 0.  0.
         25    2    1    2    0    0  0.22004330065E+03  0.12941132560E+03  0.96670394451E+02  0.30026367388E+03  0.12508702306E+03 0.  0.
         24    2    1    2    0    0 -0.12988107160E+03 -0.29174627154E+02  0.98095726687E+03  0.99320894753E+03  0.80415187577E+02 0.  0.
        -13    1    5    5    0    0 -0.67614548069E+02  0.21932910966E+02  0.57142979561E+03  0.57583399605E+03  0.00000000000E+00 0.  1.
         14    1    5    5    0    0 -0.62266523527E+02 -0.51107538120E+02  0.40952747126E+03  0.41737495148E+03  0.00000000000E+00 0. -1.
         11    1    3    3    0    0 -0.76129235278E+02 -0.11057399019E+03  0.27254809565E+03  0.30381693866E+03  0.00000000000E+00 0. -1.
        -12    1    3    3    0    0 -0.14032993773E+02  0.10337291751E+02  0.11119642088E+02  0.20674403380E+02  0.00000000000E+00 0.  1.
          5    1    4    4  501    0  0.16983435149E+03  0.83847390887E+02  0.94164158158E+01  0.18968456234E+03  0.41800000000E+01 0.  1.
         -5    1    4    4    0  501  0.50208949158E+02  0.45563934709E+02  0.87253978636E+02  0.11057911154E+03  0.41800000000E+01 0.  1.
</event>
<event>
11    1  0.1003949E-008  0.1687414E+03  0.7561462E-02  0.1079132E+00
         22   -1    0    0    0    0  0.00000000000E+00  0.00000000000E+00  0.84387157370E+03  0.84387157370E+03  0.00000000000E+00 0.  1.
         22   -1    0    0    0    0 -0.00000000000E+00 -0.00000000000E+00 -0.10550324814E+04  0.10550324814E+04  0.00000000000E+00 0. -1.
        -24    2    1    2    0    0 -0.15645669639E+02 -0.11196058898E+03 -0.95735991815E+03  0.96686180637E+03  0.74187460349E+02 0.  0.
         25    2    1    2    0    0  0.15419545511E+02  0.11599662940E+03 -0.80481591861E+01  0.17147054209E+03  0.12507755003E+03 0.  0.
         24    2    1    2    0    0  0.22612412741E+00 -0.40360404159E+01  0.75424716959E+03  0.76057170668E+03  0.97796663626E+02 0.  0.
        -13    1    5    5    0    0 -0.33909386583E+02 -0.35715513745E+02  0.46481957868E+03  0.46742131439E+03  0.00000000000E+00 0.  1.
         14    1    5    5    0    0  0.34135510710E+02  0.31679473329E+02  0.28942759091E+03  0.29315039229E+03  0.00000000000E+00 0. -1.
         13    1    3    3    0    0 -0.29473159115E+01 -0.11853547522E+03 -0.89848923020E+03  0.90627934013E+03  0.00000000000E+00 0. -1.
        -14    1    3    3    0    0 -0.12698353727E+02  0.65748862335E+01 -0.58870687954E+02  0.60582466247E+02  0.00000000000E+00 0.  1.
          5    1    4    4  501    0 -0.32002756956E+02 -0.27050576238E+01  0.23171159931E+02  0.39822968775E+02  0.41800000000E+01 0. -1.
         -5    1    4    4    0  501  0.47422302467E+02  0.11870168702E+03 -0.31219319117E+02  0.13164757331E+03  0.41800000000E+01 0. -1.
</event>
<event>
11    1  0.1003949E-008  0.1401152E+03  0.7561462E-02  0.1107430E+00
         22   -1    0    0    0    0  0.00000000000E+00  0.00000000000E+00  0.24303065551E+03  0.24303065551E+03  0.00000000000E+00 0. -1.
         22   -1    0    0    0    0 -0.00000000000E+00 -0.00000000000E+00 -0.76675246161E+03  0.76675246161E+03  0.00000000000E+00 0. -1.
         24    2    1    2    0    0 -0.26580592715E+02  0.27185172041E+02 -0.46526614182E+03  0.47338770841E+03  0.78598843889E+02 0.  0.
         25    2    1    2    0    0  0.43700793954E+02  0.34357087600E+02 -0.26915076488E+03  0.30195850244E+03  0.12508650646E+03 0.  0.
        -24    2    1    2    0    0 -0.17120201239E+02 -0.61542259640E+02  0.21069510060E+03  0.23443690627E+03  0.80546176775E+02 0.  0.
        -11    1    3    3    0    0 -0.52754191656E+02  0.11723848773E+02 -0.23560068942E+03  0.24171913086E+03  0.00000000000E+00 0.  1.
         12    1    3    3    0    0  0.26173598940E+02  0.15461323267E+02 -0.22966545240E+03  0.23166857755E+03  0.00000000000E+00 0. -1.
         11    1    5    5    0    0 -0.46824253442E+02 -0.19576661342E+02  0.91658452538E+02  0.10477131431E+03  0.00000000000E+00 0. -1.
        -12    1    5    5    0    0  0.29704052204E+02 -0.41965598298E+02  0.11903664806E+03  0.12966559196E+03  0.00000000000E+00 0.  1.
          5    1    4    4  501    0  0.14304427903E+02  0.99918588587E+01 -0.26233643673E+03  0.26294929613E+03  0.41800000000E+01 0.  1.
         -5    1    4    4    0  501  0.29396366051E+02  0.24365228741E+02 -0.68143281550E+01  0.39009206308E+02  0.41800000000E+01 0.  1.
</event>
<event>
11    1  0.2423899E-008  0.1759775E+03  0.7561462E-02  0.1072944E+00
         22   -1    0    0    0    0  0.00000000000E+00  0.00000000000E+00  0.83990791122E+03  0.83990791122E+03  0.00000000000E+00 0. -1.
         22   -1    0    0    0    0 -0.00000000000E+00 -0.00000000000E+00 -0.63269092676E+03  0.63269092676E+03  0.00000000000E+00 0. -1.
        -24    2    1    2    0    0 -0.31452197566E+02 -0.46534561213E+02 -0.27461342023E+03  0.29234665099E+03  0.83062191497E+02 0.  0.
         25    2    1    2    0    0  0.15425230484E+03  0.55108599162E+02 -0.31139251080E+03  0.37342131379E+03  0.12508977000E+03 0.  0.
         24    2    1    2    0    0 -0.12280010727E+03 -0.85740379495E+01  0.79322291549E+03  0.80683087320E+03  0.81363897476E+02 0.  0.
        -13    1    5    5    0    0 -0.13683858506E+02  0.16610822828E+02  0.40877185729E+02  0.46196447177E+02  0.00000000000E+00 0.  1.
         14    1    5    5    0    0 -0.10911624876E+03 -0.25184860778E+02  0.75234572976E+03  0.76063442602E+03  0.00000000000E+00 0. -1.
         13    1    3    3    0    0 -0.25983559402E+02 -0.79765023580E+01 -0.23580860045E+03  0.23736989277E+03  0.00000000000E+00 0. -1.
        -14    1    3    3    0    0 -0.54686381639E+01 -0.38558058855E+02 -0.38804819780E+02  0.54976758218E+02  0.00000000000E+00 0.  1.
          5    1    4    4  501    0 -0.20510345625E+02  0.14604766755E+02 -0.53075420698E+02  0.58893515533E+02  0.41800000000E+01 0.  1.
         -5    1    4    4    0  501  0.17476265046E+03  0.40503832407E+02 -0.25831709010E+03  0.31452779825E+03  0.41800000000E+01 0.  1.
</event>
<event>
11    1  0.1003949E-008  0.3162438E+03  0.7561462E-02  0.9935416E-01
         22   -1    0    0    0    0  0.00000000000E+00  0.00000000000E+00  0.12073338703E+03  0.12073338703E+03  0.00000000000E+00 0. -1.
         22   -1    0    0    0    0 -0.00000000000E+00 -0.00000000000E+00 -0.11932756346E+04  0.11932756346E+04  0.00000000000E+00 0. -1.
        -24    2    1    2    0    0  0.22283564679E+02 -0.70928504986E+01 -0.20517100566E+03  0.22088423975E+03  0.78408162994E+02 0.  0.
         25    2    1    2    0    0 -0.22860311403E+03  0.20224088958E+03 -0.64034946039E+03  0.72031682312E+03  0.12509249813E+03 0.  0.
         24    2    1    2    0    0  0.20631954935E+03 -0.19514803908E+03 -0.22702178150E+03  0.37280795873E+03  0.82440106867E+02 0.  0.
        -13    1    5    5    0    0  0.12431415867E+01 -0.29345204714E+02 -0.92398993472E+01  0.30790618387E+02  0.00000000000E+00 0.  1.
         14    1    5    5    0    0  0.20507640777E+03 -0.16580283436E+03 -0.21778188215E+03  0.34201734035E+03  0.00000000000E+00 0. -1.
         13    1    3    3    0    0  0.28406541791E+02 -0.39186881049E+02 -0.10749695018E+03  0.11789036246E+03  0.00000000000E+00 0. -1.
        -14    1    3    3    0    0 -0.61229771118E+01  0.32094030551E+02 -0.97674055480E+02  0.10299387729E+03  0.00000000000E+00 0.  1.
          5    1    4    4  501    0 -0.92979706324E+02  0.10569548829E+03 -0.16660046962E+03  0.21815121111E+03  0.41800000000E+01 0.  1.
         -5    1    4    4    0  501 -0.13562340771E+03  0.96545401289E+02 -0.47374899077E+03  0.50216561200E+03  0.41800000000E+01 0.  1.
</event>
<event>
11    1  0.1003949E-008  0.1337181E+03  0.7561462E-02  0.1114783E+00
         22   -1    0    0    0    0  0.00000000000E+00  0.00000000000E+00  0.24565037080E+03  0.24565037080E+03  0.00000000000E+00 0. -1.
         22   -1    0    0    0    0 -0.00000000000E+00 -0.00000000000E+00 -0.27227243676E+03  0.27227243676E+03  0.00000000000E+00 0. -1.
         24    2    1    2    0    0  0.28834369701E+02 -0.19457793035E+02 -0.20166490375E+03  0.22063285196E+03  0.82462690782E+02 0.  0.
         25    2    1    2    0    0  0.12701261020E+02  0.47282169193E+02  0.56484710481E+02  0.14572153679E+03  0.12508924098E+03 0.  0.
        -24    2    1    2    0    0 -0.41535630721E+02 -0.27824376158E+02  0.11855812731E+03  0.15156841882E+03  0.80109621793E+02 0.  0.
        -13    1    3    3    0    0  0.48604276498E+02 -0.24204804921E+02 -0.76404673142E+02  0.93733251054E+02  0.00000000000E+00 0.  1.
         14    1    3    3    0    0 -0.19769906797E+02  0.47470118860E+01 -0.12526023061E+03  0.12689960090E+03  0.00000000000E+00 0. -1.
         11    1    5    5    0    0 -0.38768394398E+02 -0.39731147276E+02  0.12569926902E+03  0.13741127574E+03  0.00000000000E+00 0. -1.
        -12    1    5    5    0    0 -0.27672363234E+01  0.11906771118E+02 -0.71411417075E+01  0.14157143081E+02  0.00000000000E+00 0.  1.
          5    1    4    4  501    0  0.43980468976E+02  0.75734913592E+02  0.54392510148E+02  0.10317982530E+03  0.41800000000E+01 0.  1.
         -5    1    4    4    0  501 -0.31279207956E+02 -0.28452744399E+02  0.20922003325E+01  0.42541711489E+02  0.41800000000E+01 0.  1.
</event>
<event>
11    1  0.1003949E-008  0.2039579E+03  0.7561462E-02  0.1051760E+00
         22   -1    0    0    0    0  0.00000000000E+00  0.00000000000E+00  0.73154848938E+03  0.73154848938E+03  0.00000000000E+00 0. -1.
         22   -1    0    0    0    0 -0.00000000000E+00 -0.00000000000E+00 -0.92063443458E+03  0.92063443458E+03  0.00000000000E+00 0. -1.
        -24    2    1    2    0    0  0.10758735993E+03  0.11362547318E+03 -0.63200383542E+03  0.65666018281E+03  0.85369546829E+02 0.  0.
         25    2    1    2    0    0 -0.16310204124E+03 -0.87916026424E+02 -0.22668479782E+03  0.31838537009E+03  0.12510692534E+03 0.  0.
         24    2    1    2    0    0  0.55514681309E+02 -0.25709446756E+02  0.66960268804E+03  0.67713737107E+03  0.80027520153E+02 0.  0.
        -13    1    5    5    0    0 -0.18038813827E+02  0.39610540977E+01  0.73654908022E+02  0.75935065876E+02  0.00000000000E+00 0.  1.
         14    1    5    5    0    0  0.73553495136E+02 -0.29670500854E+02  0.59594778001E+03  0.60120230519E+03  0.00000000000E+00 0. -1.
         13    1    3    3    0    0  0.92822556682E+02  0.11605512993E+03 -0.61975314216E+03  0.63732156517E+03  0.00000000000E+00 0. -1.
        -14    1    3    3    0    0  0.14764803245E+02 -0.24296567451E+01 -0.12250693258E+02  0.19338617636E+02  0.00000000000E+00 0.  1.
          5    1    4    4  501    0 -0.15358371302E+03 -0.10909391953E+03 -0.15848456110E+03  0.24621995998E+03  0.41800000000E+01 0.  1.
         -5    1    4    4    0  501 -0.95183282129E+01  0.21177893104E+02 -0.68200236717E+02  0.72165410112E+02  0.41800000000E+01 0.  1.
</event>
<event>
11    1  0.1003949E-008  0.2554277E+03  0.7561462E-02  0.1021047E+00
         22   -1    0    0    0    0  0.00000000000E+00  0.00000000000E+00  0.69420047587E+03  0.69420047587E+03  0.00000000000E+00 0. -1.
         22   -1    0    0    0    0 -0.00000000000E+00 -0.00000000000E+00 -0.33944476145E+03  0.33944476145E+03  0.00000000000E+00 0.  1.
         24    2    1    2    0    0 -0.27265355959E+02 -0.87156469131E+02 -0.18046341381E+03  0.21789354747E+03  0.81061116207E+02 0.  0.
         25    2    1    2    0    0 -0.12400758389E+03  0.23837111070E+03  0.81677952313E+02  0.30742325389E+03  0.12505639470E+03 0.  0.
        -24    2    1    2    0    0  0.15127293985E+03 -0.15121464157E+03  0.45354117591E+03  0.50832843596E+03  0.83359644926E+02 0.  0.
        -11    1    3    3    0    0 -0.70602253699E+01 -0.65986120146E+02 -0.17624652549E+03  0.18832645216E+03  0.00000000000E+00 0.  1.
         12    1    3    3    0    0 -0.20205130589E+02 -0.21170348985E+02 -0.42168883129E+01  0.29567095314E+02  0.00000000000E+00 0. -1.
         11    1    5    5    0    0  0.12171803781E+03 -0.14727492489E+03  0.33075454563E+03  0.38197349867E+03  0.00000000000E+00 0. -1.
        -12    1    5    5    0    0  0.29554902041E+02 -0.39397166775E+01  0.12278663027E+03  0.12635493728E+03  0.00000000000E+00 0.  1.
          5    1    4    4  501    0 -0.52576601232E+02  0.21149547660E+03  0.44676775840E+02  0.22250420742E+03  0.41800000000E+01 0.  1.
         -5    1    4    4    0  501 -0.71430982662E+02  0.26875634102E+02  0.37001176474E+02  0.84919046467E+02  0.41800000000E+01 0.  1.
</event>
<event>
11    1  0.1003949E-008  0.2008223E+03  0.7561462E-02  0.1053944E+00
         22   -1    0    0    0    0  0.00000000000E+00  0.00000000000E+00  0.61132719432E+03  0.61132719432E+03  0.00000000000E+00 0. -1.
         22   -1    0    0    0    0 -0.00000000000E+00 -0.00000000000E+00 -0.99357595813E+03  0.99357595813E+03  0.00000000000E+00 0. -1.
        -24    2    1    2    0    0 -0.10186113247E+03  0.13281556858E+03 -0.73413499370E+03  0.75722545981E+03  0.80128287484E+02 0.  0.
         25    2    1    2    0    0  0.15272097879E+03 -0.24459514788E+02 -0.19728110577E+03  0.28015970799E+03  0.12509061539E+03 0.  0.
         24    2    1    2    0    0 -0.50859846320E+02 -0.10835605379E+03  0.54916733566E+03  0.56751798465E+03  0.78512049917E+02 0.  0.
        -11    1    5    5    0    0 -0.17959722675E+02 -0.86720290139E+01  0.20771965192E+02  0.28796358515E+02  0.00000000000E+00 0.  1.
         12    1    5    5    0    0 -0.32900123646E+02 -0.99684024779E+02  0.52839537047E+03  0.53872162613E+03  0.00000000000E+00 0. -1.
         13    1    3    3    0    0 -0.26756962406E+02 -0.21600759233E+01 -0.17899813610E+03  0.18099981683E+03  0.00000000000E+00 0. -1.
        -14    1    3    3    0    0 -0.75104170059E+02  0.13497564450E+03 -0.55513685760E+03  0.57622564299E+03  0.00000000000E+00 0.  1.
          5    1    4    4  501    0  0.11404200760E+03  0.20391381186E+02 -0.59876721871E+02  0.13047636624E+03  0.41800000000E+01 0.  1.
         -5    1    4    4    0  501  0.38678971185E+02 -0.44850895974E+02 -0.13740438390E+03  0.14968334175E+03  0.41800000000E+01 0.  1.
</event>
<event>
11    1  0.1003949E-008  0.1497662E+03  0.7561462E-02  0.1097118E+00
         22   -1    0    0    0    0  0.00000000000E+00  0.00000000000E+00  0.97544724612E+03  0.97544724612E+03  0.00000000000E+00 0.  1.
         22   -1    0    0    0    0 -0.00000000000E+00 -0.00000000000E+00 -0.13818953557E+03  0.13818953557E+03  0.00000000000E+00 0.  1.
        -24    2    1    2    0    0 -0.45664566262E+02  0.67482094659E+02 -0.86228631534E+02  0.14334666970E+03  0.80459959650E+02 0.  0.
         25    2    1    2    0    0  0.82142052601E+02 -0.54454526909E+02  0.28951438983E+03  0.33042188586E+03  0.12508968155E+03 0.  0.
         24    2    1    2    0    0 -0.36477486339E+02 -0.13027567751E+02  0.63397195226E+03  0.63986822613E+03  0.77527969347E+02 0.  0.
        -13    1    5    5    0    0 -0.31169057462E+02  0.27613831262E+02  0.41577786778E+03  0.41785795332E+03  0.00000000000E+00 0.  1.
         14    1    5    5    0    0 -0.53084288767E+01 -0.40641399013E+02  0.21819408448E+03  0.22201027281E+03  0.00000000000E+00 0. -1.
         11    1    3    3    0    0 -0.61467033978E+02  0.33968666304E+02 -0.30826626372E+02  0.76696463087E+02  0.00000000000E+00 0. -1.
        -12    1    3    3    0    0  0.15802467715E+02  0.33513428355E+02 -0.55402005161E+02  0.66650206615E+02  0.00000000000E+00 0.  1.
          5    1    4    4  501    0  0.50527140998E+02 -0.46680048507E+02  0.41927206206E+02  0.80668345256E+02  0.41800000000E+01 0. -1.
         -5    1    4    4    0  501  0.31614911603E+02 -0.77744784014E+01  0.24758718362E+03  0.24975354060E+03  0.41800000000E+01 0. -1.
</event>
<event>
11    1  0.1003949E-008  0.1407451E+03  0.7561462E-02  0.1106729E+00
         22   -1    0    0    0    0  0.00000000000E+00  0.00000000000E+00  0.10225893605E+04  0.10225893605E+04  0.00000000000E+00 0.  1.
         22   -1    0    0    0    0 -0.00000000000E+00 -0.00000000000E+00 -0.16672358684E+03  0.16672358684E+03  0.00000000000E+00 0.  1.
        -24    2    1    2    0    0 -0.71406614739E+02  0.16254592030E+02 -0.85652677445E+02  0.13884867771E+03  0.81113856760E+02 0.  0.
         25    2    1    2    0    0  0.22186810367E+02 -0.47804190708E+02  0.37216359058E+02  0.14074517385E+03  0.12508657553E+03 0.  0.
         24    2    1    2    0    0  0.49219804372E+02  0.31549598678E+02  0.90430209202E+03  0.90971909576E+03  0.80053689674E+02 0.  0.
        -13    1    5    5    0    0  0.11240264478E+02  0.35363121251E+02  0.15253195456E+03  0.15698054355E+03  0.00000000000E+00 0.  1.
         14    1    5    5    0    0  0.37979539894E+02 -0.38135225725E+01  0.75177013746E+03  0.75273855221E+03  0.00000000000E+00 0. -1.
         13    1    3    3    0    0 -0.26994972359E+02 -0.27089336163E+02 -0.61160919313E+02  0.72133339848E+02  0.00000000000E+00 0. -1.
        -14    1    3    3    0    0 -0.44411642379E+02  0.43343928192E+02 -0.24491758132E+02  0.66715337864E+02  0.00000000000E+00 0.  1.
          5    1    4    4  501    0 -0.35876631379E+02 -0.44470940674E+02 -0.18391877423E+02  0.60170846751E+02  0.41800000000E+01 0. -1.
         -5    1    4    4    0  501  0.58063441745E+02 -0.33332500334E+01  0.55608236481E+02  0.80574327100E+02  0.41800000000E+01 0. -1.
</event>
<event>
11    1  0.1003949E-008  0.1574072E+03  0.7561462E-02  0.1089542E+00
         22   -1    0    0    0    0  0.00000000000E+00  0.00000000000E+00  0.39669543152E+03  0.39669543152E+03  0.00000000000E+00 0.  1.
         22   -1    0    0    0    0 -0.00000000000E+00 -0.00000000000E+00 -0.32030117609E+03  0.32030117609E+03  0.00000000000E+00 0.  1.
        -24    2    1    2    0    0 -0.37827608964E+02  0.17817281272E+02 -0.22719998099E+03  0.24474663554E+03  0.80825124394E+02 0.  0.
         25    2    1    2    0    0  0.26645402763E+02  0.80361599224E+02  0.89173797089E+01  0.15130942573E+03  0.12508820303E+03 0.  0.
         24    2    1    2    0    0  0.11182206201E+02 -0.98178880496E+02  0.29467685671E+03  0.32094054633E+03  0.80026558645E+02 0.  0.
        -13    1    5    5    0    0  0.10492874065E+02 -0.56242683370E+02  0.26086972982E+03  0.26706994548E+03  0.00000000000E+00 0.  1.
         14    1    5    5    0    0  0.68933213582E+00 -0.41936197125E+02  0.33807126885E+02  0.53870600854E+02  0.00000000000E+00 0. -1.
         11    1    3    3    0    0 -0.24317696012E+02 -0.21300651601E+02 -0.17584377323E+03  0.17879066162E+03  0.00000000000E+00 0. -1.
        -12    1    3    3    0    0 -0.13509912952E+02  0.39117932873E+02 -0.51356207760E+02  0.65955973920E+02  0.00000000000E+00 0.  1.
          5    1    4    4  501    0 -0.18436022062E+02  0.73663235659E+02  0.49001856884E+02  0.90469959519E+02  0.41800000000E+01 0. -1.
         -5    1    4    4    0  501  0.45081424825E+02  0.66983635645E+01 -0.40084477175E+02  0.60839466213E+02  0.41800000000E+01 0. -1.
</event>
<event>
11    1  0.1003949E-008  0.1501583E+03  0.7561462E-02  0.1096717E+00
         22   -1    0    0    0    0  0.00000000000E+00  0.00000000000E+00  0.97819280200E+03  0.97819280200E+03  0.00000000000E+00 0. -1.
         22   -1    0    0    0    0 -0.00000000000E+00 -0.00000000000E+00 -0.47294833270E+03  0.47294833270E+03  0.00000000000E+00 0.  1.
        -24    2    1    2    0    0 -0.82079993523E+02  0.21456949805E+02 -0.43506314114E+03  0.45643808242E+03  0.10889563937E+03 0.  0.
         25    2    1    2    0    0  0.45938899874E+02 -0.27139476362E+02  0.16557441629E+03  0.21426874161E+03  0.12509705273E+03 0.  0.
         24    2    1    2    0    0  0.36141093649E+02  0.56825265563E+01  0.77473319416E+03  0.78043431067E+03  0.86762442226E+02 0.  0.
        -13    1    5    5    0    0  0.46990262993E+00  0.27855858566E+02  0.85541587859E+02  0.89964064594E+02  0.00000000000E+00 0.  1.
         14    1    5    5    0    0  0.35671191019E+02 -0.22173332010E+02  0.68919160630E+03  0.69047024608E+03  0.00000000000E+00 0. -1.
         13    1    3    3    0    0 -0.20259994783E+02 -0.23071600066E+02 -0.25685540566E+02  0.40031401579E+02  0.00000000000E+00 0. -1.
        -14    1    3    3    0    0 -0.61819998740E+02  0.44528549872E+02 -0.40937760058E+03  0.41640668085E+03  0.00000000000E+00 0.  1.
          5    1    4    4  501    0  0.17892347592E+02  0.30410518809E+02  0.14125886213E+03  0.14565875973E+03  0.41800000000E+01 0. -1.
         -5    1    4    4    0  501  0.28046552282E+02 -0.57549995171E+02  0.24315554158E+02  0.68609981877E+02  0.41800000000E+01 0. -1.
</event>
<event>
11    1  0.1003949E-008  0.2034976E+03  0.7561462E-02  0.1052078E+00
         22   -1    0    0    0    0  0.00000000000E+00  0.00000000000E+00  0.86524390766E+03  0.86524390766E+03  0.00000000000E+00 0. -1.
         22   -1    0    0    0    0 -0.00000000000E+00 -0.00000000000E+00 -0.70966984233E+03  0.70966984233E+03  0.00000000000E+00 0. -1.
        -24    2    1    2    0    0  0.90176698815E+01 -0.42824951685E+02 -0.64153676040E+03  0.64788020930E+03  0.79145788262E+02 0.  0.
         25    2    1    2    0    0  0.10628224185E+03  0.14816935051E+03  0.17897338462E+03  0.28447989559E+03  0.12508903720E+03 0.  0.
         24    2    1    2    0    0 -0.11529991173E+03 -0.10534439883E+03  0.61813744112E+03  0.64255364511E+03  0.79936091448E+02 0.  0.
        -13    1    5    5    0    0  0.25476872121E+01  0.33576733346E+01  0.26908296564E+00  0.42233974470E+01  0.00000000000E+00 0.  1.
         14    1    5    5    0    0 -0.11784759895E+03 -0.10870207216E+03  0.61786835815E+03  0.63833024766E+03  0.00000000000E+00 0. -1.
         13    1    3    3    0    0  0.36002703904E+02  0.41413019780E+00 -0.18213407966E+03  0.18565879771E+03  0.00000000000E+00 0. -1.
        -14    1    3    3    0    0 -0.26985034023E+02 -0.43239081883E+02 -0.45940268074E+03  0.46222141159E+03  0.00000000000E+00 0.  1.
          5    1    4    4  501    0  0.53228725714E+02  0.66853728946E+02  0.16558089703E+03  0.18637924825E+03  0.41800000000E+01 0. -1.
         -5    1    4    4    0  501  0.53053516140E+02  0.81315621564E+02  0.13392487587E+02  0.98100647342E+02  0.41800000000E+01 0. -1.
</event>
<event>
11    1  0.1003949E-008  0.2985670E+03  0.7561462E-02  0.1000800E+00
         22   -1    0    0    0    0  0.00000000000E+00  0.00000000000E+00  0.47091289182E+03  0.47091289182E+03  0.00000000000E+00 0.  1.
         22   -1    0    0    0    0 -0.00000000000E+00 -0.00000000000E+00 -0.42937099163E+03  0.42937099163E+03  0.00000000000E+00 0.  1.
        -24    2    1    2    0    0  0.11467262451E+03 -0.25208634780E+03 -0.28291350609E+03  0.40384766705E+03  0.79721695230E+02 0.  0.
         25    2    1    2    0    0 -0.11842952524E+03  0.20742709885E+03  0.29117881490E+03  0.39682985309E+03  0.12504909542E+03 0.  0.
         24    2    1    2    0    0  0.37569007271E+01  0.44659248945E+02  0.33276591383E+02  0.99606363315E+02  0.82495656003E+02 0.  0.
        -11    1    5    5    0    0 -0.33198118344E+02  0.43999328056E+02  0.10261748360E+02  0.56065670515E+02  0.00000000000E+00 0.  1.
         12    1    5    5    0    0  0.36955019071E+02  0.65992088933E+00  0.23014843022E+02  0.43540692799E+02  0.00000000000E+00 0. -1.
         11    1    3    3    0    0  0.50424226756E+01 -0.79054573092E+02 -0.11135548565E+03  0.13665685397E+03  0.00000000000E+00 0. -1.
        -12    1    3    3    0    0  0.10963020184E+03 -0.17303177470E+03 -0.17155802044E+03  0.26719081307E+03  0.00000000000E+00 0.  1.
          5    1    4    4  501    0 -0.27646946208E+02  0.16745100546E+03  0.17127415879E+03  0.24115659380E+03  0.41800000000E+01 0. -1.
         -5    1    4    4    0  501 -0.90782579034E+02  0.39976093389E+02  0.11990465611E+03  0.15567325929E+03  0.41800000000E+01 0. -1.
</event>
<event>
11    1  0.1003949E-008  0.1573486E+03  0.7561462E-02  0.1089598E+00
         22   -1    0    0    0    0  0.00000000000E+00  0.00000000000E+00  0.90137928379E+03  0.90137928379E+03  0.00000000000E+00 0. -1.
         22   -1    0    0    0    0 -0.00000000000E+00 -0.00000000000E+00 -0.36365238055E+03  0.36365238055E+03  0.00000000000E+00 0. -1.
         24    2    1    2    0    0  0.67805197097E+02 -0.63334014088E+02 -0.25101678055E+03  0.27931998528E+03  0.80009299226E+02 0.  0.
         25    2    1    2    0    0 -0.10343059238E+03  0.48212318748E+02 -0.21385064904E+02  0.17066552315E+03  0.12508830750E+03 0.  0.
        -24    2    1    2    0    0  0.35625395278E+02  0.15121695340E+02  0.81012874870E+03  0.81504615590E+03  0.80584194035E+02 0.  0.
        -11    1    3    3    0    0 -0.14953290638E+02  0.35287584727E+01 -0.43219032555E+02  0.45868701881E+02  0.00000000000E+00 0.  1.
         12    1    3    3    0    0  0.82758487735E+02 -0.66862772561E+02 -0.20779774800E+03  0.23345128340E+03  0.00000000000E+00 0. -1.
         11    1    5    5    0    0 -0.89661911073E+01  0.25415898031E+02  0.56746939033E+03  0.56810902952E+03  0.00000000000E+00 0. -1.
        -12    1    5    5    0    0  0.44591586385E+02 -0.10294202691E+02  0.24265935837E+03  0.24693712639E+03  0.00000000000E+00 0.  1.
          5    1    4    4  501    0 -0.81290835282E+01 -0.33658843019E+02  0.17577570608E+02  0.39056921293E+02  0.41800000000E+01 0. -1.
         -5    1    4    4    0  501 -0.95301508847E+02  0.81871161767E+02 -0.38962635512E+02  0.13160860186E+03  0.41800000000E+01 0. -1.
</event>
<event>
11    1  0.1003949E-008  0.1626889E+03  0.7561462E-02  0.1084575E+00
         22   -1    0    0    0    0  0.00000000000E+00  0.00000000000E+00  0.52712427956E+02  0.52712427956E+02  0.00000000000E+00 0.  1.
         22   -1    0    0    0    0 -0.00000000000E+00 -0.00000000000E+00 -0.11851432688E+04  0.11851432688E+04  0.00000000000E+00 0.  1.
        -24    2    1    2    0    0 -0.86133661664E+02 -0.53256896096E+02 -0.78938373109E+03  0.79973112528E+03  0.78663162736E+02 0.  0.
         25    2    1    2    0    0  0.96366980870E+02  0.64909960793E+02 -0.29801892873E+03  0.34345605929E+03  0.12508750846E+03 0.  0.
         24    2    1    2    0    0 -0.10233319206E+02 -0.11653064696E+02 -0.45028180994E+02  0.94668512157E+02  0.81817329287E+02 0.  0.
        -11    1    5    5    0    0 -0.18763780212E+02 -0.29777891983E+02  0.96008041232E+01  0.36482567599E+02  0.00000000000E+00 0.  1.
         12    1    5    5    0    0  0.85304610064E+01  0.18124827287E+02 -0.54628985117E+02  0.58185944558E+02  0.00000000000E+00 0. -1.
         11    1    3    3    0    0 -0.90072344771E+02 -0.18082053268E+02 -0.61121288621E+03  0.61807861976E+03  0.00000000000E+00 0. -1.
        -12    1    3    3    0    0  0.39386831068E+01 -0.35174842829E+02 -0.17817084489E+03  0.18165250552E+03  0.00000000000E+00 0.  1.
          5    1    4    4  501    0  0.43538194453E+02  0.37744128734E+02 -0.27268903328E+03  0.27874177100E+03  0.41800000000E+01 0. -1.
         -5    1    4    4    0  501  0.52828786418E+02  0.27165832059E+02 -0.25329895454E+02  0.64714288295E+02  0.41800000000E+01 0. -1.
</event>
<event>
11    1  0.1003949E-008  0.1465719E+03  0.7561462E-02  0.1100434E+00
         22   -1    0    0    0    0  0.00000000000E+00  0.00000000000E+00  0.66789647209E+03  0.66789647209E+03  0.00000000000E+00 0. -1.
         22   -1    0    0    0    0 -0.00000000000E+00 -0.00000000000E+00 -0.12362539808E+04  0.12362539808E+04  0.00000000000E+00 0. -1.
         24    2    1    2    0    0 -0.66232015290E+02 -0.37157523336E+02 -0.11374533593E+04  0.11427910204E+04  0.80023810048E+02 0.  0.
         25    2    1    2    0    0  0.10153695117E+03 -0.18873296459E+01 -0.20420768232E+02  0.16241405362E+03  0.12509197645E+03 0.  0.
        -24    2    1    2    0    0 -0.35304935876E+02  0.39044852982E+02  0.58951661886E+03  0.59894537891E+03  0.91841079922E+02 0.  0.
        -11    1    3    3    0    0 -0.79572516960E+01  0.12085121117E+02 -0.37497513915E+02  0.40192431586E+02  0.00000000000E+00 0.  1.
         12    1    3    3    0    0 -0.58274763594E+02 -0.49242644453E+02 -0.10999558454E+04  0.11025985888E+04  0.00000000000E+00 0. -1.
         11    1    5    5    0    0 -0.61643307739E+02  0.47619683760E+02  0.41558059680E+03  0.42281764877E+03  0.00000000000E+00 0. -1.
        -12    1    5    5    0    0  0.26338371863E+02 -0.85748307776E+01  0.17393602206E+03  0.17612773014E+03  0.00000000000E+00 0.  1.
          5    1    4    4  501    0  0.74712745735E+02  0.55258752346E+02  0.73691825132E+01  0.93312921597E+02  0.41800000000E+01 0. -1.
         -5    1    4    4    0  501  0.26824205431E+02 -0.57146081992E+02 -0.27789950745E+02  0.69101132020E+02  0.41800000000E+01 0. -1.
</event>
<event>
11    1  0.1003949E-008  0.1306372E+03  0.7561462E-02  0.1118489E+00
         22   -1    0    0    0    0  0.00000000000E+00  0.00000000000E+00  0.11771391840E+04  0.11771391840E+04  0.00000000000E+00 0.  1.
         22   -1    0    0    0    0 -0.00000000000E+00 -0.00000000000E+00 -0.10317104627E+04  0.10317104627E+04  0.00000000000E+00 0. -1.
         24    2    1    2    0    0  0.36759439491E+02  0.71328735455E+01 -0.10049910287E+04  0.10088907283E+04  0.80320604551E+02 0.  0.
         25    2    1    2    0    0  0.27164996125E+01  0.32217179516E+01  0.14989944329E+03  0.19527993782E+03  0.12508657873E+03 0.  0.
        -24    2    1    2    0    0 -0.39475939103E+02 -0.10354591497E+02  0.10005203068E+04  0.10046789807E+04  0.81690896644E+02 0.  0.
        -11    1    3    3    0    0  0.93084511680E+01  0.21363970839E+02 -0.78552067459E+02  0.81935912855E+02  0.00000000000E+00 0.  1.
         12    1    3    3    0    0  0.27450988323E+02 -0.14231097294E+02 -0.92643896126E+03  0.92695481542E+03  0.00000000000E+00 0. -1.
         13    1    5    5    0    0  0.13258399841E+01 -0.14946743741E+02  0.32593967314E+02  0.35882164168E+02  0.00000000000E+00 0. -1.
        -14    1    5    5    0    0 -0.40801779087E+02  0.45921522436E+01  0.96792633946E+03  0.96879681650E+03  0.00000000000E+00 0.  1.
          5    1    4    4  501    0  0.19021975011E+01 -0.58091314764E+02  0.10154724120E+03  0.11707917749E+03  0.41800000000E+01 0.  1.
         -5    1    4    4    0  501  0.81430211149E+00  0.61313032716E+02  0.48352202081E+02  0.78200760322E+02  0.41800000000E+01 0.  1.
</event>
<event>
11    1  0.1003949E-008  0.1302061E+03  0.7561462E-02  0.1119016E+00
         22   -1    0    0    0    0  0.00000000000E+00  0.00000000000E+00  0.15112892669E+04  0.15112892669E+04  0.00000000000E+00 0. -1.
         22   -1    0    0    0    0 -0.00000000000E+00 -0.00000000000E+00 -0.19095424695E+03  0.19095424695E+03  0.00000000000E+00 0. -1.
         24    2    1    2    0    0  0.54521527765E+01 -0.37006398193E+02 -0.15152106112E+03  0.17998555978E+03  0.89649151079E+02 0.  0.
         25    2    1    2    0    0  0.12753168917E+02  0.23044064737E+02  0.14383560889E+03  0.19243106203E+03  0.12508940409E+03 0.  0.
        -24    2    1    2    0    0 -0.18205321693E+02  0.13962333456E+02  0.13280204722E+04  0.13298268920E+04  0.65382013801E+02 0.  0.
        -13    1    3    3    0    0  0.39509552090E+02 -0.10955236900E+02 -0.29113918611E+02  0.50285606079E+02  0.00000000000E+00 0.  1.
         14    1    3    3    0    0 -0.34057399313E+02 -0.26051161293E+02 -0.12240714251E+03  0.12969995370E+03  0.00000000000E+00 0. -1.
         13    1    5    5    0    0 -0.14151990084E+02  0.40233781178E+02  0.84435222168E+03  0.84542871386E+03  0.00000000000E+00 0. -1.
        -14    1    5    5    0    0 -0.40533316089E+01 -0.26271447723E+02  0.48366825050E+03  0.48439817816E+03  0.00000000000E+00 0.  1.
          5    1    4    4  501    0 -0.29150805049E+01 -0.42635812857E+02  0.12543386817E+02  0.44733870671E+02  0.41800000000E+01 0. -1.
         -5    1    4    4    0  501  0.15668249422E+02  0.65679877594E+02  0.13129222207E+03  0.14769719136E+03  0.41800000000E+01 0. -1.
</event>
<event>
11    1  0.1003949E-008  0.1533758E+03  0.7561462E-02  0.1093478E+00
         22   -1    0    0    0    0  0.00000000000E+00  0.00000000000E+00  0.12001545902E+04  0.12001545902E+04  0.00000000000E+00 0. -1.
         22   -1    0    0    0    0 -0.00000000000E+00 -0.00000000000E+00 -0.50786035235E+03  0.50786035235E+03  0.00000000000E+00 0. -1.
         24    2    1    2    0    0 -0.23871685685E+02 -0.82080717991E+02 -0.42155517156E+03  0.43769636077E+03  0.81007653467E+02 0.  0.
         25    2    1    2    0    0  0.40486516054E+02  0.12688378468E+03  0.33292823414E+02  0.18572575928E+03  0.12508794015E+03 0.  0.
        -24    2    1    2    0    0 -0.16614830369E+02 -0.44803066694E+02  0.10805565860E+04  0.10845928225E+04  0.80347294462E+02 0.  0.
        -13    1    3    3    0    0  0.68806122227E+01 -0.33294509112E+01  0.10476224065E+00  0.76445433517E+01  0.00000000000E+00 0.  1.
         14    1    3    3    0    0 -0.30752297908E+02 -0.78751267080E+02 -0.42165993380E+03  0.43005181742E+03  0.00000000000E+00 0. -1.
         11    1    5    5    0    0 -0.46287535012E+02 -0.34994721298E+02  0.53400894798E+03  0.53715242059E+03  0.00000000000E+00 0. -1.
        -12    1    5    5    0    0  0.29672704643E+02 -0.98083453953E+01  0.54654763802E+03  0.54744040193E+03  0.00000000000E+00 0.  1.
          5    1    4    4  501    0  0.82151139577E+02  0.89821399183E+02  0.42611961476E+02  0.12903466645E+03  0.41800000000E+01 0.  1.
         -5    1    4    4    0  501 -0.41664623523E+02  0.37062385502E+02 -0.93191380625E+01  0.56691092833E+02  0.41800000000E+01 0.  1.
</event>
<event>
11    1  0.1003949E-008  0.5571576E+03  0.7561462E-02  0.9274153E-01
         22   -1    0    0    0    0  0.00000000000E+00  0.00000000000E+00  0.69368843826E+03  0.69368843826E+03  0.00000000000E+00 0.  1.
         22   -1    0    0    0    0 -0.00000000000E+00 -0.00000000000E+00 -0.96697904095E+03  0.96697904095E+03  0.00000000000E+00 0.  1.
         24    2    1    2    0    0 -0.18151408304E+03 -0.38801092179E+01 -0.45268570309E+03  0.49419072309E+03  0.79609719342E+02 0.  0.
         25    2    1    2    0    0 -0.40822033495E+03 -0.15008927232E+03 -0.13999222408E+03  0.47372511334E+03  0.12508808367E+03 0.  0.
        -24    2    1    2    0    0  0.58973441800E+03  0.15396938154E+03  0.31938732449E+03  0.69275164277E+03  0.80020755463E+02 0.  0.
        -11    1    3    3    0    0 -0.12653399264E+03 -0.37457878671E+02 -0.33446489876E+03  0.35955627164E+03  0.00000000000E+00 0.  1.
         12    1    3    3    0    0 -0.54980090403E+02  0.33577769454E+02 -0.11822080433E+03  0.13463445146E+03  0.00000000000E+00 0. -1.
         13    1    5    5    0    0  0.33514608888E+01  0.83595314885E+01 -0.65612167884E+00  0.90302022377E+01  0.00000000000E+00 0. -1.
        -14    1    5    5    0    0  0.58638295711E+03  0.14560985005E+03  0.32004344616E+03  0.68372144054E+03  0.00000000000E+00 0.  1.
          5    1    4    4  501    0 -0.17007747901E+03 -0.10869921468E+03 -0.11059034278E+03  0.23019462299E+03  0.41800000000E+01 0. -1.
         -5    1    4    4    0  501 -0.23814285594E+03 -0.41390057637E+02 -0.29401881305E+02  0.24353049035E+03  0.41800000000E+01 0. -1.
</event>
<event>
11    1  0.1003949E-008  0.1444391E+03  0.7561462E-02  0.1102700E+00
         22   -1    0    0    0    0  0.00000000000E+00  0.00000000000E+00  0.14609022713E+04  0.14609022713E+04  0.00000000000E+00 0. -1.
         22   -1    0    0    0    0 -0.00000000000E+00 -0.00000000000E+00 -0.33109008110E+02  0.33109008110E+02  0.00000000000E+00 0. -1.
         24    2    1    2    0    0  0.81682595115E+02  0.13496163964E+02  0.19491050592E+03  0.23568959911E+03  0.10346636663E+03 0.  0.
         25    2    1    2    0    0 -0.39999358505E+02 -0.40674125159E+02  0.47258004445E+03  0.49217265231E+03  0.12509071962E+03 0.  0.
        -24    2    1    2    0    0 -0.41683236609E+02  0.27177961195E+02  0.76030271286E+03  0.76614902802E+03  0.80299341040E+02 0.  0.
        -11    1    3    3    0    0  0.55654049714E+02 -0.36982449060E+02  0.14666498722E+03  0.16116976536E+03  0.00000000000E+00 0.  1.
         12    1    3    3    0    0  0.26028545400E+02  0.50478613023E+02  0.48245518699E+02  0.74519833756E+02  0.00000000000E+00 0. -1.
         13    1    5    5    0    0 -0.15046305261E+02  0.53132663358E+02  0.52912959126E+03  0.53200337928E+03  0.00000000000E+00 0. -1.
        -14    1    5    5    0    0 -0.26636931349E+02 -0.25954702163E+02  0.23117312160E+03  0.23414564874E+03  0.00000000000E+00 0.  1.
          5    1    4    4  501    0 -0.49712332575E+02 -0.56834070586E+02  0.46550135805E+03  0.47160408642E+03  0.41800000000E+01 0. -1.
         -5    1    4    4    0  501  0.97129740700E+01  0.16159945427E+02  0.70786864008E+01  0.20568565887E+02  0.41800000000E+01 0. -1.
</event>
<event>
11    1  0.1003949E-008  0.1495026E+03  0.7561462E-02  0.1097388E+00
         22   -1    0    0    0    0  0.00000000000E+00  0.00000000000E+00  0.50285947600E+03  0.50285947600E+03  0.00000000000E+00 0. -1.
         22   -1    0    0    0    0 -0.00000000000E+00 -0.00000000000E+00 -0.53405458392E+03  0.53405458392E+03  0.00000000000E+00 0. -1.
        -24    2    1    2    0    0 -0.19748938056E+02 -0.59575564183E+02 -0.45573080116E+03  0.46703459336E+03  0.80569720487E+02 0.  0.
         25    2    1    2    0    0  0.96701255978E+02  0.73708758685E+02  0.53539041999E+02  0.18247380924E+03  0.12508456350E+03 0.  0.
         24    2    1    2    0    0 -0.76952317921E+02 -0.14133194502E+02  0.37099665125E+03  0.38740565733E+03  0.79518687571E+02 0.  0.
        -13    1    5    5    0    0 -0.53686044950E+01 -0.10107842395E+02  0.21373756851E+01  0.11642970708E+02  0.00000000000E+00 0.  1.
         14    1    5    5    0    0 -0.71583713426E+02 -0.40253521072E+01  0.36885927556E+03  0.37576268662E+03  0.00000000000E+00 0. -1.
         13    1    3    3    0    0 -0.22555879860E+02 -0.78455768796E+02 -0.39605068570E+03  0.40437633588E+03  0.00000000000E+00 0. -1.
        -14    1    3    3    0    0  0.28069418035E+01  0.18880204613E+02 -0.59680115460E+02  0.62658257475E+02  0.00000000000E+00 0.  1.
          5    1    4    4  501    0  0.24607953636E+02 -0.47277146577E+01 -0.35440412183E+02  0.43605021314E+02  0.41800000000E+01 0.  1.
         -5    1    4    4    0  501  0.72093302341E+02  0.78436473343E+02  0.88979454183E+02  0.13886878792E+03  0.41800000000E+01 0.  1.
</event>
<event>
11    1  0.1003949E-008  0.1348215E+03  0.7561462E-02  0.1113483E+00
         22   -1    0    0    0    0  0.00000000000E+00  0.00000000000E+00  0.14272373331E+03  0.14272373331E+03  0.00000000000E+00 0.  1.
         22   -1    0    0    0    0 -0.00000000000E+00 -0.00000000000E+00 -0.30845802209E+03  0.30845802209E+03  0.00000000000E+00 0.  1.
         24    2    1    2    0    0 -0.97971880216E+00 -0.40205377099E+01 -0.14440198258E+03  0.16565351658E+03  0.81068060369E+02 0.  0.
         25    2    1    2    0    0 -0.48794339763E+02  0.11517048555E+02 -0.95226599500E+02  0.16501537175E+03  0.12509371551E+03 0.  0.
        -24    2    1    2    0    0  0.49774058565E+02 -0.74965108446E+01  0.73894293291E+02  0.12051286707E+03  0.80804269485E+02 0.  0.
        -13    1    3    3    0    0  0.26999727195E+01 -0.21332976725E+02 -0.14628269713E+03  0.14785470310E+03  0.00000000000E+00 0.  1.
         14    1    3    3    0    0 -0.36796915216E+01  0.17312439015E+02  0.18807145504E+01  0.17798813488E+02  0.00000000000E+00 0. -1.
         11    1    5    5    0    0  0.24396578865E+02 -0.29998077486E+02 -0.58925733839E+00  0.38670724552E+02  0.00000000000E+00 0. -1.
        -12    1    5    5    0    0  0.25377479701E+02  0.22501566641E+02  0.74483550629E+02  0.81842142516E+02  0.00000000000E+00 0.  1.
          5    1    4    4  501    0  0.13598001604E+02  0.47012643724E+02 -0.46058920753E+01  0.49333365579E+02  0.41800000000E+01 0.  1.
         -5    1    4    4    0  501 -0.62392341367E+02 -0.35495595169E+02 -0.90620707425E+02  0.11568200617E+03  0.41800000000E+01 0.  1.
</event>
<event>
11    1  0.1003949E-008  0.1962545E+03  0.7561462E-02  0.1057204E+00
         22   -1    0    0    0    0  0.00000000000E+00  0.00000000000E+00  0.97376751313E+03  0.97376751313E+03  0.00000000000E+00 0.  1.
         22   -1    0    0    0    0 -0.00000000000E+00 -0.00000000000E+00 -0.59459119788E+02  0.59459119788E+02  0.00000000000E+00 0. -1.
        -24    2    1    2    0    0 -0.13012323469E+03  0.85323871018E+02  0.22212349553E+03  0.28238500350E+03  0.78677975108E+02 0.  0.
         25    2    1    2    0    0  0.13808231805E+03 -0.49271955013E+02  0.39140464790E+03  0.43628613668E+03  0.12511411809E+03 0.  0.
         24    2    1    2    0    0 -0.79590833646E+01 -0.36051916005E+02  0.30078024991E+03  0.31455549274E+03  0.84340450679E+02 0.  0.
        -11    1    5    5    0    0  0.12686798676E+02 -0.25153936113E+02  0.28497204110E+03  0.28636120472E+03  0.00000000000E+00 0.  1.
         12    1    5    5    0    0 -0.20645882040E+02 -0.10897979892E+02  0.15808208814E+02  0.28194288018E+02  0.00000000000E+00 0. -1.
         11    1    3    3    0    0 -0.10950453785E+03  0.86429602303E+02  0.22144746035E+03  0.26172561521E+03  0.00000000000E+00 0. -1.
        -12    1    3    3    0    0 -0.20618696837E+02 -0.11057312847E+01  0.67603517906E+00  0.20659388290E+02  0.00000000000E+00 0.  1.
          5    1    4    4  501    0 -0.77471524579E+01 -0.13431848591E+02  0.15735270859E+03  0.15817009904E+03  0.41800000000E+01 0.  1.
         -5    1    4    4    0  501  0.14582947051E+03 -0.35840106422E+02  0.23405193931E+03  0.27811603764E+03  0.41800000000E+01 0.  1.
</event>
<event>
11    1  0.1003949E-008  0.2012098E+03  0.7561462E-02  0.1053671E+00
         22   -1    0    0    0    0  0.00000000000E+00  0.00000000000E+00  0.71694375497E+03  0.71694375497E+03  0.00000000000E+00 0. -1.
         22   -1    0    0    0    0 -0.00000000000E+00 -0.00000000000E+00 -0.34095569336E+03  0.34095569336E+03  0.00000000000E+00 0.  1.
         24    2    1    2    0    0  0.34885092922E+02 -0.15022131825E+03 -0.24041209893E+03  0.29642709274E+03  0.79294576316E+02 0.  0.
         25    2    1    2    0    0 -0.14267402597E+02  0.17961198606E+03  0.10404808453E+03  0.24277409417E+03  0.12509689282E+03 0.  0.
        -24    2    1    2    0    0 -0.20617690325E+02 -0.29390667807E+02  0.51235207601E+03  0.51869826142E+03  0.72486799494E+02 0.  0.
        -13    1    3    3    0    0  0.57483234630E+02 -0.13318042056E+03 -0.20376019848E+03  0.25011910197E+03  0.00000000000E+00 0.  1.
         14    1    3    3    0    0 -0.22598141709E+02 -0.17040897687E+02 -0.36651900456E+02  0.46307990776E+02  0.00000000000E+00 0. -1.
         13    1    5    5    0    0 -0.86873608263E+01 -0.87110141667E+01  0.46936676687E+03  0.46952796919E+03  0.00000000000E+00 0. -1.
        -14    1    5    5    0    0 -0.11930329498E+02 -0.20679653641E+02  0.42985309142E+02  0.49170292237E+02  0.00000000000E+00 0.  1.
          5    1    4    4  501    0 -0.58283975462E+02  0.16077781370E+03  0.76656730145E+02  0.18745733875E+03  0.41800000000E+01 0. -1.
         -5    1    4    4    0  501  0.44016572865E+02  0.18834172353E+02  0.27391354386E+02  0.55316755419E+02  0.41800000000E+01 0. -1.
</event>
<event>
11    1  0.1003949E-008  0.1325889E+03  0.7561462E-02  0.1116128E+00
         22   -1    0    0    0    0  0.00000000000E+00  0.00000000000E+00  0.14844609723E+04  0.14844609723E+04  0.00000000000E+00 0.  1.
         22   -1    0    0    0    0 -0.00000000000E+00 -0.00000000000E+00 -0.47162180432E+03  0.47162180432E+03  0.00000000000E+00 0. -1.
         24    2    1    2    0    0 -0.16500328393E+02 -0.35550540373E+00 -0.40309701950E+03  0.41116664827E+03  0.79362574922E+02 0.  0.
         25    2    1    2    0    0 -0.22842487600E+02  0.20715230047E+02  0.29181487555E+01  0.12886765042E+03  0.12508979070E+03 0.  0.
        -24    2    1    2    0    0  0.39342815993E+02 -0.20359724643E+02  0.14130180387E+04  0.14160484779E+04  0.81307678111E+02 0.  0.
        -11    1    3    3    0    0  0.52984962311E+01 -0.33378502476E+01  0.11112258900E+01  0.63600416323E+01  0.00000000000E+00 0.  1.
         12    1    3    3    0    0 -0.21798824624E+02  0.29823448439E+01 -0.40420824539E+03  0.40480660664E+03  0.00000000000E+00 0. -1.
         11    1    5    5    0    0  0.18214920226E+02  0.29880978659E+02  0.38519111762E+03  0.38677752429E+03  0.00000000000E+00 0. -1.
        -12    1    5    5    0    0  0.21127895767E+02 -0.50240703302E+02  0.10278269211E+04  0.10292709536E+04  0.00000000000E+00 0.  1.
          5    1    4    4  501    0 -0.56770419658E+02 -0.20232715512E+02  0.31733910981E+02  0.68240433991E+02  0.41800000000E+01 0. -1.
         -5    1    4    4    0  501  0.33927932058E+02  0.40947945559E+02 -0.28815762226E+02  0.60627216429E+02  0.41800000000E+01 0. -1.
</event>
<event>
11    1  0.1003949E-008  0.2004676E+03  0.7561462E-02  0.1054193E+00
         22   -1    0    0    0    0  0.00000000000E+00  0.00000000000E+00  0.59868977417E+02  0.59868977417E+02  0.00000000000E+00 0. -1.
         22   -1    0    0    0    0 -0.00000000000E+00 -0.00000000000E+00 -0.12695273035E+04  0.12695273035E+04  0.00000000000E+00 0.  1.
        -24    2    1    2    0    0 -0.97202696775E+01  0.52926016444E+02 -0.53681678608E+03  0.54525229158E+03  0.78943985189E+02 0.  0.
         25    2    1    2    0    0 -0.34489210951E+02 -0.18781496054E+03 -0.47910711640E+03  0.53071101977E+03  0.12508633996E+03 0.  0.
         24    2    1    2    0    0  0.44209480629E+02  0.13488894410E+03 -0.19373442360E+03  0.25343296956E+03  0.80905733764E+02 0.  0.
        -11    1    5    5    0    0  0.58927674056E+02  0.11461904300E+03 -0.18766562473E+03  0.22765847776E+03  0.00000000000E+00 0.  1.
         12    1    5    5    0    0 -0.14718193427E+02  0.20269901096E+02 -0.60687988704E+01  0.25774491807E+02  0.00000000000E+00 0. -1.
         11    1    3    3    0    0 -0.18009373961E+02 -0.61404797017E+01 -0.31444923745E+03  0.31502438949E+03  0.00000000000E+00 0. -1.
        -12    1    3    3    0    0  0.82891042836E+01  0.59066496146E+02 -0.22236754862E+03  0.23022790208E+03  0.00000000000E+00 0.  1.
          5    1    4    4  501    0  0.16103083221E+02  0.89760829840E+01 -0.15260524811E+02  0.24294760185E+02  0.41800000000E+01 0. -1.
         -5    1    4    4    0  501 -0.50592294172E+02 -0.19679104353E+03 -0.46384659159E+03  0.50641625959E+03  0.41800000000E+01 0. -1.
</event>
<event>
11    1  0.1003949E-008  0.1818274E+03  0.7561462E-02  0.1068174E+00
         22   -1    0    0    0    0  0.00000000000E+00  0.00000000000E+00  0.40395888637E+03  0.40395888637E+03  0.00000000000E+00 0. -1.
         22   -1    0    0    0    0 -0.00000000000E+00 -0.00000000000E+00 -0.73955334109E+03  0.73955334109E+03  0.00000000000E+00 0.  1.
         24    2    1    2    0    0 -0.76300530329E+02 -0.30546968318E+02 -0.59624245294E+03  0.60738836978E+03  0.81612994359E+02 0.  0.
         25    2    1    2    0    0  0.14938139701E+03  0.12846982393E+03 -0.41693542956E+01  0.23341737308E+03  0.12508792550E+03 0.  0.
        -24    2    1    2    0    0 -0.73080866685E+02 -0.97922855609E+02  0.26481735252E+03  0.30270648460E+03  0.81075809560E+02 0.  0.
        -11    1    3    3    0    0 -0.43040355005E+02  0.21505561988E+01 -0.48297779598E+03  0.48489653377E+03  0.00000000000E+00 0.  1.
         12    1    3    3    0    0 -0.33260175324E+02 -0.32697524517E+02 -0.11326465696E+03  0.12249183601E+03  0.00000000000E+00 0. -1.
         11    1    5    5    0    0 -0.86700262904E+01 -0.71035461089E+02  0.93703337643E+02  0.11790471396E+03  0.00000000000E+00 0. -1.
        -12    1    5    5    0    0 -0.64410840395E+02 -0.26887394521E+02  0.17111401488E+03  0.18480177064E+03  0.00000000000E+00 0.  1.
          5    1    4    4  501    0 -0.79420827996E+01  0.58517382289E+02  0.12099966371E+02  0.60425510302E+02  0.41800000000E+01 0. -1.
         -5    1    4    4    0  501  0.15732347981E+03  0.69952441639E+02 -0.16269320666E+02  0.17299186278E+03  0.41800000000E+01 0. -1.
</event>
<event>
11    1  0.1003949E-008  0.1258434E+03  0.7561462E-02  0.1124484E+00
         22   -1    0    0    0    0  0.00000000000E+00  0.00000000000E+00  0.11020823660E+03  0.11020823660E+03  0.00000000000E+00 0. -1.
         22   -1    0    0    0    0 -0.00000000000E+00 -0.00000000000E+00 -0.11981905694E+04  0.11981905694E+04  0.00000000000E+00 0. -1.
         24    2    1    2    0    0 -0.15246918314E+02  0.47797923111E+01 -0.87081950560E+03  0.87480569117E+03  0.81872284903E+02 0.  0.
         25    2    1    2    0    0  0.10695992962E+01  0.44028804188E+01 -0.29506886819E+03  0.32051929715E+03  0.12508578447E+03 0.  0.
        -24    2    1    2    0    0  0.14177319018E+02 -0.91826727299E+01  0.77906040957E+02  0.11307381771E+03  0.80193635534E+02 0.  0.
        -11    1    3    3    0    0  0.29237419843E+02 -0.11998476152E+02 -0.22086370908E+03  0.22311335266E+03  0.00000000000E+00 0.  1.
         12    1    3    3    0    0 -0.44484338158E+02  0.16778268463E+02 -0.64995579652E+03  0.65169233850E+03  0.00000000000E+00 0. -1.
         11    1    5    5    0    0  0.46234377928E+02 -0.16450652859E+02  0.47465319172E+02  0.68272968341E+02  0.00000000000E+00 0. -1.
        -12    1    5    5    0    0 -0.32057058910E+02  0.72679801293E+01  0.30440721785E+02  0.44800849366E+02  0.00000000000E+00 0.  1.
          5    1    4    4  501    0 -0.43178211499E+02 -0.37818603090E+02 -0.93098038715E+02  0.10945008863E+03  0.41800000000E+01 0.  1.
         -5    1    4    4    0  501  0.44247810795E+02  0.42221483509E+02 -0.20197082947E+03  0.21106920853E+03  0.41800000000E+01 0.  1.
</event>
<event>
11    1  0.1003949E-008  0.1813095E+03  0.7561462E-02  0.1068588E+00
         22   -1    0    0    0    0  0.00000000000E+00  0.00000000000E+00  0.15653304742E+04  0.15653304742E+04  0.00000000000E+00 0.  1.
         22   -1    0    0    0    0 -0.00000000000E+00 -0.00000000000E+00 -0.16883790008E+03  0.16883790008E+03  0.00000000000E+00 0. -1.
         24    2    1    2    0    0  0.17823576447E+02  0.20972494320E+02 -0.11199138041E+03  0.14062586572E+03  0.80473843120E+02 0.  0.
         25    2    1    2    0    0 -0.13753803634E+03 -0.68277723526E+02  0.21914432582E+03  0.29538122873E+03  0.12508907138E+03 0.  0.
        -24    2    1    2    0    0  0.11971445989E+03  0.47305229207E+02  0.12893396288E+04  0.12981612799E+04  0.79099264642E+02 0.  0.
        -13    1    3    3    0    0  0.36934587440E+02 -0.13711577194E+02 -0.29822201889E+02  0.49411889501E+02  0.00000000000E+00 0.  1.
         14    1    3    3    0    0 -0.19111010992E+02  0.34684071514E+02 -0.82169178525E+02  0.91213976218E+02  0.00000000000E+00 0. -1.
         13    1    5    5    0    0 -0.59915715395E+01  0.21993063508E+02  0.18195286959E+03  0.18337513606E+03  0.00000000000E+00 0. -1.
        -14    1    5    5    0    0  0.12570603143E+03  0.25312165699E+02  0.11073867592E+04  0.11147861438E+04  0.00000000000E+00 0.  1.
          5    1    4    4  501    0 -0.62286753313E+02  0.21132299139E+02  0.13835266334E+03  0.15324863966E+03  0.41800000000E+01 0.  1.
         -5    1    4    4    0  501 -0.75251283025E+02 -0.89410022666E+02  0.80791662482E+02  0.14213258907E+03  0.41800000000E+01 0.  1.
</event>
<event>
11    1  0.1003949E-008  0.1775769E+03  0.7561462E-02  0.1071620E+00
         22   -1    0    0    0    0  0.00000000000E+00  0.00000000000E+00  0.11479399280E+04  0.11479399280E+04  0.00000000000E+00 0.  1.
         22   -1    0    0    0    0 -0.00000000000E+00 -0.00000000000E+00 -0.66152190839E+03  0.66152190839E+03  0.00000000000E+00 0. -1.
         24    2    1    2    0    0  0.36051203462E+02  0.11699661041E+03 -0.55006372422E+03  0.56909086693E+03  0.79412958623E+02 0.  0.
         25    2    1    2    0    0 -0.27795509142E+02 -0.16803920738E+03  0.12332047513E+02  0.21166630515E+03  0.12506310325E+03 0.  0.
        -24    2    1    2    0    0 -0.82556943201E+01  0.51042596964E+02  0.10241496963E+04  0.10287046643E+04  0.81714030093E+02 0.  0.
        -13    1    3    3    0    0  0.16044473385E+02  0.22176583143E+02 -0.32308280635E+02  0.42344432499E+02  0.00000000000E+00 0.  1.
         14    1    3    3    0    0  0.20006730078E+02  0.94820027269E+02 -0.51775544359E+03  0.52674643443E+03  0.00000000000E+00 0. -1.
         11    1    5    5    0    0  0.22208577343E+02 -0.12819968655E+02  0.23815519496E+03  0.23953177115E+03  0.00000000000E+00 0. -1.
        -12    1    5    5    0    0 -0.30464271663E+02  0.63862565619E+02  0.78599450136E+03  0.78917289316E+03  0.00000000000E+00 0.  1.
          5    1    4    4  501    0  0.11589561742E+02  0.90068469033E+01  0.25552568875E+02  0.29763188818E+02  0.41800000000E+01 0.  1.
         -5    1    4    4    0  501 -0.39385070884E+02 -0.17704605428E+03 -0.13220521362E+02  0.18190311633E+03  0.41800000000E+01 0.  1.
</event>
<event>
11    1  0.1003949E-008  0.1259911E+03  0.7561462E-02  0.1124295E+00
         22   -1    0    0    0    0  0.00000000000E+00  0.00000000000E+00  0.71364692471E+03  0.71364692471E+03  0.00000000000E+00 0. -1.
         22   -1    0    0    0    0 -0.00000000000E+00 -0.00000000000E+00 -0.37697973288E+03  0.37697973288E+03  0.00000000000E+00 0.  1.
         24    2    1    2    0    0 -0.34257135858E+01  0.14864392214E+02 -0.34950895207E+03  0.36057758853E+03  0.87332720682E+02 0.  0.
         25    2    1    2    0    0 -0.33987191329E+02 -0.16753502928E+02  0.22078976369E+03  0.25657125920E+03  0.12507950377E+03 0.  0.
        -24    2    1    2    0    0  0.37412904915E+02  0.18891107139E+01  0.46538638020E+03  0.47347780986E+03  0.78698534715E+02 0.  0.
        -11    1    3    3    0    0 -0.32096553988E+02 -0.60428164835E+01 -0.28574266815E+03  0.28760315855E+03  0.00000000000E+00 0.  1.
         12    1    3    3    0    0  0.28670840402E+02  0.20907208698E+02 -0.63766283917E+02  0.72974429970E+02  0.00000000000E+00 0. -1.
         11    1    5    5    0    0  0.53288220318E+02  0.12272408690E+02  0.19779142188E+03  0.20521133743E+03  0.00000000000E+00 0. -1.
        -12    1    5    5    0    0 -0.15875315403E+02 -0.10383297976E+02  0.26759495832E+03  0.26826647244E+03  0.00000000000E+00 0.  1.
          5    1    4    4  501    0  0.21683717629E+02 -0.21105482235E+02  0.18705977685E+01  0.30603864570E+02  0.41800000000E+01 0.  1.
         -5    1    4    4    0  501 -0.55670908958E+02  0.43519793065E+01  0.21891916593E+03  0.22596739463E+03  0.41800000000E+01 0.  1.
</event>
<event>
11    1  0.1003949E-008  0.1424994E+03  0.7561462E-02  0.1104799E+00
         22   -1    0    0    0    0  0.00000000000E+00  0.00000000000E+00  0.62744226526E+03  0.62744226526E+03  0.00000000000E+00 0. -1.
         22   -1    0    0    0    0 -0.00000000000E+00 -0.00000000000E+00 -0.78675372843E+02  0.78675372843E+02  0.00000000000E+00 0.  1.
        -24    2    1    2    0    0  0.24616353671E+02  0.59965492053E+02  0.61872375834E+01  0.10296859401E+03  0.79764806393E+02 0.  0.
         25    2    1    2    0    0 -0.16479460616E+02 -0.81909269950E+02  0.19964445993E+03  0.24997220983E+03  0.12508994436E+03 0.  0.
         24    2    1    2    0    0 -0.81368930554E+01  0.21943777897E+02  0.34293519491E+03  0.35317683426E+03  0.81126998822E+02 0.  0.
        -13    1    5    5    0    0  0.35053718543E+02  0.27200167900E+01  0.10962718720E+03  0.11512724199E+03  0.00000000000E+00 0.  1.
         14    1    5    5    0    0 -0.43190611598E+02  0.19223761107E+02  0.23330800770E+03  0.23804959227E+03  0.00000000000E+00 0. -1.
         13    1    3    3    0    0  0.25050551285E+02  0.28837303854E+02  0.41155413125E+02  0.56150585417E+02  0.00000000000E+00 0. -1.
        -14    1    3    3    0    0 -0.43419761336E+00  0.31128188200E+02 -0.34968175542E+02  0.46818008596E+02  0.00000000000E+00 0.  1.
          5    1    4    4  501    0  0.77073903409E+01  0.22312532968E+02  0.62924505722E+00  0.23981687653E+02  0.41800000000E+01 0.  1.
         -5    1    4    4    0  501 -0.24186850957E+02 -0.10422180292E+03  0.19901521487E+03  0.22599052218E+03  0.41800000000E+01 0.  1.
</event>
<event>
11    1  0.1003949E-008  0.1370628E+03  0.7561462E-02  0.1110883E+00
         22   -1    0    0    0    0  0.00000000000E+00  0.00000000000E+00  0.34983666678E+03  0.34983666678E+03  0.00000000000E+00 0.  1.
         22   -1    0    0    0    0 -0.00000000000E+00 -0.00000000000E+00 -0.69549515872E+03  0.69549515872E+03  0.00000000000E+00 0.  1.
        -24    2    1    2    0    0  0.52742899507E+02 -0.47322919755E+01 -0.49361506620E+03  0.50311660319E+03  0.81647258347E+02 0.  0.
         25    2    1    2    0    0 -0.71807903918E+02  0.25235991003E+02 -0.16370781804E+03  0.21963310225E+03  0.12508085228E+03 0.  0.
         24    2    1    2    0    0  0.19065004411E+02 -0.20503699028E+02  0.31166439230E+03  0.32258212006E+03  0.78362329509E+02 0.  0.
        -13    1    5    5    0    0  0.15757867537E+02 -0.31752554224E+02  0.30837341631E+03  0.31040408982E+03  0.00000000000E+00 0.  1.
         14    1    5    5    0    0  0.33071368740E+01  0.11248855196E+02  0.32909759887E+01  0.12178030238E+02  0.00000000000E+00 0. -1.
         13    1    3    3    0    0 -0.16843107675E+02 -0.16678241001E+02 -0.77152491754E+02  0.80711591379E+02  0.00000000000E+00 0. -1.
        -14    1    3    3    0    0  0.69586007182E+02  0.11945949026E+02 -0.41646257444E+03  0.42240501181E+03  0.00000000000E+00 0.  1.
          5    1    4    4  501    0 -0.10746739309E+03  0.22616209797E+02 -0.13099480884E+03  0.17099077713E+03  0.41800000000E+01 0. -1.
         -5    1    4    4    0  501  0.35659489168E+02  0.26197812059E+01 -0.32713009201E+02  0.48642325111E+02  0.41800000000E+01 0. -1.
</event>
<event>
11    1  0.1003949E-008  0.1358708E+03  0.7561462E-02  0.1112259E+00
         22   -1    0    0    0    0  0.00000000000E+00  0.00000000000E+00  0.21487473586E+03  0.21487473586E+03  0.00000000000E+00 0. -1.
         22   -1    0    0    0    0 -0.00000000000E+00 -0.00000000000E+00 -0.37621976378E+04  0.37621976378E+04  0.00000000000E+00 0. -1.
         24    2    1    2    0    0  0.23070674404E+02 -0.47507324342E+02 -0.36419691243E+04  0.36432480297E+04  0.80795428718E+02 0.  0.
         25    2    1    2    0    0 -0.20880361826E+02  0.67416692840E+02 -0.62822006601E+02  0.15676466375E+03  0.12509018867E+03 0.  0.
        -24    2    1    2    0    0 -0.21903125780E+01 -0.19909368498E+02  0.15746822903E+03  0.17705968020E+03  0.78439191577E+02 0.  0.
        -11    1    3    3    0    0  0.13440390621E+02  0.16575777854E+01 -0.98696061745E+02  0.99620802386E+02  0.00000000000E+00 0.  1.
         12    1    3    3    0    0  0.96302837837E+01 -0.49164902127E+02 -0.35432730626E+04  0.35436272273E+04  0.00000000000E+00 0. -1.
         13    1    5    5    0    0 -0.30494302815E+01 -0.11446145668E+02  0.16516413522E+03  0.16558835961E+03  0.00000000000E+00 0. -1.
        -14    1    5    5    0    0  0.85911770353E+00 -0.84632228304E+01 -0.76959061915E+01  0.11471320587E+02  0.00000000000E+00 0.  1.
          5    1    4    4  501    0 -0.29733999375E+01  0.10319620255E+03 -0.47472936092E+02  0.11370773672E+03  0.41800000000E+01 0. -1.
         -5    1    4    4    0  501 -0.17906961889E+02 -0.35779509714E+02 -0.15349070509E+02  0.43056927026E+02  0.41800000000E+01 0. -1.
</event>
<event>
11    1  0.1003949E-008  0.1367700E+03  0.7561462E-02  0.1111220E+00
         22   -1    0    0    0    0  0.00000000000E+00  0.00000000000E+00  0.11344543786E+04  0.11344543786E+04  0.00000000000E+00 0.  1.
         22   -1    0    0    0    0 -0.00000000000E+00 -0.00000000000E+00 -0.35815150106E+03  0.35815150106E+03  0.00000000000E+00 0.  1.
         24    2    1    2    0    0  0.54999788051E+02  0.51373151187E+01 -0.29834005146E+03  0.31438946781E+03  0.82356435495E+02 0.  0.
         25    2    1    2    0    0 -0.57895595959E+02  0.22335017595E+02  0.47879060695E+02  0.14761665453E+03  0.12509004437E+03 0.  0.
        -24    2    1    2    0    0  0.28958079077E+01 -0.27472332714E+02  0.10267638683E+04  0.10305997574E+04  0.84431651329E+02 0.  0.
        -11    1    3    3    0    0  0.17743318760E+02  0.36753881727E+01 -0.26097667158E+03  0.26160496354E+03  0.00000000000E+00 0.  1.
         12    1    3    3    0    0  0.37256469291E+02  0.14619269460E+01 -0.37363379884E+02  0.52784504268E+02  0.00000000000E+00 0. -1.
         13    1    5    5    0    0 -0.35372721633E+02  0.73004369958E+01  0.34801700624E+03  0.34988621357E+03  0.00000000000E+00 0. -1.
        -14    1    5    5    0    0  0.38268529540E+02 -0.34772769710E+02  0.67874686211E+03  0.68071354379E+03  0.00000000000E+00 0.  1.
          5    1    4    4  501    0 -0.70778599452E+02 -0.29066506496E+02  0.83552232552E+00  0.76633168000E+02  0.41800000000E+01 0.  1.
         -5    1    4    4    0  501  0.12883003493E+02  0.51401524091E+02  0.47043538369E+02  0.70983486532E+02  0.41800000000E+01 0.  1.
</event>
<event>
11    1  0.1003949E-008  0.1741099E+03  0.7561462E-02  0.1074509E+00
         22   -1    0    0    0    0  0.00000000000E+00  0.00000000000E+00  0.53220955700E+03  0.53220955700E+03  0.00000000000E+00 0. -1.
         22   -1    0    0    0    0 -0.00000000000E+00 -0.00000000000E+00 -0.89750517103E+03  0.89750517103E+03  0.00000000000E+00 0. -1.
        -24    2    1    2    0    0  0.11967949683E+03  0.12911466719E+02 -0.82838016142E+03  0.84059157771E+03  0.76750379558E+02 0.  0.
         25    2    1    2    0    0 -0.13528902292E+03 -0.53868831727E+02  0.10407525805E+03  0.21836555499E+03  0.12508751143E+03 0.  0.
         24    2    1    2    0    0  0.15609526084E+02  0.40957365009E+02  0.35900928934E+03  0.37075759533E+03  0.81562010843E+02 0.  0.
        -11    1    5    5    0    0 -0.16253806597E+02  0.11912306802E+02  0.17958999953E+02  0.26992868716E+02  0.00000000000E+00 0.  1.
         12    1    5    5    0    0  0.31863332681E+02  0.29045058207E+02  0.34105028938E+03  0.34376472662E+03  0.00000000000E+00 0. -1.
         13    1    3    3    0    0  0.34398019405E+02  0.57483212847E+00 -0.49706870493E+03  0.49825781639E+03  0.00000000000E+00 0. -1.
        -14    1    3    3    0    0  0.85281477427E+02  0.12336634590E+02 -0.33131145649E+03  0.34233376133E+03  0.00000000000E+00 0.  1.
          5    1    4    4  501    0 -0.93876755123E+02 -0.75284939904E+02  0.19887338450E+02  0.12203952622E+03  0.41800000000E+01 0. -1.
         -5    1    4    4    0  501 -0.41412267793E+02  0.21416108176E+02  0.84187919598E+02  0.96326028774E+02  0.41800000000E+01 0. -1.
</event>
<event>
11    1  0.1003949E-008  0.2219984E+03  0.7561462E-02  0.1039973E+00
         22   -1    0    0    0    0  0.00000000000E+00  0.00000000000E+00  0.11597552023E+04  0.11597552023E+04  0.00000000000E+00 0. -1.
         22   -1    0    0    0    0 -0.00000000000E+00 -0.00000000000E+00 -0.42636866722E+03  0.42636866722E+03  0.00000000000E+00 0. -1.
        -24    2    1    2    0    0  0.17068510055E+03  0.59286715559E+02 -0.26811030394E+03  0.33358633695E+03  0.82148590560E+02 0.  0.
         25    2    1    2    0    0 -0.20103475579E+03 -0.12074615858E+01 -0.88524395827E+01  0.23694168221E+03  0.12508622659E+03 0.  0.
         24    2    1    2    0    0  0.30349655243E+02 -0.58079253973E+02  0.10103492786E+04  0.10155958503E+04  0.79592494461E+02 0.  0.
        -13    1    5    5    0    0 -0.23076047078E+02 -0.40579937975E+02  0.42725934018E+03  0.42980202313E+03  0.00000000000E+00 0.  1.
         14    1    5    5    0    0  0.53425702321E+02 -0.17499315998E+02  0.58308993838E+03  0.58579382719E+03  0.00000000000E+00 0. -1.
         13    1    3    3    0    0  0.96886609257E+02  0.44523405293E+02 -0.21939956700E+03  0.24393753027E+03  0.00000000000E+00 0. -1.
        -14    1    3    3    0    0  0.73798491293E+02  0.14763310266E+02 -0.48710736940E+02  0.89648806687E+02  0.00000000000E+00 0.  1.
          5    1    4    4  501    0 -0.19494008772E+03 -0.21377699614E+02 -0.38931517618E+02  0.19997944721E+03  0.41800000000E+01 0. -1.
         -5    1    4    4    0  501 -0.60946680721E+01  0.20170238028E+02  0.30079078035E+02  0.36962235003E+02  0.41800000000E+01 0. -1.
</event>
<event>
11    1  0.1003949E-008  0.1327274E+03  0.7561462E-02  0.1115963E+00
         22   -1    0    0    0    0  0.00000000000E+00  0.00000000000E+00  0.51805001654E+03  0.51805001654E+03  0.00000000000E+00 0. -1.
         22   -1    0    0    0    0 -0.00000000000E+00 -0.00000000000E+00 -0.26714240008E+03  0.26714240008E+03  0.00000000000E+00 0.  1.
         24    2    1    2    0    0 -0.97390148957E+01  0.71475720867E+01 -0.13175193727E+03  0.15751855070E+03  0.85484411706E+02 0.  0.
         25    2    1    2    0    0 -0.33985321751E+02 -0.16262054375E+02 -0.82014407574E+02  0.15424998626E+03  0.12508892319E+03 0.  0.
        -24    2    1    2    0    0  0.43724336646E+02  0.91144822887E+01  0.46467396130E+03  0.47342387966E+03  0.78825047545E+02 0.  0.
        -13    1    3    3    0    0 -0.41779769197E+02 -0.15897924819E+02 -0.52279974916E+02  0.68785819068E+02  0.00000000000E+00 0.  1.
         14    1    3    3    0    0  0.32040754301E+02  0.23045496906E+02 -0.79471962350E+02  0.88732731636E+02  0.00000000000E+00 0. -1.
         11    1    5    5    0    0 -0.22069917365E+02  0.29362239318E+01  0.16865904057E+03  0.17012223438E+03  0.00000000000E+00 0. -1.
        -12    1    5    5    0    0  0.65794254011E+02  0.61782583569E+01  0.29601492073E+03  0.30330164528E+03  0.00000000000E+00 0.  1.
          5    1    4    4  501    0  0.21994514391E+02 -0.27451753074E+02 -0.89751699347E+02  0.96489363900E+02  0.41800000000E+01 0. -1.
         -5    1    4    4    0  501 -0.55979836141E+02  0.11189698698E+02  0.77372917725E+01  0.57760622359E+02  0.41800000000E+01 0. -1.
</event>
<event>
11    1  0.1003949E-008  0.1327869E+03  0.7561462E-02  0.1115891E+00
         22   -1    0    0    0    0  0.00000000000E+00  0.00000000000E+00  0.94672734836E+02  0.94672734836E+02  0.00000000000E+00 0. -1.
         22   -1    0    0    0    0 -0.00000000000E+00 -0.00000000000E+00 -0.11592517165E+04  0.11592517165E+04  0.00000000000E+00 0. -1.
        -24    2    1    2    0    0  0.19984615865E+02 -0.14209980500E+01 -0.95095610568E+03  0.95374043484E+03  0.70013555997E+02 0.  0.
         25    2    1    2    0    0 -0.37141504900E+02 -0.38568604608E+02 -0.15113487554E+03  0.20336512060E+03  0.12509433649E+03 0.  0.
         24    2    1    2    0    0  0.17156889035E+02  0.39989602658E+02  0.37511999536E+02  0.96818895919E+02  0.77930875369E+02 0.  0.
        -13    1    5    5    0    0  0.62699011754E+01  0.12286602565E+01 -0.23148167799E+02  0.24013723977E+02  0.00000000000E+00 0.  1.
         14    1    5    5    0    0  0.10886987860E+02  0.38760942401E+02  0.60660167335E+02  0.72805171943E+02  0.00000000000E+00 0. -1.
         11    1    3    3    0    0  0.42876379289E+02  0.98075344694E+01 -0.72877930592E+03  0.73010536800E+03  0.00000000000E+00 0. -1.
        -12    1    3    3    0    0 -0.22891763425E+02 -0.11228532519E+02 -0.22217679975E+03  0.22363506685E+03  0.00000000000E+00 0.  1.
          5    1    4    4  501    0  0.39586607338E+02  0.35789547663E+01 -0.83800979431E+02  0.92843874065E+02  0.41800000000E+01 0. -1.
         -5    1    4    4    0  501 -0.76728112238E+02 -0.42147559374E+02 -0.67333896113E+02  0.11052124653E+03  0.41800000000E+01 0. -1.
</event>
<event>
11    1  0.1003949E-008  0.1312818E+03  0.7561462E-02  0.1117704E+00
         22   -1    0    0    0    0  0.00000000000E+00  0.00000000000E+00  0.18418683890E+04  0.18418683890E+04  0.00000000000E+00 0. -1.
         22   -1    0    0    0    0 -0.00000000000E+00 -0.00000000000E+00 -0.11099520889E+03  0.11099520889E+03  0.00000000000E+00 0.  1.
        -24    2    1    2    0    0 -0.25916156486E+02 -0.22285231968E+02 -0.58203956043E+02  0.10519604280E+03  0.80685985097E+02 0.  0.
         25    2    1    2    0    0  0.43619092867E+02  0.56360884863E+02  0.15734216878E+03  0.21326709751E+03  0.12508845750E+03 0.  0.
         24    2    1    2    0    0 -0.17702936381E+02 -0.34075652895E+02  0.16317349674E+04  0.16344004576E+04  0.85037097125E+02 0.  0.
        -11    1    5    5    0    0  0.90924412022E+01 -0.34492757687E+02  0.26354861779E+03  0.26595168125E+03  0.00000000000E+00 0.  1.
         12    1    5    5    0    0 -0.26795377583E+02  0.41710479225E+00  0.13681863496E+04  0.13684487764E+04  0.00000000000E+00 0. -1.
         11    1    3    3    0    0 -0.18209515396E+02  0.75001954718E+01  0.15672785846E+02  0.25168941162E+02  0.00000000000E+00 0. -1.
        -12    1    3    3    0    0 -0.77066410904E+01 -0.29785427440E+02 -0.73876741889E+02  0.80027101639E+02  0.00000000000E+00 0.  1.
          5    1    4    4  501    0 -0.12251153603E+02  0.80673928271E+02  0.76333799080E+02  0.11181544951E+03  0.41800000000E+01 0.  1.
         -5    1    4    4    0  501  0.55870246470E+02 -0.24313043408E+02  0.81008369698E+02  0.10145164800E+03  0.41800000000E+01 0.  1.
</event>
<event>
11    1  0.1003949E-008  0.1325638E+03  0.7561462E-02  0.1116158E+00
         22   -1    0    0    0    0  0.00000000000E+00  0.00000000000E+00  0.95669064900E+03  0.95669064900E+03  0.00000000000E+00 0. -1.
         22   -1    0    0    0    0 -0.00000000000E+00 -0.00000000000E+00 -0.77325147325E+03  0.77325147325E+03  0.00000000000E+00 0. -1.
         24    2    1    2    0    0  0.12970650284E+02 -0.19789815522E+02 -0.75741757996E+03  0.76189948959E+03  0.79054204441E+02 0.  0.
         25    2    1    2    0    0 -0.52102471682E+02  0.87265582405E+01  0.51499971391E+03  0.53259910948E+03  0.12508511390E+03 0.  0.
        -24    2    1    2    0    0  0.39131821398E+02  0.11063257281E+02  0.42585704179E+03  0.43544352318E+03  0.81259748506E+02 0.  0.
        -11    1    3    3    0    0 -0.28520215034E+02 -0.25750801250E+02 -0.27625694670E+03  0.27891648755E+03  0.00000000000E+00 0.  1.
         12    1    3    3    0    0  0.41490865318E+02  0.59609857289E+01 -0.48116063326E+03  0.48298300204E+03  0.00000000000E+00 0. -1.
         11    1    5    5    0    0  0.58323646947E+02 -0.13331571818E+02  0.28023031488E+03  0.28654564728E+03  0.00000000000E+00 0. -1.
        -12    1    5    5    0    0 -0.19191825549E+02  0.24394829099E+02  0.14562672692E+03  0.14889787590E+03  0.00000000000E+00 0.  1.
          5    1    4    4  501    0 -0.17706895482E+02 -0.23160367687E+02  0.45674269680E+03  0.45769127178E+03  0.41800000000E+01 0. -1.
         -5    1    4    4    0  501 -0.34395576200E+02  0.31886925927E+02  0.58257017111E+02  0.74907837707E+02  0.41800000000E+01 0. -1.
</event>
<event>
11    1  0.1003949E-008  0.2379540E+03  0.7561462E-02  0.1030519E+00
         22   -1    0    0    0    0  0.00000000000E+00  0.00000000000E+00  0.75622690501E+03  0.75622690501E+03  0.00000000000E+00 0.  1.
         22   -1    0    0    0    0 -0.00000000000E+00 -0.00000000000E+00 -0.33585467302E+03  0.33585467302E+03  0.00000000000E+00 0.  1.
         24    2    1    2    0    0  0.37697642703E-02  0.80094187000E+02 -0.22369834097E+03  0.25316545952E+03  0.87388347824E+02 0.  0.
         25    2    1    2    0    0  0.11651733180E+02  0.14020463599E+03  0.42449780052E+02  0.19298508093E+03  0.12509258490E+03 0.  0.
        -24    2    1    2    0    0 -0.11655502945E+02 -0.22029882299E+03  0.60162079291E+03  0.64593103758E+03  0.81313619363E+02 0.  0.
        -13    1    3    3    0    0  0.18138559946E+02  0.85358399678E+01 -0.14056440580E+03  0.14198668987E+03  0.00000000000E+00 0.  1.
         14    1    3    3    0    0 -0.18134790181E+02  0.71558347032E+02 -0.83133935166E+02  0.11117876965E+03  0.00000000000E+00 0. -1.
         11    1    5    5    0    0  0.26269296130E+02 -0.35787898117E+02  0.15448548551E+03  0.16073772053E+03  0.00000000000E+00 0. -1.
        -12    1    5    5    0    0 -0.37924799075E+02 -0.18451092487E+03  0.44713530740E+03  0.48519331705E+03  0.00000000000E+00 0.  1.
          5    1    4    4  501    0  0.49224445314E+01  0.14286598378E+03 -0.66623998727E+01  0.14316696460E+03  0.41800000000E+01 0.  1.
         -5    1    4    4    0  501  0.67292886491E+01 -0.26613477907E+01  0.49112179925E+02  0.49818116331E+02  0.41800000000E+01 0.  1.
</event>
<event>
11    1  0.1003949E-008  0.3781120E+03  0.7561462E-02  0.9716642E-01
         22   -1    0    0    0    0  0.00000000000E+00  0.00000000000E+00  0.59365688677E+03  0.59365688677E+03  0.00000000000E+00 0.  1.
         22   -1    0    0    0    0 -0.00000000000E+00 -0.00000000000E+00 -0.25910528584E+04  0.25910528584E+04  0.00000000000E+00 0. -1.
        -24    2    1    2    0    0 -0.26323847444E+03 -0.24143515295E+03 -0.24132666937E+04  0.24408157845E+04  0.78358990910E+02 0.  0.
         25    2    1    2    0    0  0.22162391992E+03  0.27696046036E+03  0.67473509980E+02  0.38213185994E+03  0.12509126807E+03 0.  0.
         24    2    1    2    0    0  0.41614554515E+02 -0.35525307413E+02  0.34839721212E+03  0.36176210071E+03  0.80606336495E+02 0.  0.
        -13    1    5    5    0    0 -0.87985587028E+00 -0.31521160688E+02  0.27542024695E+03  0.27721953421E+03  0.00000000000E+00 0.  1.
         14    1    5    5    0    0  0.42494410386E+02 -0.40041467254E+01  0.72976965166E+02  0.84542566497E+02  0.00000000000E+00 0. -1.
         13    1    3    3    0    0 -0.21392844502E+03 -0.15077414620E+03 -0.16577235284E+04  0.16782566905E+04  0.00000000000E+00 0. -1.
        -14    1    3    3    0    0 -0.49310029416E+02 -0.90661006747E+02 -0.75554316534E+03  0.76255909400E+03  0.00000000000E+00 0.  1.
          5    1    4    4  501    0  0.12460262668E+03  0.23733785583E+03  0.26008029683E+02  0.26934914589E+03  0.41800000000E+01 0. -1.
         -5    1    4    4    0  501  0.97021293237E+02  0.39622604531E+02  0.41465480297E+02  0.11278271405E+03  0.41800000000E+01 0. -1.
</event>
<event>
11    1  0.1003949E-008  0.1448757E+03  0.7561462E-02  0.1102233E+00
         22   -1    0    0    0    0  0.00000000000E+00  0.00000000000E+00  0.49835199558E+03  0.49835199558E+03  0.00000000000E+00 0. -1.
         22   -1    0    0    0    0 -0.00000000000E+00 -0.00000000000E+00 -0.22894597198E+03  0.22894597198E+03  0.00000000000E+00 0. -1.
        -24    2    1    2    0    0 -0.25103192085E+02 -0.66206657056E+01 -0.18256972884E+03  0.20089834000E+03  0.79714701634E+02 0.  0.
         25    2    1    2    0    0  0.80262939433E+02 -0.34192894481E+02  0.18455706030E+03  0.23941748795E+03  0.12509249197E+03 0.  0.
         24    2    1    2    0    0 -0.55159747348E+02  0.40813560187E+02  0.26741869215E+03  0.28698213962E+03  0.78343137074E+02 0.  0.
        -13    1    5    5    0    0 -0.21052491963E+02 -0.23295682217E+02  0.74332751941E+02  0.80692343125E+02  0.00000000000E+00 0.  1.
         14    1    5    5    0    0 -0.34107255385E+02  0.64109242404E+02  0.19308594021E+03  0.20628979649E+03  0.00000000000E+00 0. -1.
         11    1    3    3    0    0  0.30684062409E+01  0.17345195076E+02 -0.15170841105E+03  0.15272757738E+03  0.00000000000E+00 0. -1.
        -12    1    3    3    0    0 -0.28171598326E+02 -0.23965860781E+02 -0.30861317794E+02  0.48170762619E+02  0.00000000000E+00 0.  1.
          5    1    4    4  501    0  0.18706999036E+02 -0.19590048929E+02  0.17276799830E+03  0.17492848672E+03  0.41800000000E+01 0.  1.
         -5    1    4    4    0  501  0.61555940397E+02 -0.14602845552E+02  0.11789062004E+02  0.64489001228E+02  0.41800000000E+01 0.  1.
</event>
<event>
11    1  0.1003949E-008  0.1280375E+03  0.7561462E-02  0.1121704E+00
         22   -1    0    0    0    0  0.00000000000E+00  0.00000000000E+00  0.32082363083E+03  0.32082363083E+03  0.00000000000E+00 0. -1.
         22   -1    0    0    0    0 -0.00000000000E+00 -0.00000000000E+00 -0.34124029842E+03  0.34124029842E+03  0.00000000000E+00 0. -1.
        -24    2    1    2    0    0 -0.72596673826E+01  0.31752662205E+01 -0.19534679330E+03  0.21033845278E+03  0.77582923237E+02 0.  0.
         25    2    1    2    0    0  0.34209638628E+02 -0.43380175652E+01 -0.10005616588E+03  0.16385236125E+03  0.12508893709E+03 0.  0.
         24    2    1    2    0    0 -0.26949971245E+02  0.11627513447E+01  0.27498629160E+03  0.28787311523E+03  0.80782528826E+02 0.  0.
        -13    1    5    5    0    0 -0.41119479224E+02  0.22371392789E+02  0.93089142247E+02  0.10419634922E+03  0.00000000000E+00 0.  1.
         14    1    5    5    0    0  0.14169507979E+02 -0.21208641444E+02  0.18189714935E+03  0.18367676601E+03  0.00000000000E+00 0. -1.
         13    1    3    3    0    0 -0.15068119748E+02  0.32319031877E+02 -0.15972028593E+03  0.16365249094E+03  0.00000000000E+00 0. -1.
        -14    1    3    3    0    0  0.78084523656E+01 -0.29143765657E+02 -0.35626507369E+02  0.46685961834E+02  0.00000000000E+00 0.  1.
          5    1    4    4  501    0  0.18562842568E+02 -0.53410258371E+02 -0.66268936189E+01  0.57084349366E+02  0.41800000000E+01 0. -1.
         -5    1    4    4    0  501  0.15646796060E+02  0.49072240806E+02 -0.93429272265E+02  0.10676801188E+03  0.41800000000E+01 0. -1.
</event>
<event>
11    1  0.1003949E-008  0.1324568E+03  0.7561462E-02  0.1116287E+00
         22   -1    0    0    0    0  0.00000000000E+00  0.00000000000E+00  0.17138674472E+04  0.17138674472E+04  0.00000000000E+00 0. -1.
         22   -1    0    0    0    0 -0.00000000000E+00 -0.00000000000E+00 -0.19576623440E+03  0.19576623440E+03  0.00000000000E+00 0.  1.
        -24    2    1    2    0    0 -0.39570790328E+02 -0.20497458081E+02 -0.15920502063E+03  0.18329798162E+03  0.79157553263E+02 0.  0.
         25    2    1    2    0    0  0.16122919991E+02  0.29829406509E+02  0.15815612307E+03  0.20447793255E+03  0.12509246018E+03 0.  0.
         24    2    1    2    0    0  0.23447870337E+02 -0.93319484282E+01  0.15191501104E+04  0.15218577675E+04  0.87161451147E+02 0.  0.
        -13    1    5    5    0    0  0.17745257010E+02  0.19915173655E+02  0.14803994787E+03  0.15042384935E+03  0.00000000000E+00 0.  1.
         14    1    5    5    0    0  0.57026133273E+01 -0.29247122083E+02  0.13711101625E+04  0.13714339181E+04  0.00000000000E+00 0. -1.
         11    1    3    3    0    0 -0.11750181498E+02  0.10445697546E+02  0.28568383208E+01  0.15979389464E+02  0.00000000000E+00 0. -1.
        -12    1    3    3    0    0 -0.27820608831E+02 -0.30943155627E+02 -0.16206185895E+03  0.16731859216E+03  0.00000000000E+00 0.  1.
          5    1    4    4  501    0 -0.50988979235E+02  0.35172337488E+02  0.79125368883E+02  0.10057467737E+03  0.41800000000E+01 0.  1.
         -5    1    4    4    0  501  0.67111899227E+02 -0.53429309792E+01  0.79030754185E+02  0.10390325518E+03  0.41800000000E+01 0.  1.
</event>
<event>
11    1  0.1003949E-008  0.1526393E+03  0.7561462E-02  0.1094212E+00
         22   -1    0    0    0    0  0.00000000000E+00  0.00000000000E+00  0.12177121303E+03  0.12177121303E+03  0.00000000000E+00 0. -1.
         22   -1    0    0    0    0 -0.00000000000E+00 -0.00000000000E+00 -0.71522185685E+03  0.71522185685E+03  0.00000000000E+00 0. -1.
         24    2    1    2    0    0  0.79030993076E+02  0.30512482849E+02 -0.54477036313E+03  0.55667074431E+03  0.77010775560E+02 0.  0.
         25    2    1    2    0    0 -0.12217370540E+03 -0.61246629865E+01 -0.56746600967E+02  0.18393436887E+03  0.12509096507E+03 0.  0.
        -24    2    1    2    0    0  0.43142712329E+02 -0.24387819862E+02  0.80663202781E+01  0.96387956702E+02  0.82277052024E+02 0.  0.
        -11    1    3    3    0    0  0.20980337358E+02 -0.36282819153E+00 -0.24480843902E+02  0.32243106521E+02  0.00000000000E+00 0.  1.
         12    1    3    3    0    0  0.58050655718E+02  0.30875311040E+02 -0.52028951923E+03  0.52442763779E+03  0.00000000000E+00 0. -1.
         13    1    5    5    0    0  0.61789405801E+02 -0.10345453163E+02 -0.14078855477E+02  0.64211940026E+02  0.00000000000E+00 0. -1.
        -14    1    5    5    0    0 -0.18646693472E+02 -0.14042366699E+02  0.22145175755E+02  0.32176016677E+02  0.00000000000E+00 0.  1.
          5    1    4    4  501    0 -0.75484262798E+02  0.14897766612E+02  0.30349526180E+02  0.82815357993E+02  0.41800000000E+01 0.  1.
         -5    1    4    4    0  501 -0.46689442607E+02 -0.21022429598E+02 -0.87096127147E+02  0.10111901088E+03  0.41800000000E+01 0.  1.
</event>
<event>
11    1  0.1003949E-008  0.1341029E+03  0.7561462E-02  0.1114328E+00
         22   -1    0    0    0    0  0.00000000000E+00  0.00000000000E+00  0.62249800091E+03  0.62249800091E+03  0.00000000000E+00 0. -1.
         22   -1    0    0    0    0 -0.00000000000E+00 -0.00000000000E+00 -0.74331961848E+02  0.74331961848E+02  0.00000000000E+00 0.  1.
         24    2    1    2    0    0 -0.45742856549E+02  0.11282467276E+02  0.55533165758E+01  0.95794179122E+02  0.83222487559E+02 0.  0.
         25    2    1    2    0    0  0.52846387732E+02 -0.56481970730E+01  0.16031366709E+03  0.21017356929E+03  0.12509122489E+03 0.  0.
        -24    2    1    2    0    0 -0.71035311833E+01 -0.56342702027E+01  0.38229905539E+03  0.39086221435E+03  0.80860977570E+02 0.  0.
        -11    1    3    3    0    0 -0.66914942349E+02 -0.54086172037E+01  0.11692706035E+02  0.68143833353E+02  0.00000000000E+00 0.  1.
         12    1    3    3    0    0  0.21172085800E+02  0.16691084479E+02 -0.61393894591E+01  0.27650345769E+02  0.00000000000E+00 0. -1.
         13    1    5    5    0    0  0.54331962642E+01 -0.39289471334E+02  0.27165567644E+03  0.27453595160E+03  0.00000000000E+00 0. -1.
        -14    1    5    5    0    0 -0.12536727448E+02  0.33655201131E+02  0.11064337895E+03  0.11632626275E+03  0.00000000000E+00 0.  1.
          5    1    4    4  501    0  0.35499790465E+02  0.40225337821E+01  0.17900450383E+03  0.18258285980E+03  0.41800000000E+01 0.  1.
         -5    1    4    4    0  501  0.17346597268E+02 -0.96707308552E+01 -0.18690836739E+02  0.27590709488E+02  0.41800000000E+01 0.  1.
</event>
<event>
11    1  0.1003949E-008  0.1369582E+03  0.7561462E-02  0.1111003E+00
         22   -1    0    0    0    0  0.00000000000E+00  0.00000000000E+00  0.22805562538E+04  0.22805562538E+04  0.00000000000E+00 0. -1.
         22   -1    0    0    0    0 -0.00000000000E+00 -0.00000000000E+00 -0.84736802514E+02  0.84736802514E+02  0.00000000000E+00 0.  1.
        -24    2    1    2    0    0  0.38167813452E+02 -0.40200378887E+02 -0.42618667999E+02  0.10975775388E+03  0.84602371298E+02 0.  0.
         25    2    1    2    0    0 -0.49288547856E+02  0.38959116989E+02  0.61007626270E+03  0.62592809345E+03  0.12508300490E+03 0.  0.
         24    2    1    2    0    0  0.11120734404E+02  0.12412618982E+01  0.16283618566E+04  0.16296072090E+04  0.62706523661E+02 0.  0.
        -13    1    5    5    0    0 -0.23666397595E+02  0.11429026023E+02  0.53576012530E+03  0.53640435575E+03  0.00000000000E+00 0.  1.
         14    1    5    5    0    0  0.34787131998E+02 -0.10187764124E+02  0.10926017313E+04  0.10932028533E+04  0.00000000000E+00 0. -1.
         13    1    3    3    0    0  0.45540163191E+02 -0.58622419030E+02 -0.14972086694E+02  0.75727523771E+02  0.00000000000E+00 0. -1.
        -14    1    3    3    0    0 -0.73723497393E+01  0.18422040143E+02 -0.27646581306E+02  0.34030230114E+02  0.00000000000E+00 0.  1.
          5    1    4    4  501    0 -0.69747933606E+01 -0.35219161794E+01  0.50345201534E+03  0.50352999492E+03  0.41800000000E+01 0.  1.
         -5    1    4    4    0  501 -0.42313754495E+02  0.42481033169E+02  0.10662424736E+03  0.12239809853E+03  0.41800000000E+01 0.  1.
</event>
<event>
11    1  0.1003949E-008  0.2911111E+03  0.7561462E-02  0.1004025E+00
         22   -1    0    0    0    0  0.00000000000E+00  0.00000000000E+00  0.33607406088E+03  0.33607406088E+03  0.00000000000E+00 0. -1.
         22   -1    0    0    0    0 -0.00000000000E+00 -0.00000000000E+00 -0.72317159908E+03  0.72317159908E+03  0.00000000000E+00 0. -1.
         24    2    1    2    0    0  0.58971426213E+02 -0.35329208683E+02 -0.45982979619E+03  0.47227383730E+03  0.82905692455E+02 0.  0.
         25    2    1    2    0    0 -0.20717535999E+03  0.22156486491E+03  0.11367708188E+02  0.32831204298E+03  0.12508778369E+03 0.  0.
        -24    2    1    2    0    0  0.14820393377E+03 -0.18623565623E+03  0.61364549801E+02  0.25865977968E+03  0.80567661076E+02 0.  0.
        -11    1    3    3    0    0  0.25499275434E+02 -0.18323705224E+02 -0.40403037502E+02  0.51170075828E+02  0.00000000000E+00 0.  1.
         12    1    3    3    0    0  0.33472150779E+02 -0.17005503459E+02 -0.41942675869E+03  0.42110376147E+03  0.00000000000E+00 0. -1.
         13    1    5    5    0    0  0.15362656077E+03 -0.18354242670E+03  0.48180889957E+02  0.24415229003E+03  0.00000000000E+00 0. -1.
        -14    1    5    5    0    0 -0.54226269945E+01 -0.26932295361E+01  0.13183659844E+02  0.14507489643E+02  0.00000000000E+00 0.  1.
          5    1    4    4  501    0 -0.10905984640E+03  0.10973164787E+03  0.68031702914E+02  0.16905877570E+03  0.41800000000E+01 0.  1.
         -5    1    4    4    0  501 -0.98115513590E+02  0.11183321705E+03 -0.56663994726E+02  0.15925326729E+03  0.41800000000E+01 0.  1.
</event>
<event>
11    1  0.1003949E-008  0.1347023E+03  0.7561462E-02  0.1113623E+00
         22   -1    0    0    0    0  0.00000000000E+00  0.00000000000E+00  0.18764139607E+03  0.18764139607E+03  0.00000000000E+00 0.  1.
         22   -1    0    0    0    0 -0.00000000000E+00 -0.00000000000E+00 -0.23661954384E+04  0.23661954384E+04  0.00000000000E+00 0.  1.
         24    2    1    2    0    0  0.55209744696E+01 -0.14297474310E+02 -0.19128485878E+04  0.19145938036E+04  0.80279600025E+02 0.  0.
         25    2    1    2    0    0  0.45605607161E+01 -0.35084437430E+02 -0.43010095794E+03  0.44931708656E+03  0.12508914336E+03 0.  0.
        -24    2    1    2    0    0 -0.10081535186E+02  0.49381911741E+02  0.16439550343E+03  0.18992594425E+03  0.80658367170E+02 0.  0.
        -13    1    3    3    0    0  0.22452646010E+02 -0.15311969034E+02 -0.18203501484E+04  0.18205530040E+04  0.00000000000E+00 0.  1.
         14    1    3    3    0    0 -0.16931671541E+02  0.10144947236E+01 -0.92498439410E+02  0.94040799624E+02  0.00000000000E+00 0. -1.
         11    1    5    5    0    0  0.18156275795E+02 -0.10185864441E+02  0.12352887618E+02  0.24207354619E+02  0.00000000000E+00 0. -1.
        -12    1    5    5    0    0 -0.28237810981E+02  0.59567776181E+02  0.15204261581E+03  0.16571858963E+03  0.00000000000E+00 0.  1.
          5    1    4    4  501    0  0.19678382882E+02  0.32607270591E+02 -0.50394647444E+02  0.63305337367E+02  0.41800000000E+01 0.  1.
         -5    1    4    4    0  501 -0.15117822166E+02 -0.67691708021E+02 -0.37970631050E+03  0.38601174919E+03  0.41800000000E+01 0.  1.
</event>
<event>
11    1  0.1003949E-008  0.2160109E+03  0.7561462E-02  0.1043745E+00
         22   -1    0    0    0    0  0.00000000000E+00  0.00000000000E+00  0.68003306953E+03  0.68003306953E+03  0.00000000000E+00 0.  1.
         22   -1    0    0    0    0 -0.00000000000E+00 -0.00000000000E+00 -0.35237060886E+04  0.35237060886E+04  0.00000000000E+00 0.  1.
        -24    2    1    2    0    0 -0.13419303115E+02  0.16960018560E+03 -0.30654378211E+04  0.30711553885E+04  0.78371452327E+02 0.  0.
         25    2    1    2    0    0  0.43894380466E+02 -0.29924194301E+03 -0.38518676164E+03  0.50545864524E+03  0.12508854306E+03 0.  0.
         24    2    1    2    0    0 -0.30475077351E+02  0.12964175741E+03  0.60695156366E+03  0.62712512443E+03  0.84616815437E+02 0.  0.
        -13    1    5    5    0    0 -0.59527749027E+02  0.82244668068E+02  0.41894654811E+03  0.43107301992E+03  0.00000000000E+00 0.  1.
         14    1    5    5    0    0  0.29052671677E+02  0.47397089342E+02  0.18800501555E+03  0.19605210451E+03  0.00000000000E+00 0. -1.
         13    1    3    3    0    0  0.32274857374E+02  0.65117382938E+02 -0.10756948970E+04  0.10781472309E+04  0.00000000000E+00 0. -1.
        -14    1    3    3    0    0 -0.45694160489E+02  0.10448280266E+03 -0.19897429241E+04  0.19930081576E+04  0.00000000000E+00 0.  1.
          5    1    4    4  501    0  0.81039789775E+02 -0.12584897224E+03 -0.16817278879E+03  0.22517764238E+03  0.41800000000E+01 0.  1.
         -5    1    4    4    0  501 -0.37145409309E+02 -0.17339297078E+03 -0.21701397285E+03  0.28028100285E+03  0.41800000000E+01 0.  1.
</event>
<event>
11    1  0.1003949E-008  0.2330784E+03  0.7561462E-02  0.1033321E+00
         22   -1    0    0    0    0  0.00000000000E+00  0.00000000000E+00  0.48832444017E+03  0.48832444017E+03  0.00000000000E+00 0.  1.
         22   -1    0    0    0    0 -0.00000000000E+00 -0.00000000000E+00 -0.34512419942E+03  0.34512419942E+03  0.00000000000E+00 0.  1.
         24    2    1    2    0    0 -0.12948803131E+02  0.22439142434E+02 -0.22587617159E+03  0.24119939902E+03  0.80535200861E+02 0.  0.
         25    2    1    2    0    0  0.20234214465E+03 -0.47999036074E+02  0.12751953346E+03  0.27414428781E+03  0.12509039995E+03 0.  0.
        -24    2    1    2    0    0 -0.18939334151E+03  0.25559893640E+02  0.24155687888E+03  0.31810495277E+03  0.79485151248E+02 0.  0.
        -13    1    3    3    0    0 -0.23435300598E+02  0.76326351779E+01 -0.22105656377E+03  0.22242633571E+03  0.00000000000E+00 0.  1.
         14    1    3    3    0    0  0.10486497467E+02  0.14806507256E+02 -0.48196078232E+01  0.18773063304E+02  0.00000000000E+00 0. -1.
         11    1    5    5    0    0 -0.79286774580E+02 -0.25416945673E+02  0.75152634367E+02  0.11216208006E+03  0.00000000000E+00 0. -1.
        -12    1    5    5    0    0 -0.11010656693E+03  0.50976839313E+02  0.16640424452E+03  0.20594287271E+03  0.00000000000E+00 0.  1.
          5    1    4    4  501    0  0.14436751312E+03  0.25729235198E+02  0.95052621910E+02  0.17480402089E+03  0.41800000000E+01 0. -1.
         -5    1    4    4    0  501  0.57974631529E+02 -0.73728271273E+02  0.32466911546E+02  0.99340266917E+02  0.41800000000E+01 0. -1.
</event>
<event>
11    1  0.1003949E-008  0.1609897E+03  0.7561462E-02  0.1086150E+00
         22   -1    0    0    0    0  0.00000000000E+00  0.00000000000E+00  0.20898276740E+03  0.20898276740E+03  0.00000000000E+00 0.  1.
         22   -1    0    0    0    0 -0.00000000000E+00 -0.00000000000E+00 -0.72635618382E+03  0.72635618382E+03  0.00000000000E+00 0. -1.
        -24    2    1    2    0    0 -0.32033977338E+02 -0.10823014093E+03 -0.57965105593E+03  0.59563617800E+03  0.77763557000E+02 0.  0.
         25    2    1    2    0    0 -0.19823064985E+02  0.51796897827E+02 -0.80805733095E+02  0.15891302868E+03  0.12509161304E+03 0.  0.
         24    2    1    2    0    0  0.51857042323E+02  0.56433243104E+02  0.14308337260E+03  0.18078974454E+03  0.79612916343E+02 0.  0.
        -13    1    5    5    0    0 -0.11052831037E+02  0.37231897672E+02  0.83285229327E+02  0.91895640279E+02  0.00000000000E+00 0.  1.
         14    1    5    5    0    0  0.62909873360E+02  0.19201345432E+02  0.59798143274E+02  0.88894104257E+02  0.00000000000E+00 0. -1.
         13    1    3    3    0    0 -0.18434529885E+02 -0.11070751519E+03 -0.56260258644E+03  0.57368776881E+03  0.00000000000E+00 0. -1.
        -14    1    3    3    0    0 -0.13599447453E+02  0.24773742634E+01 -0.17048469491E+02  0.21948409197E+02  0.00000000000E+00 0.  1.
          5    1    4    4  501    0  0.11340975659E+02  0.75697570438E+02 -0.92918257626E+01  0.77217551924E+02  0.41800000000E+01 0. -1.
         -5    1    4    4    0  501 -0.31164040645E+02 -0.23900672611E+02 -0.71513907333E+02  0.81695476757E+02  0.41800000000E+01 0. -1.
</event>
<event>
11    1  0.1003949E-008  0.3155588E+03  0.7561462E-02  0.9938133E-01
         22   -1    0    0    0    0  0.00000000000E+00  0.00000000000E+00  0.18432608999E+03  0.18432608999E+03  0.00000000000E+00 0.  1.
         22   -1    0    0    0    0 -0.00000000000E+00 -0.00000000000E+00 -0.12997306723E+04  0.12997306723E+04  0.00000000000E+00 0. -1.
        -24    2    1    2    0    0 -0.51527559691E+02  0.31632356222E+02 -0.44681489557E+03  0.45794442270E+03  0.80086503273E+02 0.  0.
         25    2    1    2    0    0 -0.16649793075E+03  0.17576287477E+03 -0.65961464725E+03  0.71368976263E+03  0.12508974911E+03 0.  0.
         24    2    1    2    0    0  0.21802549044E+03 -0.20739523099E+03 -0.89750395245E+01  0.31242257699E+03  0.83542916865E+02 0.  0.
        -13    1    5    5    0    0  0.18735153916E+03 -0.21009339359E+03 -0.75352621203E+01  0.28159654372E+03  0.00000000000E+00 0.  1.
         14    1    5    5    0    0  0.30673951274E+02  0.26981626014E+01 -0.14397774042E+01  0.30826033270E+02  0.00000000000E+00 0. -1.
         11    1    3    3    0    0 -0.38323553190E+02  0.49414037015E+02 -0.41174352085E+03  0.41646508706E+03  0.00000000000E+00 0. -1.
        -12    1    3    3    0    0 -0.13204006501E+02 -0.17781680793E+02 -0.35071374726E+02  0.41479335635E+02  0.00000000000E+00 0.  1.
          5    1    4    4  501    0 -0.17230201750E+03  0.10869969427E+03 -0.46387381022E+03  0.50665569471E+03  0.41800000000E+01 0. -1.
         -5    1    4    4    0  501  0.58040867575E+01  0.67063180503E+02 -0.19574083703E+03  0.20703406793E+03  0.41800000000E+01 0. -1.
</event>
<event>
11    1  0.1003949E-008  0.1629093E+03  0.7561462E-02  0.1084372E+00
         22   -1    0    0    0    0  0.00000000000E+00  0.00000000000E+00  0.35606260430E+03  0.35606260430E+03  0.00000000000E+00 0. -1.
         22   -1    0    0    0    0 -0.00000000000E+00 -0.00000000000E+00 -0.77667558712E+03  0.77667558712E+03  0.00000000000E+00 0.  1.
        -24    2    1    2    0    0  0.46133336204E+02 -0.99682698802E+02 -0.68313887788E+03  0.69660852850E+03  0.80745218820E+02 0.  0.
         25    2    1    2    0    0 -0.11992129045E+02  0.55659768481E+02 -0.18283899299E+02  0.13863498734E+03  0.12507412904E+03 0.  0.
         24    2    1    2    0    0 -0.34141207159E+02  0.44022930321E+02  0.28080979436E+03  0.29749467557E+03  0.80903034354E+02 0.  0.
        -11    1    5    5    0    0 -0.16158007886E+02  0.54666890303E+02  0.97071636817E+02  0.11257198936E+03  0.00000000000E+00 0.  1.
         12    1    5    5    0    0 -0.17983199273E+02 -0.10643959982E+02  0.18373815754E+03  0.18492268621E+03  0.00000000000E+00 0. -1.
         11    1    3    3    0    0 -0.17906981193E+02 -0.45718949464E+00 -0.75059600587E+02  0.77167432496E+02  0.00000000000E+00 0. -1.
        -12    1    3    3    0    0  0.64040317397E+02 -0.99225509307E+02 -0.60807927729E+03  0.61944109600E+03  0.00000000000E+00 0.  1.
          5    1    4    4  501    0 -0.20476890356E+02  0.52085347555E+02 -0.67847331472E+02  0.88050663010E+02  0.41800000000E+01 0. -1.
         -5    1    4    4    0  501  0.84847613117E+01  0.35744209256E+01  0.49563432173E+02  0.50584324333E+02  0.41800000000E+01 0. -1.
</event>
<event>
11    1  0.1003949E-008  0.1484173E+03  0.7561462E-02  0.1098507E+00
         22   -1    0    0    0    0  0.00000000000E+00  0.00000000000E+00  0.15008323050E+03  0.15008323050E+03  0.00000000000E+00 0. -1.
         22   -1    0    0    0    0 -0.00000000000E+00 -0.00000000000E+00 -0.11279696041E+04  0.11279696041E+04  0.00000000000E+00 0.  1.
        -24    2    1    2    0    0 -0.11834215386E+02 -0.35944662677E+02 -0.87695670443E+03  0.88119526119E+03  0.77588397766E+02 0.  0.
         25    2    1    2    0    0  0.88882922684E+02  0.16378064644E+02 -0.19541655018E+03  0.24900444653E+03  0.12508865399E+03 0.  0.
         24    2    1    2    0    0 -0.77048707297E+02  0.19566598033E+02  0.94486880970E+02  0.14785312693E+03  0.81322945189E+02 0.  0.
        -11    1    5    5    0    0  0.38145695058E+01  0.31691061793E+01 -0.12091639481E+02  0.13069120851E+02  0.00000000000E+00 0.  1.
         12    1    5    5    0    0 -0.80863276803E+02  0.16397491854E+02  0.10657852045E+03  0.13478400608E+03  0.00000000000E+00 0. -1.
         13    1    3    3    0    0 -0.11625593443E+02 -0.25718058960E+02 -0.93385313469E+02  0.97557110203E+02  0.00000000000E+00 0. -1.
        -14    1    3    3    0    0 -0.20862194333E+00 -0.10226603716E+02 -0.78357139096E+03  0.78363815098E+03  0.00000000000E+00 0.  1.
          5    1    4    4  501    0  0.38506059084E+02  0.59325697459E+02 -0.43246667917E+02  0.83006033824E+02  0.41800000000E+01 0.  1.
         -5    1    4    4    0  501  0.50376863600E+02 -0.42947632815E+02 -0.15216988227E+03  0.16599841270E+03  0.41800000000E+01 0.  1.
</event>
<event>
11    1  0.1003949E-008  0.1925526E+03  0.7561462E-02  0.1059919E+00
         22   -1    0    0    0    0  0.00000000000E+00  0.00000000000E+00  0.51838823410E+03  0.51838823410E+03  0.00000000000E+00 0. -1.
         22   -1    0    0    0    0 -0.00000000000E+00 -0.00000000000E+00 -0.16026585021E+04  0.16026585021E+04  0.00000000000E+00 0.  1.
        -24    2    1    2    0    0  0.11891844295E+02 -0.58588735209E+02 -0.11587998844E+04  0.11629558912E+04  0.77943420020E+02 0.  0.
         25    2    1    2    0    0 -0.13829202552E+03 -0.16469993864E+02 -0.40716300357E+03  0.44813488324E+03  0.12508883674E+03 0.  0.
         24    2    1    2    0    0  0.12640018122E+03  0.75058729073E+02  0.48169262000E+03  0.50995596183E+03  0.80102960162E+02 0.  0.
        -11    1    5    5    0    0  0.87601897207E+02  0.81245140032E+02  0.27924346104E+03  0.30372977415E+03  0.00000000000E+00 0.  1.
         12    1    5    5    0    0  0.38798284016E+02 -0.61864109588E+01  0.20244915896E+03  0.20622618768E+03  0.00000000000E+00 0. -1.
         11    1    3    3    0    0  0.32498267578E+02  0.17315220792E+01 -0.28989079578E+03  0.29171185961E+03  0.00000000000E+00 0. -1.
        -12    1    3    3    0    0 -0.20606423283E+02 -0.60320257289E+02 -0.86890908867E+03  0.87124403154E+03  0.00000000000E+00 0.  1.
          5    1    4    4  501    0 -0.15681512727E+03  0.10880988857E+01 -0.37739660244E+03  0.40870262543E+03  0.41800000000E+01 0. -1.
         -5    1    4    4    0  501  0.18523101752E+02 -0.17558092749E+02 -0.29766401136E+02  0.39432257811E+02  0.41800000000E+01 0. -1.
</event>
<event>
11    1  0.1003949E-008  0.1777772E+03  0.7561462E-02  0.1071455E+00
         22   -1    0    0    0    0  0.00000000000E+00  0.00000000000E+00  0.21594983757E+03  0.21594983757E+03  0.00000000000E+00 0.  1.
         22   -1    0    0    0    0 -0.00000000000E+00 -0.00000000000E+00 -0.29746433272E+04  0.29746433272E+04  0.00000000000E+00 0. -1.
         24    2    1    2    0    0  0.25331291524E+01  0.32626302162E+02 -0.23299742562E+04  0.23316116812E+04  0.81006820135E+02 0.  0.
         25    2    1    2    0    0 -0.99394650239E+02 -0.11216295535E+03 -0.60035953614E+03  0.63129917253E+03  0.12508895856E+03 0.  0.
        -24    2    1    2    0    0  0.96861521086E+02  0.79536653185E+02  0.17164030267E+03  0.22768231111E+03  0.81673789075E+02 0.  0.
        -13    1    3    3    0    0 -0.37228174375E+02  0.28858091303E+02 -0.13601609818E+04  0.13609763491E+04  0.00000000000E+00 0.  1.
         14    1    3    3    0    0  0.39761303527E+02  0.37682108591E+01 -0.96981327436E+03  0.97063533204E+03  0.00000000000E+00 0. -1.
         11    1    5    5    0    0  0.42205099515E+02 -0.49565042983E+01  0.23396304332E+02  0.48510044489E+02  0.00000000000E+00 0. -1.
        -12    1    5    5    0    0  0.54656421571E+02  0.84493157483E+02  0.14824399834E+03  0.17917226662E+03  0.00000000000E+00 0.  1.
          5    1    4    4  501    0 -0.51327204118E+02 -0.10013672915E+03 -0.54656361700E+03  0.55804220830E+03  0.41800000000E+01 0. -1.
         -5    1    4    4    0  501 -0.48067446121E+02 -0.12026226194E+02 -0.53795919141E+02  0.73256964237E+02  0.41800000000E+01 0. -1.
</event>
<event>
11    1  0.1003949E-008  0.1289934E+03  0.7561462E-02  0.1120512E+00
         22   -1    0    0    0    0  0.00000000000E+00  0.00000000000E+00  0.48012311667E+03  0.48012311667E+03  0.00000000000E+00 0.  1.
         22   -1    0    0    0    0 -0.00000000000E+00 -0.00000000000E+00 -0.18573991393E+03  0.18573991393E+03  0.00000000000E+00 0.  1.
        -24    2    1    2    0    0 -0.11595199333E+02  0.28439544649E+02 -0.13348528040E+03  0.15953063452E+03  0.81782925599E+02 0.  0.
         25    2    1    2    0    0  0.36487239278E+02 -0.26929887671E+02  0.96721736889E+02  0.16449321858E+03  0.12508551911E+03 0.  0.
         24    2    1    2    0    0 -0.24892039945E+02 -0.15096569781E+01  0.33114674626E+03  0.34183917751E+03  0.81079979075E+02 0.  0.
        -13    1    5    5    0    0 -0.11747856908E+02 -0.13280099002E+02  0.32099252871E+03  0.32148184499E+03  0.00000000000E+00 0.  1.
         14    1    5    5    0    0 -0.13144183037E+02  0.11770442024E+02  0.10154217542E+02  0.20357332513E+02  0.00000000000E+00 0. -1.
         11    1    3    3    0    0  0.96282703890E+01 -0.90942246118E+01  0.52518152653E+01  0.14247458565E+02  0.00000000000E+00 0. -1.
        -12    1    3    3    0    0 -0.21223469722E+02  0.37533769261E+02 -0.13873709567E+03  0.14528317596E+03  0.00000000000E+00 0.  1.
          5    1    4    4  501    0 -0.19187368710E+02 -0.43816237843E+02 -0.39146538964E+01  0.48174835048E+02  0.41800000000E+01 0.  1.
         -5    1    4    4    0  501  0.55674607987E+02  0.16886350172E+02  0.10063639078E+03  0.11631838353E+03  0.41800000000E+01 0.  1.
</event>
<event>
11    1  0.1003949E-008  0.1487008E+03  0.7561462E-02  0.1098214E+00
         22   -1    0    0    0    0  0.00000000000E+00  0.00000000000E+00  0.83289616540E+03  0.83289616540E+03  0.00000000000E+00 0.  1.
         22   -1    0    0    0    0 -0.00000000000E+00 -0.00000000000E+00 -0.47998343160E+03  0.47998343160E+03  0.00000000000E+00 0.  1.
        -24    2    1    2    0    0 -0.23569698045E+02  0.23322076726E+01 -0.41897881492E+03  0.42752623639E+03  0.81697402614E+02 0.  0.
         25    2    1    2    0    0  0.82374138785E+02 -0.54850933279E+02  0.69911009140E+02  0.17415080437E+03  0.12508728888E+03 0.  0.
         24    2    1    2    0    0 -0.58804440740E+02  0.52518725607E+02  0.70198053959E+03  0.71120255624E+03  0.82560397650E+02 0.  0.
        -13    1    5    5    0    0 -0.20062420348E+02  0.69097761127E+02  0.45442064293E+03  0.46008164713E+03  0.00000000000E+00 0.  1.
         14    1    5    5    0    0 -0.38742020392E+02 -0.16579035521E+02  0.24755989666E+03  0.25112090912E+03  0.00000000000E+00 0. -1.
         11    1    3    3    0    0  0.17277654754E+02 -0.59699837946E+01 -0.23094452051E+02  0.29453552856E+02  0.00000000000E+00 0. -1.
        -12    1    3    3    0    0 -0.40847352800E+02  0.83021914672E+01 -0.39588436287E+03  0.39807268354E+03  0.00000000000E+00 0.  1.
          5    1    4    4  501    0 -0.12441107592E+02 -0.10729419108E+02 -0.26758186779E+02  0.31676088019E+02  0.41800000000E+01 0.  1.
         -5    1    4    4    0  501  0.94815246377E+02 -0.44121514171E+02  0.96669195919E+02  0.14247471635E+03  0.41800000000E+01 0.  1.
</event>
<event>
11    1  0.1003949E-008  0.1354976E+03  0.7561462E-02  0.1112693E+00
         22   -1    0    0    0    0  0.00000000000E+00  0.00000000000E+00  0.27611888808E+03  0.27611888808E+03  0.00000000000E+00 0.  1.
         22   -1    0    0    0    0 -0.00000000000E+00 -0.00000000000E+00 -0.89624328240E+03  0.89624328240E+03  0.00000000000E+00 0.  1.
        -24    2    1    2    0    0 -0.10743205889E+03  0.25298308978E+02 -0.68376298309E+03  0.69723682243E+03  0.80160575054E+02 0.  0.
         25    2    1    2    0    0  0.13328665912E+00 -0.47035202876E+02 -0.16317221278E+03  0.21089801935E+03  0.12506188655E+03 0.  0.
         24    2    1    2    0    0  0.10729877224E+03  0.21736893898E+02  0.22681080155E+03  0.26422732869E+03  0.79921351653E+02 0.  0.
        -11    1    5    5    0    0  0.95116995624E+02 -0.40422343204E+00  0.11328063887E+03  0.14791859044E+03  0.00000000000E+00 0.  1.
         12    1    5    5    0    0  0.12181776612E+02  0.22141117330E+02  0.11353016267E+03  0.11630873826E+03  0.00000000000E+00 0. -1.
         11    1    3    3    0    0 -0.90376118920E+02  0.48775661781E+02 -0.44390639281E+03  0.45563120353E+03  0.00000000000E+00 0. -1.
        -12    1    3    3    0    0 -0.17055939974E+02 -0.23477352803E+02 -0.23985659028E+03  0.24160561890E+03  0.00000000000E+00 0.  1.
          5    1    4    4  501    0 -0.54496121906E+02  0.54944105875E+01 -0.47913828875E+02  0.72891859957E+02  0.41800000000E+01 0. -1.
         -5    1    4    4    0  501  0.54629408565E+02 -0.52529613463E+02 -0.11525838390E+03  0.13800615939E+03  0.41800000000E+01 0. -1.
</event>
<event>
11    1  0.1003949E-008  0.1881245E+03  0.7561462E-02  0.1063254E+00
         22   -1    0    0    0    0  0.00000000000E+00  0.00000000000E+00  0.19271406609E+03  0.19271406609E+03  0.00000000000E+00 0. -1.
         22   -1    0    0    0    0 -0.00000000000E+00 -0.00000000000E+00 -0.60827716894E+03  0.60827716894E+03  0.00000000000E+00 0. -1.
         24    2    1    2    0    0  0.46514277330E+02  0.12308148789E+03 -0.40139404230E+03  0.43011843412E+03  0.81068239897E+02 0.  0.
         25    2    1    2    0    0 -0.14839414067E+02 -0.20302466906E+03 -0.67186981306E+02  0.24819591967E+03  0.12509156498E+03 0.  0.
        -24    2    1    2    0    0 -0.31674863263E+02  0.79943181174E+02  0.53017920763E+02  0.12267688124E+03  0.69602500597E+02 0.  0.
        -11    1    3    3    0    0  0.11413824519E+02 -0.10814011509E+02 -0.51222927759E+02  0.53581774544E+02  0.00000000000E+00 0.  1.
         12    1    3    3    0    0  0.35100452811E+02  0.13389549939E+03 -0.35017111454E+03  0.37653665957E+03  0.00000000000E+00 0. -1.
         13    1    5    5    0    0  0.13638794501E+02  0.18723104092E+02 -0.85985655767E+01  0.24708433222E+02  0.00000000000E+00 0. -1.
        -14    1    5    5    0    0 -0.45313657764E+02  0.61220077082E+02  0.61616486340E+02  0.97968448016E+02  0.00000000000E+00 0.  1.
          5    1    4    4  501    0 -0.58978027942E+02 -0.43644216663E+02 -0.19761427245E+02  0.76100012055E+02  0.41800000000E+01 0.  1.
         -5    1    4    4    0  501  0.44138613875E+02 -0.15938045240E+03 -0.47425554061E+02  0.17209590762E+03  0.41800000000E+01 0.  1.
</event>
<event>
11    1  0.1003949E-008  0.1515933E+03  0.7561462E-02  0.1095262E+00
         22   -1    0    0    0    0  0.00000000000E+00  0.00000000000E+00  0.37900798533E+03  0.37900798533E+03  0.00000000000E+00 0.  1.
         22   -1    0    0    0    0 -0.00000000000E+00 -0.00000000000E+00 -0.13854080292E+03  0.13854080292E+03  0.00000000000E+00 0. -1.
        -24    2    1    2    0    0 -0.54980145584E+02  0.30507837795E+02 -0.45873900671E+02  0.11244829791E+03  0.81158242741E+02 0.  0.
         25    2    1    2    0    0 -0.50148536006E+02 -0.16504977416E+02  0.82203018722E+02  0.15872135870E+03  0.12509134054E+03 0.  0.
         24    2    1    2    0    0  0.10512868159E+03 -0.14002860379E+02  0.20413806437E+03  0.24637913164E+03  0.88216820339E+02 0.  0.
        -11    1    5    5    0    0  0.64176241572E+02  0.30280203118E+02  0.14730081084E+03  0.16350232279E+03  0.00000000000E+00 0.  1.
         12    1    5    5    0    0  0.40952440019E+02 -0.44283063497E+02  0.56837253524E+02  0.82876808845E+02  0.00000000000E+00 0. -1.
         13    1    3    3    0    0  0.91212772018E+01  0.26863080254E+00 -0.40337102363E+02  0.41356398384E+02  0.00000000000E+00 0. -1.
        -14    1    3    3    0    0 -0.64101422786E+02  0.30239206992E+02 -0.55367983081E+01  0.71091899526E+02  0.00000000000E+00 0.  1.
          5    1    4    4  501    0  0.40532135425E+02  0.79627966726E+01  0.29601234745E+02  0.50989858123E+02  0.41800000000E+01 0. -1.
         -5    1    4    4    0  501 -0.90680671431E+02 -0.24467774088E+02  0.52601783977E+02  0.10773150058E+03  0.41800000000E+01 0. -1.
</event>
<event>
11    1  0.1003949E-008  0.1507994E+03  0.7561462E-02  0.1096065E+00
         22   -1    0    0    0    0  0.00000000000E+00  0.00000000000E+00  0.22908184796E+04  0.22908184796E+04  0.00000000000E+00 0.  1.
         22   -1    0    0    0    0 -0.00000000000E+00 -0.00000000000E+00 -0.27736392610E+03  0.27736392610E+03  0.00000000000E+00 0.  1.
         24    2    1    2    0    0 -0.67436127781E+02  0.56965314103E+02 -0.21979293053E+03  0.24762301722E+03  0.72218751063E+02 0.  0.
         25    2    1    2    0    0  0.65030542533E+02  0.64228222543E+00  0.74266786633E+02  0.15933688667E+03  0.12507319404E+03 0.  0.
        -24    2    1    2    0    0  0.24055852483E+01 -0.57607596329E+02  0.21589806974E+04  0.21612225018E+04  0.79753549316E+02 0.  0.
        -11    1    3    3    0    0 -0.67413626786E+02  0.70741182250E+02 -0.20662108985E+03  0.22856331007E+03  0.00000000000E+00 0.  1.
         12    1    3    3    0    0 -0.22500995113E-01 -0.13775868147E+02 -0.13171840683E+02  0.19059707146E+02  0.00000000000E+00 0. -1.
         13    1    5    5    0    0 -0.90304903497E+01 -0.25777305271E+02  0.19018334546E+03  0.19213465100E+03  0.00000000000E+00 0. -1.
        -14    1    5    5    0    0  0.11436075598E+02 -0.31830291058E+02  0.19687973519E+04  0.19690878508E+04  0.00000000000E+00 0.  1.
          5    1    4    4  501    0 -0.14635746062E+02  0.42134732478E+02  0.35504884711E+01  0.44940172587E+02  0.41800000000E+01 0.  1.
         -5    1    4    4    0  501  0.79666288595E+02 -0.41492450253E+02  0.70716298162E+02  0.11439671408E+03  0.41800000000E+01 0.  1.
</event>
<event>
11    1  0.1003949E-008  0.2080637E+03  0.7561462E-02  0.1048963E+00
         22   -1    0    0    0    0  0.00000000000E+00  0.00000000000E+00  0.86603835708E+03  0.86603835708E+03  0.00000000000E+00 0.  1.
         22   -1    0    0    0    0 -0.00000000000E+00 -0.00000000000E+00 -0.72776325929E+03  0.72776325929E+03  0.00000000000E+00 0. -1.
         24    2    1    2    0    0 -0.27689032657E+02  0.12202455857E+02 -0.52397646597E+03  0.53078743632E+03  0.79173121718E+02 0.  0.
         25    2    1    2    0    0  0.12470129985E+03 -0.14551446863E+03 -0.12076697749E+03  0.25876039643E+03  0.12508958846E+03 0.  0.
        -24    2    1    2    0    0 -0.97012267196E+02  0.13331201277E+03  0.78301854125E+03  0.80425378363E+03  0.80762861574E+02 0.  0.
        -11    1    3    3    0    0 -0.27754205667E+02  0.41990194019E+02 -0.23802597618E+03  0.24328961684E+03  0.00000000000E+00 0.  1.
         12    1    3    3    0    0  0.65173009680E-01 -0.29787738162E+02 -0.28595048979E+03  0.28749781947E+03  0.00000000000E+00 0. -1.
         13    1    5    5    0    0 -0.35870890322E+02  0.55669568470E+02  0.15570732327E+03  0.16920576865E+03  0.00000000000E+00 0. -1.
        -14    1    5    5    0    0 -0.61141376874E+02  0.77642444303E+02  0.62731121798E+03  0.63504801498E+03  0.00000000000E+00 0.  1.
          5    1    4    4  501    0  0.73823384731E+01 -0.95236719508E+02 -0.24131333329E+02  0.98611993755E+02  0.41800000000E+01 0.  1.
         -5    1    4    4    0  501  0.11731896138E+03 -0.50277749122E+02 -0.96635644161E+02  0.16014840267E+03  0.41800000000E+01 0.  1.
</event>
<event>
11    1  0.1003949E-008  0.1317822E+03  0.7561462E-02  0.1117098E+00
         22   -1    0    0    0    0  0.00000000000E+00  0.00000000000E+00  0.98831332068E+03  0.98831332068E+03  0.00000000000E+00 0. -1.
         22   -1    0    0    0    0 -0.00000000000E+00 -0.00000000000E+00 -0.48562247819E+03  0.48562247819E+03  0.00000000000E+00 0. -1.
        -24    2    1    2    0    0 -0.39459290121E+02  0.15471854950E+02 -0.45318538937E+03  0.46179858477E+03  0.78003345356E+02 0.  0.
         25    2    1    2    0    0 -0.58046634939E+01 -0.12778921351E+02  0.13049451692E+03  0.18130988522E+03  0.12508981006E+03 0.  0.
         24    2    1    2    0    0  0.45263953615E+02 -0.26929335985E+01  0.82538171494E+03  0.83082732888E+03  0.83444578453E+02 0.  0.
        -13    1    5    5    0    0  0.66269578453E+02  0.14100739296E+02  0.55878615520E+03  0.56287872150E+03  0.00000000000E+00 0.  1.
         14    1    5    5    0    0 -0.21005624838E+02 -0.16793672894E+02  0.26659555974E+03  0.26794860738E+03  0.00000000000E+00 0. -1.
         13    1    3    3    0    0 -0.46277280150E+02  0.15210344053E+02 -0.45230316917E+03  0.45491878183E+03  0.00000000000E+00 0. -1.
        -14    1    3    3    0    0  0.68179900283E+01  0.26151089718E+00 -0.88222019921E+00  0.68798029373E+01  0.00000000000E+00 0.  1.
          5    1    4    4  501    0  0.50624479058E+01 -0.68145878509E+02  0.81746700512E+02  0.10662778522E+03  0.41800000000E+01 0.  1.
         -5    1    4    4    0  501 -0.10867111400E+02  0.55366957158E+02  0.48747816412E+02  0.74682099997E+02  0.41800000000E+01 0.  1.
</event>
<event>
11    1  0.1003949E-008  0.1341951E+03  0.7561462E-02  0.1114219E+00
         22   -1    0    0    0    0  0.00000000000E+00  0.00000000000E+00  0.10096790838E+04  0.10096790838E+04  0.00000000000E+00 0.  1.
         22   -1    0    0    0    0 -0.00000000000E+00 -0.00000000000E+00 -0.24926890204E+04  0.24926890204E+04  0.00000000000E+00 0. -1.
        -24    2    1    2    0    0  0.19951097148E+02  0.49173565936E+02 -0.24169407966E+04  0.24194541796E+04  0.96641745266E+02 0.  0.
         25    2    1    2    0    0 -0.58415537912E+02 -0.75458693133E+02  0.15832430419E+02  0.15812765293E+03  0.12508916551E+03 0.  0.
         24    2    1    2    0    0  0.38464440764E+02  0.26285127196E+02  0.91809842958E+03  0.92478627165E+03  0.10076954263E+03 0.  0.
        -13    1    5    5    0    0  0.70275469738E+02  0.14734468864E+02  0.74193679241E+03  0.74540321314E+03  0.00000000000E+00 0.  1.
         14    1    5    5    0    0 -0.31811028974E+02  0.11550658332E+02  0.17616163717E+03  0.17938305852E+03  0.00000000000E+00 0. -1.
         11    1    3    3    0    0  0.16746647944E+02  0.56773325934E+02 -0.23987584379E+04  0.23994886339E+04  0.00000000000E+00 0. -1.
        -12    1    3    3    0    0  0.32044492042E+01 -0.75997599978E+01 -0.18182358700E+02  0.19965545688E+02  0.00000000000E+00 0.  1.
          5    1    4    4  501    0 -0.14435025341E+02 -0.53933438330E+01 -0.49894973461E+02  0.52387392481E+02  0.41800000000E+01 0.  1.
         -5    1    4    4    0  501 -0.43980512571E+02 -0.70065349300E+02  0.65727403879E+02  0.10574026045E+03  0.41800000000E+01 0.  1.
</event>
<event>
11    1  0.1003949E-008  0.2276812E+03  0.7561462E-02  0.1036510E+00
         22   -1    0    0    0    0  0.00000000000E+00  0.00000000000E+00  0.19058417758E+03  0.19058417758E+03  0.00000000000E+00 0.  1.
         22   -1    0    0    0    0 -0.00000000000E+00 -0.00000000000E+00 -0.77080571406E+03  0.77080571406E+03  0.00000000000E+00 0. -1.
         24    2    1    2    0    0  0.20015902557E+03 -0.99296581603E+02 -0.48554486272E+03  0.54077924978E+03  0.82249234879E+02 0.  0.
         25    2    1    2    0    0 -0.14709141335E+03 -0.66162450690E+02 -0.10394020714E+03  0.22906229625E+03  0.12511041180E+03 0.  0.
        -24    2    1    2    0    0 -0.53067612218E+02  0.16545903229E+03  0.92635333787E+01  0.19154834560E+03  0.80075544447E+02 0.  0.
        -11    1    3    3    0    0  0.34549598308E+02  0.60209722236E+01 -0.35991574362E+02  0.50252564858E+02  0.00000000000E+00 0.  1.
         12    1    3    3    0    0  0.16560942726E+03 -0.10531755383E+03 -0.44955328836E+03  0.49052668492E+03  0.00000000000E+00 0. -1.
         13    1    5    5    0    0 -0.30075020401E+02  0.11018870350E+03 -0.32268189505E+02  0.11868990389E+03  0.00000000000E+00 0. -1.
        -14    1    5    5    0    0 -0.22992591817E+02  0.55270328792E+02  0.41531722883E+02  0.72858441713E+02  0.00000000000E+00 0.  1.
          5    1    4    4  501    0 -0.25683355665E+02 -0.98635914917E+01  0.29133512541E+02  0.40288449316E+02  0.41800000000E+01 0.  1.
         -5    1    4    4    0  501 -0.12140805769E+03 -0.56298859198E+02 -0.13307371968E+03  0.18877384694E+03  0.41800000000E+01 0.  1.
</event>
<event>
11    1  0.1003949E-008  0.1442597E+03  0.7561462E-02  0.1102893E+00
         22   -1    0    0    0    0  0.00000000000E+00  0.00000000000E+00  0.70427147716E+03  0.70427147716E+03  0.00000000000E+00 0. -1.
         22   -1    0    0    0    0 -0.00000000000E+00 -0.00000000000E+00 -0.15139317106E+03  0.15139317106E+03  0.00000000000E+00 0.  1.
        -24    2    1    2    0    0 -0.22442027160E+02  0.10372474213E+01 -0.99829311725E+02  0.13020268900E+03  0.80511665484E+02 0.  0.
         25    2    1    2    0    0  0.48779819587E+02 -0.66287079660E+02  0.15085801223E+03  0.21255427629E+03  0.12509089809E+03 0.  0.
         24    2    1    2    0    0 -0.26337792427E+02  0.65249832238E+02  0.50184960559E+03  0.51290768294E+03  0.79183613602E+02 0.  0.
        -13    1    5    5    0    0  0.19576972734E+02  0.28236588605E+02  0.81581914818E+02  0.88522153289E+02  0.00000000000E+00 0.  1.
         14    1    5    5    0    0 -0.45914765162E+02  0.37013243634E+02  0.42026769078E+03  0.42438552965E+03  0.00000000000E+00 0. -1.
         11    1    3    3    0    0  0.15238324056E+02 -0.17843118382E+02 -0.80473507577E+02  0.83824631317E+02  0.00000000000E+00 0. -1.
        -12    1    3    3    0    0 -0.37680351215E+02  0.18880365804E+02 -0.19355804148E+02  0.46378057687E+02  0.00000000000E+00 0.  1.
          5    1    4    4  501    0  0.21255102289E+02 -0.90937523912E+02  0.52083149788E+02  0.10701186626E+03  0.41800000000E+01 0.  1.
         -5    1    4    4    0  501  0.27524717298E+02  0.24650444252E+02  0.98774862439E+02  0.10554241003E+03  0.41800000000E+01 0.  1.
</event>
<event>
11    1  0.1003949E-008  0.1688955E+03  0.7561462E-02  0.1078997E+00
         22   -1    0    0    0    0  0.00000000000E+00  0.00000000000E+00  0.10841886326E+03  0.10841886326E+03  0.00000000000E+00 0.  1.
         22   -1    0    0    0    0 -0.00000000000E+00 -0.00000000000E+00 -0.10232062112E+04  0.10232062112E+04  0.00000000000E+00 0. -1.
        -24    2    1    2    0    0  0.56208819494E+02  0.60695615045E+02 -0.39916368406E+03  0.41537522575E+03  0.79759277951E+02 0.  0.
         25    2    1    2    0    0  0.49376995263E+02 -0.10781921713E+03 -0.54822936324E+03  0.57468736389E+03  0.12508820987E+03 0.  0.
         24    2    1    2    0    0 -0.10558581476E+03  0.47123602089E+02  0.32605699343E+02  0.14156248483E+03  0.74885294491E+02 0.  0.
        -13    1    5    5    0    0 -0.34361513010E+02 -0.88326864741E+01  0.36501527645E+02  0.50902764631E+02  0.00000000000E+00 0.  1.
         14    1    5    5    0    0 -0.71224301747E+02  0.55956288564E+02 -0.38958283017E+01  0.90659720203E+02  0.00000000000E+00 0. -1.
         13    1    3    3    0    0  0.55334003936E+02  0.18844229816E+01 -0.21697035258E+03  0.22392306031E+03  0.00000000000E+00 0. -1.
        -14    1    3    3    0    0  0.87481555817E+00  0.58811192063E+02 -0.18219333147E+03  0.19145216543E+03  0.00000000000E+00 0.  1.
          5    1    4    4  501    0 -0.26013076761E+02 -0.41255988772E+02 -0.33887395195E+03  0.34239124475E+03  0.41800000000E+01 0. -1.
         -5    1    4    4    0  501  0.75390072024E+02 -0.66563228362E+02 -0.20935541129E+03  0.23229611914E+03  0.41800000000E+01 0. -1.
</event>
<event>
11    1  0.1003949E-008  0.1352839E+03  0.7561462E-02  0.1112942E+00
         22   -1    0    0    0    0  0.00000000000E+00  0.00000000000E+00  0.69511954415E+03  0.69511954415E+03  0.00000000000E+00 0. -1.
         22   -1    0    0    0    0 -0.00000000000E+00 -0.00000000000E+00 -0.41300149291E+03  0.41300149291E+03  0.00000000000E+00 0. -1.
         24    2    1    2    0    0  0.23180945285E+01 -0.27406997038E+02 -0.17416767929E+03  0.19456097756E+03  0.82237925752E+02 0.  0.
         25    2    1    2    0    0 -0.47504656741E+02  0.22414030317E+01 -0.20453020164E+03  0.24442168594E+03  0.12509053071E+03 0.  0.
        -24    2    1    2    0    0  0.45186562213E+02  0.25165594006E+02  0.66081593218E+03  0.66913837356E+03  0.91615141870E+02 0.  0.
        -11    1    3    3    0    0  0.61140766013E+01 -0.11447054796E+02  0.55367372098E+01  0.14109303850E+02  0.00000000000E+00 0.  1.
         12    1    3    3    0    0 -0.37959820728E+01 -0.15959942242E+02 -0.17970441650E+03  0.18045167371E+03  0.00000000000E+00 0. -1.
         11    1    5    5    0    0  0.26784536821E+02  0.60057301079E+02  0.41210480541E+03  0.41731841736E+03  0.00000000000E+00 0. -1.
        -12    1    5    5    0    0  0.18402025392E+02 -0.34891707073E+02  0.24871112677E+03  0.25181995620E+03  0.00000000000E+00 0.  1.
          5    1    4    4  501    0 -0.30138481589E+02  0.54017098104E+02 -0.47463979980E+02  0.78079938240E+02  0.41800000000E+01 0. -1.
         -5    1    4    4    0  501 -0.17366175153E+02 -0.51775695072E+02 -0.15706622166E+03  0.16634174770E+03  0.41800000000E+01 0. -1.
</event>
<event>
11    1  0.1003949E-008  0.1435538E+03  0.7561462E-02  0.1103654E+00
         22   -1    0    0    0    0  0.00000000000E+00  0.00000000000E+00  0.10441803794E+04  0.10441803794E+04  0.00000000000E+00 0.  1.
         22   -1    0    0    0    0 -0.00000000000E+00 -0.00000000000E+00 -0.24744482837E+03  0.24744482837E+03  0.00000000000E+00 0. -1.
        -24    2    1    2    0    0 -0.67064131445E+02 -0.22117992215E+02 -0.22236269289E+03  0.24670439753E+03  0.80194072510E+02 0.  0.
         25    2    1    2    0    0  0.51763783933E+02  0.41592124227E+02  0.52527275960E+03  0.54402936603E+03  0.12508830878E+03 0.  0.
         24    2    1    2    0    0  0.15300347512E+02 -0.19474132013E+02  0.49382548431E+03  0.50089144420E+03  0.80095489642E+02 0.  0.
        -13    1    5    5    0    0 -0.17420976448E+02 -0.17063639476E+02  0.41217076443E+03  0.41289150786E+03  0.00000000000E+00 0.  1.
         14    1    5    5    0    0  0.32721323960E+02 -0.24104925369E+01  0.81654719879E+02  0.87999936333E+02  0.00000000000E+00 0. -1.
         11    1    3    3    0    0 -0.17282229320E+01 -0.13359033418E+02 -0.14256490588E+03  0.14319987052E+03  0.00000000000E+00 0. -1.
        -12    1    3    3    0    0 -0.65335908513E+02 -0.87589587964E+01 -0.79797787018E+02  0.10350452702E+03  0.00000000000E+00 0.  1.
          5    1    4    4  501    0 -0.14560314903E+02 -0.69748203923E+01  0.34993963668E+03  0.35033679882E+03  0.41800000000E+01 0. -1.
         -5    1    4    4    0  501  0.66324098835E+02  0.48566944620E+02  0.17533312293E+03  0.19369256721E+03  0.41800000000E+01 0. -1.
</event>
<event>
11    1  0.1003949E-008  0.1638147E+03  0.7561462E-02  0.1083543E+00
         22   -1    0    0    0    0  0.00000000000E+00  0.00000000000E+00  0.11474049469E+04  0.11474049469E+04  0.00000000000E+00 0.  1.
         22   -1    0    0    0    0 -0.00000000000E+00 -0.00000000000E+00 -0.11969987601E+04  0.11969987601E+04  0.00000000000E+00 0. -1.
         24    2    1    2    0    0 -0.83658906484E+02  0.54025698538E+02 -0.92258537765E+03  0.93141007823E+03  0.80270580188E+02 0.  0.
         25    2    1    2    0    0  0.13682957995E+03 -0.82470217105E+02 -0.22907736652E+03  0.30601909255E+03  0.12509026538E+03 0.  0.
        -24    2    1    2    0    0 -0.53170673462E+02  0.28444518568E+02  0.11020689310E+04  0.11069745362E+04  0.84855665956E+02 0.  0.
        -11    1    3    3    0    0 -0.30724314785E+02  0.95526516442E+01 -0.83552567483E+02  0.89533614947E+02  0.00000000000E+00 0.  1.
         12    1    3    3    0    0 -0.52934591699E+02  0.44473046894E+02 -0.83903281017E+03  0.84187646328E+03  0.00000000000E+00 0. -1.
         13    1    5    5    0    0 -0.44594537239E+02 -0.23412153215E+02  0.45675755115E+03  0.45952612788E+03  0.00000000000E+00 0. -1.
        -14    1    5    5    0    0 -0.85761362232E+01  0.51856671783E+02  0.64531137983E+03  0.64744840834E+03  0.00000000000E+00 0.  1.
          5    1    4    4  501    0  0.51793310320E+02 -0.88043670058E+02 -0.18154439871E+03  0.20835084817E+03  0.41800000000E+01 0. -1.
         -5    1    4    4    0  501  0.85036269626E+02  0.55734529526E+01 -0.47532967809E+02  0.97668244371E+02  0.41800000000E+01 0. -1.
</event>
<event>
11    1  0.2250370E-008  0.1843193E+03  0.7561462E-02  0.1066202E+00
         22   -1    0    0    0    0  0.00000000000E+00  0.00000000000E+00  0.18111055433E+04  0.18111055433E+04  0.00000000000E+00 0.  1.
         22   -1    0    0    0    0 -0.00000000000E+00 -0.00000000000E+00 -0.13742137841E+04  0.13742137841E+04  0.00000000000E+00 0. -1.
        -24    2    1    2    0    0  0.48963903883E+02 -0.31181740654E+02 -0.11668700385E+04  0.11723790509E+04  0.97556072973E+02 0.  0.
         25    2    1    2    0    0  0.85902582194E+02  0.11587309379E+02 -0.17228238952E+03  0.22987400908E+03  0.12508924392E+03 0.  0.
         24    2    1    2    0    0 -0.13486648608E+03  0.19594431276E+02  0.17760441871E+04  0.17830662675E+04  0.80121463304E+02 0.  0.
        -13    1    5    5    0    0 -0.14104791367E+03  0.30330429482E+02  0.15561885962E+04  0.15628619247E+04  0.00000000000E+00 0.  1.
         14    1    5    5    0    0  0.61814275882E+01 -0.10735998206E+02  0.21985559096E+03  0.22020434279E+03  0.00000000000E+00 0. -1.
         13    1    3    3    0    0  0.78202899834E+01 -0.53865647916E+02 -0.88048249752E+03  0.88216330314E+03  0.00000000000E+00 0. -1.
        -14    1    3    3    0    0  0.41143613899E+02  0.22683907262E+02 -0.28638754095E+03  0.29021574772E+03  0.00000000000E+00 0.  1.
          5    1    4    4  501    0  0.54600563651E+02 -0.51524406232E+02 -0.12167461033E+03  0.14303205650E+03  0.41800000000E+01 0. -1.
         -5    1    4    4    0  501  0.31302018544E+02  0.63111715610E+02 -0.50607779190E+02  0.86841952573E+02  0.41800000000E+01 0. -1.
</event>
<event>
11    1  0.1003949E-008  0.1429199E+03  0.7561462E-02  0.1104341E+00
         22   -1    0    0    0    0  0.00000000000E+00  0.00000000000E+00  0.69763178172E+03  0.69763178172E+03  0.00000000000E+00 0. -1.
         22   -1    0    0    0    0 -0.00000000000E+00 -0.00000000000E+00 -0.11408157116E+04  0.11408157116E+04  0.00000000000E+00 0.  1.
         24    2    1    2    0    0  0.26287674133E+02  0.40212025870E+02 -0.10763155236E+04  0.10802549238E+04  0.78660950431E+02 0.  0.
         25    2    1    2    0    0  0.19414292583E+02  0.16314504374E+02  0.12512460110E+02  0.12824670472E+03  0.12509027861E+03 0.  0.
        -24    2    1    2    0    0 -0.45701966716E+02 -0.56526530244E+02  0.62061913364E+03  0.62994586482E+03  0.79873432193E+02 0.  0.
        -11    1    3    3    0    0  0.50863764242E+01  0.19788349749E+02 -0.96177052609E+03  0.96198752323E+03  0.00000000000E+00 0.  1.
         12    1    3    3    0    0  0.21201297709E+02  0.20423676121E+02 -0.11454499751E+03  0.11826740052E+03  0.00000000000E+00 0. -1.
         11    1    5    5    0    0 -0.63097486507E+02 -0.20404711482E+02  0.33228169952E+03  0.33883443286E+03  0.00000000000E+00 0. -1.
        -12    1    5    5    0    0  0.17395519791E+02 -0.36121818762E+02  0.28833743412E+03  0.29111143195E+03  0.00000000000E+00 0.  1.
          5    1    4    4  501    0 -0.64917467559E+01  0.10940739414E+02  0.66577141048E+02  0.67910460645E+02  0.41800000000E+01 0. -1.
         -5    1    4    4    0  501  0.25906039339E+02  0.53737649596E+01 -0.54064680938E+02  0.60336244075E+02  0.41800000000E+01 0. -1.
</event>
<event>
11    1  0.1003949E-008  0.1344194E+03  0.7561462E-02  0.1113955E+00
         22   -1    0    0    0    0  0.00000000000E+00  0.00000000000E+00  0.40399545729E+03  0.40399545729E+03  0.00000000000E+00 0.  1.
         22   -1    0    0    0    0 -0.00000000000E+00 -0.00000000000E+00 -0.62022474602E+03  0.62022474602E+03  0.00000000000E+00 0.  1.
         24    2    1    2    0    0 -0.26127494111E+02 -0.15631613674E+02 -0.57718984153E+03  0.58344281197E+03  0.79563863495E+02 0.  0.
         25    2    1    2    0    0 -0.15861952948E+02 -0.20579838545E+02  0.97576020541E+02  0.16075867190E+03  0.12508852666E+03 0.  0.
        -24    2    1    2    0    0  0.41989447059E+02  0.36211452218E+02  0.26338453226E+03  0.28001871943E+03  0.77231395595E+02 0.  0.
        -13    1    3    3    0    0  0.14514670386E+02  0.24241238263E+02 -0.19249434622E+03  0.19455689814E+03  0.00000000000E+00 0.  1.
         14    1    3    3    0    0 -0.40642164497E+02 -0.39872851937E+02 -0.38469549531E+03  0.38888591382E+03  0.00000000000E+00 0. -1.
         11    1    5    5    0    0 -0.40819770132E+01  0.15214417560E+02  0.47183290266E+01  0.16443955328E+02  0.00000000000E+00 0. -1.
        -12    1    5    5    0    0  0.46071424073E+02  0.20997034659E+02  0.25866620323E+03  0.26357476411E+03  0.00000000000E+00 0.  1.
          5    1    4    4  501    0 -0.59228613164E+02 -0.39492872569E+02  0.86286001641E+02  0.11193954654E+03  0.41800000000E+01 0.  1.
         -5    1    4    4    0  501  0.43366660216E+02  0.18913034024E+02  0.11290018900E+02  0.48819125361E+02  0.41800000000E+01 0.  1.
</event>
<event>
11    1  0.1003949E-008  0.1350218E+03  0.7561462E-02  0.1113248E+00
         22   -1    0    0    0    0  0.00000000000E+00  0.00000000000E+00  0.25919939999E+03  0.25919939999E+03  0.00000000000E+00 0.  1.
         22   -1    0    0    0    0 -0.00000000000E+00 -0.00000000000E+00 -0.30286329182E+03  0.30286329182E+03  0.00000000000E+00 0. -1.
        -24    2    1    2    0    0 -0.19473509530E+02 -0.23519059158E+02 -0.19957746703E+03  0.21730138639E+03  0.80351499441E+02 0.  0.
         25    2    1    2    0    0 -0.31518749106E+02  0.35523956444E+02 -0.28851316862E+02  0.13687358803E+03  0.12508636052E+03 0.  0.
         24    2    1    2    0    0  0.50992258636E+02 -0.12004897286E+02  0.18476489206E+03  0.20788771739E+03  0.79592145981E+02 0.  0.
        -11    1    5    5    0    0  0.21535945574E+02  0.85066412305E+01  0.16557406021E+03  0.16718531428E+03  0.00000000000E+00 0.  1.
         12    1    5    5    0    0  0.29456313062E+02 -0.20511538517E+02  0.19190831855E+02  0.40702403109E+02  0.00000000000E+00 0. -1.
         11    1    3    3    0    0  0.26748283267E+02 -0.26859007112E+02 -0.11164523552E+03  0.11790477316E+03  0.00000000000E+00 0. -1.
        -12    1    3    3    0    0 -0.46221792797E+02  0.33399479540E+01 -0.87932231512E+02  0.99396613223E+02  0.00000000000E+00 0.  1.
          5    1    4    4  501    0 -0.23884041392E+02  0.33612094192E+02  0.45756095438E+02  0.61735832212E+02  0.41800000000E+01 0.  1.
         -5    1    4    4    0  501 -0.76347077143E+01  0.19118622520E+01 -0.74607412300E+02  0.75137755817E+02  0.41800000000E+01 0.  1.
</event>
<event>
11    1  0.1003949E-008  0.2341857E+04  0.7561462E-02  0.7939697E-01
         22   -1    0    0    0    0  0.00000000000E+00  0.00000000000E+00  0.52563337751E+03  0.52563337751E+03  0.00000000000E+00 0.  1.
         22   -1    0    0    0    0 -0.00000000000E+00 -0.00000000000E+00 -0.26084228532E+04  0.26084228532E+04  0.00000000000E+00 0.  1.
         24    2    1    2    0    0  0.67378231613E+03  0.43304236872E+03 -0.16625170084E+04  0.18471351928E+04  0.80232875470E+02 0.  0.
         25    2    1    2    0    0 -0.80390627360E+03 -0.56101325966E+03 -0.23291070078E+03  0.10153302431E+04  0.12508770425E+03 0.  0.
        -24    2    1    2    0    0  0.13012395747E+03  0.12797089094E+03 -0.18736176649E+03  0.27159079489E+03  0.73132312194E+02 0.  0.
        -13    1    3    3    0    0  0.36179726647E+01  0.10884727495E+02 -0.13149231404E+02  0.17449048839E+02  0.00000000000E+00 0.  1.
         14    1    3    3    0    0  0.67016434346E+03  0.42215764123E+03 -0.16493677770E+04  0.18296861439E+04  0.00000000000E+00 0. -1.
         13    1    5    5    0    0  0.20032608014E+02  0.44713509198E+02 -0.90679329272E+02  0.10306960777E+03  0.00000000000E+00 0. -1.
        -14    1    5    5    0    0  0.11009134945E+03  0.83257381745E+02 -0.96682437222E+02  0.16852118712E+03  0.00000000000E+00 0.  1.
          5    1    4    4  501    0 -0.28067408103E+03 -0.26963709239E+03 -0.99439825688E+02  0.40173107010E+03  0.41800000000E+01 0.  1.
         -5    1    4    4    0  501 -0.52323219257E+03 -0.29137616728E+03 -0.13347087509E+03  0.61359917299E+03  0.41800000000E+01 0.  1.
</event>
<event>
11    1  0.1003949E-008  0.1369437E+03  0.7561462E-02  0.1111020E+00
         22   -1    0    0    0    0  0.00000000000E+00  0.00000000000E+00  0.92672491025E+03  0.92672491025E+03  0.00000000000E+00 0.  1.
         22   -1    0    0    0    0 -0.00000000000E+00 -0.00000000000E+00 -0.11073490980E+03  0.11073490980E+03  0.00000000000E+00 0. -1.
         24    2    1    2    0    0 -0.60992458756E+02 -0.10718576265E+02 -0.54845698931E+02  0.11548808382E+03  0.80588329864E+02 0.  0.
         25    2    1    2    0    0 -0.15531166727E+01  0.25493297362E+02  0.16629216832E+03  0.20964860417E+03  0.12508849509E+03 0.  0.
        -24    2    1    2    0    0  0.62545575428E+02 -0.14774721097E+02  0.70454353106E+03  0.71232313206E+03  0.83020575325E+02 0.  0.
        -11    1    3    3    0    0 -0.14826543494E+02 -0.11075312640E+02  0.20189204499E+02  0.27387824308E+02  0.00000000000E+00 0.  1.
         12    1    3    3    0    0 -0.46165915262E+02  0.35673637514E+00 -0.75034903430E+02  0.88100259509E+02  0.00000000000E+00 0. -1.
         13    1    5    5    0    0  0.28170351617E+02 -0.29621584573E+02  0.12381139902E+03  0.13038508162E+03  0.00000000000E+00 0. -1.
        -14    1    5    5    0    0  0.34375223811E+02  0.14846863476E+02  0.58073213204E+03  0.58193805044E+03  0.00000000000E+00 0.  1.
          5    1    4    4  501    0 -0.14358969711E+02 -0.46973512498E+02  0.40271092124E+02  0.63654726049E+02  0.41800000000E+01 0. -1.
         -5    1    4    4    0  501  0.12805853039E+02  0.72466809859E+02  0.12602107620E+03  0.14599387812E+03  0.41800000000E+01 0. -1.
</event>
<event>
11    1  0.1003949E-008  0.2363940E+03  0.7561462E-02  0.1031408E+00
         22   -1    0    0    0    0  0.00000000000E+00  0.00000000000E+00  0.19531625143E+04  0.19531625143E+04  0.00000000000E+00 0. -1.
         22   -1    0    0    0    0 -0.00000000000E+00 -0.00000000000E+00 -0.15345759624E+04  0.15345759624E+04  0.00000000000E+00 0. -1.
        -24    2    1    2    0    0  0.17257654547E+03  0.96168428759E+02 -0.13894239869E+04  0.14057347260E+04  0.80994281725E+02 0.  0.
         25    2    1    2    0    0 -0.32142738289E+03 -0.31758109720E+01  0.94449165438E+02  0.35762237331E+03  0.12508984291E+03 0.  0.
         24    2    1    2    0    0  0.14885083741E+03 -0.92992617787E+02  0.17135613733E+04  0.17243813773E+04  0.79964714454E+02 0.  0.
        -13    1    5    5    0    0  0.73013543964E+02 -0.91442686669E+02  0.10406689405E+04  0.10472270940E+04  0.00000000000E+00 0.  1.
         14    1    5    5    0    0  0.75837293450E+02 -0.15499311184E+01  0.67289243282E+03  0.67715428339E+03  0.00000000000E+00 0. -1.
         11    1    3    3    0    0  0.15308886421E+03  0.52301316839E+02 -0.94752108471E+03  0.96123245578E+03  0.00000000000E+00 0. -1.
        -12    1    3    3    0    0  0.19487681265E+02  0.43867111920E+02 -0.44190290222E+03  0.44450227021E+03  0.00000000000E+00 0.  1.
          5    1    4    4  501    0 -0.19076764216E+03 -0.49462158525E+02  0.14745489823E+02  0.19767068647E+03  0.41800000000E+01 0. -1.
         -5    1    4    4    0  501 -0.13065974073E+03  0.46286347553E+02  0.79703675615E+02  0.15995168684E+03  0.41800000000E+01 0. -1.
</event>
<event>
11    1  0.1003949E-008  0.1275667E+03  0.7561462E-02  0.1122295E+00
         22   -1    0    0    0    0  0.00000000000E+00  0.00000000000E+00  0.21142960382E+04  0.21142960382E+04  0.00000000000E+00 0. -1.
         22   -1    0    0    0    0 -0.00000000000E+00 -0.00000000000E+00 -0.68908799250E+03  0.68908799250E+03  0.00000000000E+00 0.  1.
        -24    2    1    2    0    0  0.22636182292E+02 -0.50997578604E+01 -0.60751700003E+03  0.61459175049E+03  0.90042824085E+02 0.  0.
         25    2    1    2    0    0 -0.59982923768E+02 -0.97147749120E+01 -0.14404157705E+02  0.13981363312E+03  0.12509214305E+03 0.  0.
         24    2    1    2    0    0  0.37346741476E+02  0.14814532772E+02  0.20471292034E+04  0.20489786470E+04  0.77209268853E+02 0.  0.
        -13    1    5    5    0    0  0.45289041487E+02 -0.21267956361E+02  0.12140239462E+04  0.12150545524E+04  0.00000000000E+00 0.  1.
         14    1    5    5    0    0 -0.79423000105E+01  0.36082489133E+02  0.83310525717E+03  0.83392409467E+03  0.00000000000E+00 0. -1.
         13    1    3    3    0    0  0.15276621394E+02  0.35339764163E+02 -0.13772637891E+03  0.14300639685E+03  0.00000000000E+00 0. -1.
        -14    1    3    3    0    0  0.73595608973E+01 -0.40439522024E+02 -0.46979062112E+03  0.47158535364E+03  0.00000000000E+00 0.  1.
          5    1    4    4  501    0 -0.84264533592E+02  0.32128427019E+02 -0.13214841419E+02  0.91240626247E+02  0.41800000000E+01 0.  1.
         -5    1    4    4    0  501  0.24281609824E+02 -0.41843201931E+02 -0.11893162856E+01  0.48573006874E+02  0.41800000000E+01 0.  1.
</event>
<event>
11    1  0.1003949E-008  0.1466391E+03  0.7561462E-02  0.1100363E+00
         22   -1    0    0    0    0  0.00000000000E+00  0.00000000000E+00  0.97684002737E+03  0.97684002737E+03  0.00000000000E+00 0.  1.
         22   -1    0    0    0    0 -0.00000000000E+00 -0.00000000000E+00 -0.76912164935E+02  0.76912164935E+02  0.00000000000E+00 0.  1.
        -24    2    1    2    0    0  0.37492105554E+02 -0.39948318915E+02  0.31531507140E+02  0.10154815630E+03  0.79474939078E+02 0.  0.
         25    2    1    2    0    0 -0.10565440119E+03  0.62547010626E+02  0.16512781478E+03  0.24081035374E+03  0.12508976867E+03 0.  0.
         24    2    1    2    0    0  0.68162295632E+02 -0.22598691711E+02  0.70326854052E+03  0.71139368227E+03  0.79608615601E+02 0.  0.
        -13    1    5    5    0    0  0.70827017257E+02  0.94097476595E+01  0.39071971602E+03  0.39719882453E+03  0.00000000000E+00 0.  1.
         14    1    5    5    0    0 -0.26647216249E+01 -0.32008439371E+02  0.31254882450E+03  0.31419485774E+03  0.00000000000E+00 0. -1.
         11    1    3    3    0    0  0.26089274866E+02  0.15145556012E+02 -0.98198223110E+01  0.31724864698E+02  0.00000000000E+00 0. -1.
        -12    1    3    3    0    0  0.11402830689E+02 -0.55093874926E+02  0.41351329451E+02  0.69823291597E+02  0.00000000000E+00 0.  1.
          5    1    4    4  501    0 -0.32580567339E+02 -0.27980702472E+02  0.58803686196E+01  0.43548412303E+02  0.41800000000E+01 0.  1.
         -5    1    4    4    0  501 -0.73073833847E+02  0.90527713098E+02  0.15924744616E+03  0.19726194144E+03  0.41800000000E+01 0.  1.
</event>
<event>
11    1  0.1003949E-008  0.1560348E+03  0.7561462E-02  0.1090867E+00
         22   -1    0    0    0    0  0.00000000000E+00  0.00000000000E+00  0.58573182844E+03  0.58573182844E+03  0.00000000000E+00 0.  1.
         22   -1    0    0    0    0 -0.00000000000E+00 -0.00000000000E+00 -0.11879415661E+03  0.11879415661E+03  0.00000000000E+00 0.  1.
         24    2    1    2    0    0 -0.88697996346E+02  0.12880000006E+01 -0.38636881936E+02  0.12587230177E+03  0.80511081263E+02 0.  0.
         25    2    1    2    0    0  0.11954433317E+03 -0.21876725858E+02  0.22780724234E+03  0.28690389228E+03  0.12509302545E+03 0.  0.
        -24    2    1    2    0    0 -0.30846336828E+02  0.20588725857E+02  0.27776731142E+03  0.29174979100E+03  0.81165689326E+02 0.  0.
        -13    1    3    3    0    0 -0.86314210920E+02  0.29626844471E+02 -0.27255858168E+02  0.95240614889E+02  0.00000000000E+00 0.  1.
         14    1    3    3    0    0 -0.23837854259E+01 -0.28338844470E+02 -0.11381023768E+02  0.30631686876E+02  0.00000000000E+00 0. -1.
         11    1    5    5    0    0 -0.33247367952E+02  0.44243765126E+01  0.35157569992E+02  0.48590300585E+02  0.00000000000E+00 0. -1.
        -12    1    5    5    0    0  0.24010311234E+01  0.16164349345E+02  0.24260974143E+03  0.24315949041E+03  0.00000000000E+00 0.  1.
          5    1    4    4  501    0  0.46022296317E+01  0.35413984064E+02  0.16423907428E+02  0.39529076894E+02  0.41800000000E+01 0.  1.
         -5    1    4    4    0  501  0.11494210354E+03 -0.57290709922E+02  0.21138333491E+03  0.24737481539E+03  0.41800000000E+01 0.  1.
</event>
<event>
11    1  0.1003949E-008  0.1362129E+03  0.7561462E-02  0.1111863E+00
         22   -1    0    0    0    0  0.00000000000E+00  0.00000000000E+00  0.46838174252E+03  0.46838174252E+03  0.00000000000E+00 0.  1.
         22   -1    0    0    0    0 -0.00000000000E+00 -0.00000000000E+00 -0.16373855051E+04  0.16373855051E+04  0.00000000000E+00 0.  1.
        -24    2    1    2    0    0  0.10506976850E+02  0.52950525099E+02 -0.16090300649E+04  0.16119808550E+04  0.81181108405E+02 0.  0.
         25    2    1    2    0    0 -0.69607649399E+01 -0.42932183725E+02  0.19691353062E+03  0.23730578298E+03  0.12508985350E+03 0.  0.
         24    2    1    2    0    0 -0.35462119101E+01 -0.10018341374E+02  0.24311277171E+03  0.25648060967E+03  0.81028023453E+02 0.  0.
        -13    1    5    5    0    0  0.99928713953E+01  0.74694152362E+00  0.23832132392E+03  0.23853190318E+03  0.00000000000E+00 0.  1.
         14    1    5    5    0    0 -0.13539083305E+02 -0.10765282897E+02  0.47914477885E+01  0.17948706486E+02  0.00000000000E+00 0. -1.
         13    1    3    3    0    0 -0.23459489955E+02  0.53620276062E+02 -0.75041022172E+03  0.75268916728E+03  0.00000000000E+00 0. -1.
        -14    1    3    3    0    0  0.33966466805E+02 -0.66975096276E+00 -0.85861984320E+03  0.85929168771E+03  0.00000000000E+00 0.  1.
          5    1    4    4  501    0  0.24865676319E+02 -0.32829166847E+02  0.41222745341E+01  0.41599538484E+02  0.41800000000E+01 0. -1.
         -5    1    4    4    0  501 -0.31826441259E+02 -0.10103016878E+02  0.19279125609E+03  0.19570624450E+03  0.41800000000E+01 0. -1.
</event>
<event>
11    1  0.1003949E-008  0.1308066E+03  0.7561462E-02  0.1118282E+00
         22   -1    0    0    0    0  0.00000000000E+00  0.00000000000E+00  0.73288509096E+03  0.73288509096E+03  0.00000000000E+00 0. -1.
         22   -1    0    0    0    0 -0.00000000000E+00 -0.00000000000E+00 -0.28867050874E+03  0.28867050874E+03  0.00000000000E+00 0. -1.
        -24    2    1    2    0    0 -0.32040427398E+02  0.16991776929E+02 -0.24107665584E+03  0.25742066876E+03  0.82656743486E+02 0.  0.
         25    2    1    2    0    0  0.29617666698E+02  0.22733984354E+02  0.82292833673E+02  0.15431432712E+03  0.12508701313E+03 0.  0.
         24    2    1    2    0    0  0.24227607003E+01 -0.39725761284E+02  0.60299840439E+03  0.60982060382E+03  0.81792953646E+02 0.  0.
        -13    1    5    5    0    0 -0.18084739111E+02  0.79855120629E+00  0.30095883673E+02  0.35120616264E+02  0.00000000000E+00 0.  1.
         14    1    5    5    0    0  0.20507499811E+02 -0.40524312490E+02  0.57290252071E+03  0.57469998755E+03  0.00000000000E+00 0. -1.
         13    1    3    3    0    0 -0.31765141148E+02 -0.23024335849E+02 -0.58006041886E+02  0.70027459819E+02  0.00000000000E+00 0. -1.
        -14    1    3    3    0    0 -0.27528625027E+00  0.40016112778E+02 -0.18307061395E+03  0.18739320894E+03  0.00000000000E+00 0.  1.
          5    1    4    4  501    0  0.34286507696E+02  0.52299930786E+02  0.10092985976E+03  0.11880722352E+03  0.41800000000E+01 0.  1.
         -5    1    4    4    0  501 -0.46688409985E+01 -0.29565946432E+02 -0.18637026083E+02  0.35507103598E+02  0.41800000000E+01 0.  1.
</event>
<event>
11    1  0.1003949E-008  0.1596838E+03  0.7561462E-02  0.1087375E+00
         22   -1    0    0    0    0  0.00000000000E+00  0.00000000000E+00  0.64411495936E+03  0.64411495936E+03  0.00000000000E+00 0.  1.
         22   -1    0    0    0    0 -0.00000000000E+00 -0.00000000000E+00 -0.60410235616E+03  0.60410235616E+03  0.00000000000E+00 0. -1.
         24    2    1    2    0    0  0.97816913107E+01 -0.12876953082E+02 -0.55064938676E+03  0.55677399870E+03  0.80752963293E+02 0.  0.
         25    2    1    2    0    0 -0.10711682494E+03  0.32671778342E+01  0.12004762492E+03  0.20381718590E+03  0.12508127111E+03 0.  0.
        -24    2    1    2    0    0  0.97335133634E+02  0.96097752479E+01  0.47061436504E+03  0.48762613092E+03  0.82066357023E+02 0.  0.
        -11    1    3    3    0    0 -0.81510122814E+01 -0.32334897250E+02 -0.10132611909E+03  0.10667224096E+03  0.00000000000E+00 0.  1.
         12    1    3    3    0    0  0.17932703592E+02  0.19457944168E+02 -0.44932326768E+03  0.45010175774E+03  0.00000000000E+00 0. -1.
         11    1    5    5    0    0  0.20142358454E+02  0.19780824361E+02  0.34322375973E+02  0.44441209580E+02  0.00000000000E+00 0. -1.
        -12    1    5    5    0    0  0.77192775180E+02 -0.10171049113E+02  0.43629198907E+03  0.44318492134E+03  0.00000000000E+00 0.  1.
          5    1    4    4  501    0  0.27730555315E+02  0.90377272876E+01  0.17631581238E+02  0.34336704407E+02  0.41800000000E+01 0. -1.
         -5    1    4    4    0  501 -0.13484738026E+03 -0.57705494534E+01  0.10241604368E+03  0.16948048149E+03  0.41800000000E+01 0. -1.
</event>
<event>
11    1  0.1003949E-008  0.1585243E+03  0.7561462E-02  0.1088473E+00
         22   -1    0    0    0    0  0.00000000000E+00  0.00000000000E+00  0.16426428267E+03  0.16426428267E+03  0.00000000000E+00 0.  1.
         22   -1    0    0    0    0 -0.00000000000E+00 -0.00000000000E+00 -0.17411861362E+04  0.17411861362E+04  0.00000000000E+00 0. -1.
        -24    2    1    2    0    0  0.91376037270E+02 -0.27585540630E+02 -0.99031189060E+03  0.99811276953E+03  0.80005736055E+02 0.  0.
         25    2    1    2    0    0 -0.10194849335E+03  0.12748370323E+02 -0.72771480158E+03  0.74550248208E+03  0.12509637130E+03 0.  0.
         24    2    1    2    0    0  0.10572456083E+02  0.14837170307E+02  0.14110483867E+03  0.16183516722E+03  0.77124103896E+02 0.  0.
        -11    1    5    5    0    0  0.11338269189E+02  0.64366330965E+01  0.14942159218E+03  0.14998932896E+03  0.00000000000E+00 0.  1.
         12    1    5    5    0    0 -0.76581310653E+00  0.84005372108E+01 -0.83167535047E+01  0.11845838257E+02  0.00000000000E+00 0. -1.
         13    1    3    3    0    0  0.64299143063E+02 -0.30461086607E+02 -0.91946054221E+03  0.92220927467E+03  0.00000000000E+00 0. -1.
        -14    1    3    3    0    0  0.27076894207E+02  0.28755459769E+01 -0.70851348391E+02  0.75903494869E+02  0.00000000000E+00 0.  1.
          5    1    4    4  501    0 -0.15977121094E+02 -0.41732812555E+02 -0.10045934853E+03  0.11002931041E+03  0.41800000000E+01 0.  1.
         -5    1    4    4    0  501 -0.85971372258E+02  0.54481182878E+02 -0.62725545305E+03  0.63547317168E+03  0.41800000000E+01 0.  1.
</event>
<event>
11    1  0.1003949E-008  0.3529181E+03  0.7561462E-02  0.9799898E-01
         22   -1    0    0    0    0  0.00000000000E+00  0.00000000000E+00  0.41480860195E+03  0.41480860195E+03  0.00000000000E+00 0.  1.
         22   -1    0    0    0    0 -0.00000000000E+00 -0.00000000000E+00 -0.30277907367E+04  0.30277907367E+04  0.00000000000E+00 0. -1.
         24    2    1    2    0    0 -0.34082952112E+01 -0.50019676713E+02 -0.26219051293E+04  0.26236986621E+04  0.83033595125E+02 0.  0.
         25    2    1    2    0    0 -0.27625868735E+03  0.21506742796E+03 -0.20246190803E+03  0.42333135629E+03  0.12508298089E+03 0.  0.
        -24    2    1    2    0    0  0.27966698256E+03 -0.16504775124E+03  0.21138490265E+03  0.39556932020E+03  0.79606084493E+02 0.  0.
        -13    1    3    3    0    0 -0.26903493774E+02 -0.64051365019E+02 -0.19463911506E+04  0.19476305827E+04  0.00000000000E+00 0.  1.
         14    1    3    3    0    0  0.23495198563E+02  0.14031688306E+02 -0.67551397871E+03  0.67606807946E+03  0.00000000000E+00 0. -1.
         13    1    5    5    0    0  0.88045955235E+01 -0.29411598924E+02  0.12262311255E+02  0.33059451461E+02  0.00000000000E+00 0. -1.
        -14    1    5    5    0    0  0.27086238704E+03 -0.13563615232E+03  0.19912259139E+03  0.36250986874E+03  0.00000000000E+00 0.  1.
          5    1    4    4  501    0 -0.23118703667E+02  0.65229595290E+02 -0.76686360213E+02  0.10338106598E+03  0.41800000000E+01 0. -1.
         -5    1    4    4    0  501 -0.25313998369E+03  0.14983783267E+03 -0.12577554782E+03  0.31995029031E+03  0.41800000000E+01 0. -1.
</event>
