<event>
11    1  0.8864208E-009  0.1334771E+03  0.7561462E-02  0.1115069E+00
         22   -1    0    0    0    0  0.00000000000E+00  0.00000000000E+00  0.10328174149E+04  0.10328174149E+04  0.00000000000E+00 0.  1.
         22   -1    0    0    0    0 -0.00000000000E+00 -0.00000000000E+00 -0.15737994061E+04  0.15737994061E+04  0.00000000000E+00 0.  1.
        -24    2    1    2    0    0 -0.20856991529E+02 -0.29267894852E+02 -0.14680738378E+04  0.14707491752E+04  0.81059973627E+02 0.  0.
         25    2    1    2    0    0  0.24930335509E+02 -0.17713031226E+02 -0.61615922155E+02  0.14275164655E+03  0.12508492166E+03 0.  0.
         24    2    1    2    0    0 -0.40733439799E+01  0.46980926078E+02  0.98870776880E+03  0.99311599916E+03  0.80700285950E+02 0.  0.
        -11    1    5    5    0    0 -0.25966370409E+01  0.22068656353E+02  0.91553417522E+03  0.91580379673E+03  0.00000000000E+00 0.  1.
         12    1    5    5    0    0 -0.14767069389E+01  0.24912269725E+02  0.73173593582E+02  0.77312202426E+02  0.00000000000E+00 0. -1.
         11    1    3    3    0    0  0.15233969284E+02  0.20815780088E+02 -0.33280117783E+03  0.33379933266E+03  0.00000000000E+00 0. -1.
        -12    1    3    3    0    0 -0.36090960814E+02 -0.50083674940E+02 -0.11352726600E+04  0.11369498426E+04  0.00000000000E+00 0.  1.
          5    1    4    4  501    0  0.17303518891E+02 -0.59142828086E+02 -0.76099531640E+02  0.98009678072E+02  0.41800000000E+01 0. -1.
         -5    1    4    4    0  501  0.76268166181E+01  0.41429796860E+02  0.14483609484E+02  0.44741968478E+02  0.41800000000E+01 0. -1.
</event>
<event>
11    1  0.8864208E-009  0.1533775E+03  0.7561462E-02  0.1093477E+00
         22   -1    0    0    0    0  0.00000000000E+00  0.00000000000E+00  0.17381229437E+03  0.17381229437E+03  0.00000000000E+00 0.  1.
         22   -1    0    0    0    0 -0.00000000000E+00 -0.00000000000E+00 -0.15488606965E+04  0.15488606965E+04  0.00000000000E+00 0.  1.
        -24    2    1    2    0    0 -0.19560506689E+02  0.18167401349E+00 -0.79442689185E+03  0.79880335006E+03  0.81179179268E+02 0.  0.
         25    2    1    2    0    0 -0.56545710964E+02 -0.46763494014E+02 -0.72334834926E+03  0.73774302964E+03  0.12509077347E+03 0.  0.
         24    2    1    2    0    0  0.76106217652E+02  0.46581820001E+02  0.14272683898E+03  0.18612661116E+03  0.79436405366E+02 0.  0.
        -13    1    5    5    0    0  0.27702679219E+02  0.45644070852E+01  0.11121238231E+03  0.11470164004E+03  0.00000000000E+00 0.  1.
         14    1    5    5    0    0  0.48403538433E+02  0.42017412916E+02  0.31514456669E+02  0.71424971124E+02  0.00000000000E+00 0. -1.
         13    1    3    3    0    0 -0.26367473864E+02  0.44042912324E+01 -0.80327151327E+02  0.84658683544E+02  0.00000000000E+00 0. -1.
        -14    1    3    3    0    0  0.68069671754E+01 -0.42226172190E+01 -0.71409974052E+03  0.71414466652E+03  0.00000000000E+00 0.  1.
          5    1    4    4  501    0  0.35125046779E+02  0.72204122460E+01 -0.24825185535E+03  0.25086322837E+03  0.41800000000E+01 0. -1.
         -5    1    4    4    0  501 -0.91670757743E+02 -0.53983906260E+02 -0.47509649391E+03  0.48687980127E+03  0.41800000000E+01 0. -1.
</event>
<event>
11    1  0.8864208E-009  0.1349749E+03  0.7561462E-02  0.1113303E+00
         22   -1    0    0    0    0  0.00000000000E+00  0.00000000000E+00  0.61158541131E+03  0.61158541131E+03  0.00000000000E+00 0.  1.
         22   -1    0    0    0    0 -0.00000000000E+00 -0.00000000000E+00 -0.17883184349E+03  0.17883184349E+03  0.00000000000E+00 0. -1.
         24    2    1    2    0    0  0.30602678583E+02 -0.15190835516E+02 -0.58942516815E+02  0.10522635687E+03  0.80194017681E+02 0.  0.
         25    2    1    2    0    0 -0.79812267661E+02  0.10422516492E+02 -0.32831855244E+02  0.15233140983E+03  0.12509316841E+03 0.  0.
        -24    2    1    2    0    0  0.49209589078E+02  0.47683190241E+01  0.52452793988E+03  0.53285948810E+03  0.79783167531E+02 0.  0.
        -13    1    3    3    0    0 -0.54817765094E+01  0.28797755542E+02 -0.12868296980E+02  0.32014897550E+02  0.00000000000E+00 0.  1.
         14    1    3    3    0    0  0.36084455092E+02 -0.43988591058E+02 -0.46074219835E+02  0.73211459322E+02  0.00000000000E+00 0. -1.
         11    1    5    5    0    0 -0.10472971592E+02 -0.23627265658E+02  0.10364114200E+03  0.10681487317E+03  0.00000000000E+00 0. -1.
        -12    1    5    5    0    0  0.59682560670E+02  0.28395584682E+02  0.42088679788E+03  0.42604461493E+03  0.00000000000E+00 0.  1.
          5    1    4    4  501    0  0.82661988847E+00 -0.48553171401E+02 -0.11941227919E+02  0.50181262217E+02  0.41800000000E+01 0. -1.
         -5    1    4    4    0  501 -0.80638887550E+02  0.58975687893E+02 -0.20890627325E+02  0.10215014761E+03  0.41800000000E+01 0. -1.
</event>
<event>
11    1  0.8864208E-009  0.2075007E+03  0.7561462E-02  0.1049343E+00
         22   -1    0    0    0    0  0.00000000000E+00  0.00000000000E+00  0.56910382614E+03  0.56910382614E+03  0.00000000000E+00 0.  1.
         22   -1    0    0    0    0 -0.00000000000E+00 -0.00000000000E+00 -0.11323282827E+04  0.11323282827E+04  0.00000000000E+00 0.  1.
        -24    2    1    2    0    0 -0.15376594624E+03 -0.59473902676E+02 -0.10316677662E+04  0.10478610906E+04  0.80581474114E+02 0.  0.
         25    2    1    2    0    0  0.18194742732E+03  0.21444533143E+02  0.57589539997E+02  0.22919176483E+03  0.12509026995E+03 0.  0.
         24    2    1    2    0    0 -0.28181481077E+02  0.38029369534E+02  0.41085376962E+03  0.42437925349E+03  0.95165655367E+02 0.  0.
        -13    1    5    5    0    0 -0.57007102495E+02  0.48947604750E+02  0.30588819667E+03  0.31498137502E+03  0.00000000000E+00 0.  1.
         14    1    5    5    0    0  0.28825621417E+02 -0.10918235216E+02  0.10496557295E+03  0.10939787847E+03  0.00000000000E+00 0. -1.
         11    1    3    3    0    0 -0.23958223406E+02  0.17569942215E+02 -0.24931706064E+03  0.25108105477E+03  0.00000000000E+00 0. -1.
        -12    1    3    3    0    0 -0.12980772284E+03 -0.77043844892E+02 -0.78235070557E+03  0.79678003580E+03  0.00000000000E+00 0.  1.
          5    1    4    4  501    0  0.19231918560E+03  0.28056274516E+02  0.74222233761E+02  0.20808708772E+03  0.41800000000E+01 0.  1.
         -5    1    4    4    0  501 -0.10371758284E+02 -0.66117413739E+01 -0.16632693763E+02  0.21104677105E+02  0.41800000000E+01 0.  1.
</event>
<event>
11    1  0.8864208E-009  0.1475577E+03  0.7561462E-02  0.1099401E+00
         22   -1    0    0    0    0  0.00000000000E+00  0.00000000000E+00  0.40642239351E+03  0.40642239351E+03  0.00000000000E+00 0. -1.
         22   -1    0    0    0    0 -0.00000000000E+00 -0.00000000000E+00 -0.31283202161E+03  0.31283202161E+03  0.00000000000E+00 0.  1.
         24    2    1    2    0    0 -0.11343538659E+02  0.26680949335E+02 -0.10505333422E+03  0.13623587592E+03  0.81752442970E+02 0.  0.
         25    2    1    2    0    0  0.77910471295E+02 -0.65809531256E+02 -0.14787436494E+03  0.21888855998E+03  0.12507772760E+03 0.  0.
        -24    2    1    2    0    0 -0.66566932636E+02  0.39128581921E+02  0.34651807106E+03  0.36412997922E+03  0.80954714179E+02 0.  0.
        -13    1    3    3    0    0 -0.30632408846E+02  0.48525210672E+02 -0.65061351436E+02  0.86752636808E+02  0.00000000000E+00 0.  1.
         14    1    3    3    0    0  0.19288870187E+02 -0.21844261337E+02 -0.39991982784E+02  0.49483239116E+02  0.00000000000E+00 0. -1.
         11    1    5    5    0    0 -0.21593867209E+02  0.37150722980E+02  0.28319403313E+03  0.28643556294E+03  0.00000000000E+00 0. -1.
        -12    1    5    5    0    0 -0.44973065426E+02  0.19778589410E+01  0.63324037935E+02  0.77694416274E+02  0.00000000000E+00 0.  1.
          5    1    4    4  501    0  0.51133014885E+02  0.30925658700E+02 -0.67377978306E+02  0.90156785312E+02  0.41800000000E+01 0.  1.
         -5    1    4    4    0  501  0.26777456410E+02 -0.96735189957E+02 -0.80496386634E+02  0.12873177467E+03  0.41800000000E+01 0.  1.
</event>
<event>
11    1  0.8864208E-009  0.5956974E+03  0.7561462E-02  0.9201923E-01
         22   -1    0    0    0    0  0.00000000000E+00  0.00000000000E+00  0.15793224311E+04  0.15793224311E+04  0.00000000000E+00 0.  1.
         22   -1    0    0    0    0 -0.00000000000E+00 -0.00000000000E+00 -0.31218115126E+03  0.31218115126E+03  0.00000000000E+00 0. -1.
        -24    2    1    2    0    0  0.59049253366E+02 -0.15544753439E+02 -0.17462101992E+02  0.10354243171E+03  0.81778092881E+02 0.  0.
         25    2    1    2    0    0  0.53676227808E+03 -0.80020752775E+02  0.30635937264E+03  0.63562727987E+03  0.12509560213E+03 0.  0.
         24    2    1    2    0    0 -0.59581153145E+03  0.95565506214E+02  0.97824400915E+03  0.11523338707E+04  0.82388477418E+02 0.  0.
        -13    1    5    5    0    0 -0.59174322282E+03  0.10205189673E+03  0.95739957834E+03  0.11301276848E+04  0.00000000000E+00 0.  1.
         14    1    5    5    0    0 -0.40683086227E+01 -0.64863905192E+01  0.20844430806E+02  0.22206185909E+02  0.00000000000E+00 0. -1.
         13    1    3    3    0    0 -0.55310801609E+01 -0.33159699668E+02  0.24418241085E+01  0.33706394568E+02  0.00000000000E+00 0. -1.
        -14    1    3    3    0    0  0.64580333526E+02  0.17614946229E+02 -0.19903926101E+02  0.69836037139E+02  0.00000000000E+00 0.  1.
          5    1    4    4  501    0  0.15681515737E+03 -0.81797190580E+02  0.94002536114E+02  0.20033902057E+03  0.41800000000E+01 0. -1.
         -5    1    4    4    0  501  0.37994712071E+03  0.17764378045E+01  0.21235683652E+03  0.43528825930E+03  0.41800000000E+01 0. -1.
</event>
<event>
11    1  0.8864208E-009  0.1620313E+03  0.7561462E-02  0.1085182E+00
         22   -1    0    0    0    0  0.00000000000E+00  0.00000000000E+00  0.34743098124E+03  0.34743098124E+03  0.00000000000E+00 0.  1.
         22   -1    0    0    0    0 -0.00000000000E+00 -0.00000000000E+00 -0.53491045552E+03  0.53491045552E+03  0.00000000000E+00 0.  1.
         24    2    1    2    0    0 -0.51139156146E+02  0.31805576791E+02 -0.37354175623E+03  0.38990827748E+03  0.94171190903E+02 0.  0.
         25    2    1    2    0    0  0.14800520425E+03 -0.13651005307E+02 -0.69837977843E+02  0.20643635229E+03  0.12508690566E+03 0.  0.
        -24    2    1    2    0    0 -0.96866048102E+02 -0.18154571484E+02  0.25590025979E+03  0.28599680698E+03  0.81219522897E+02 0.  0.
        -11    1    3    3    0    0 -0.51396830132E+02  0.47328147439E+02 -0.36607219281E+03  0.37268007464E+03  0.00000000000E+00 0.  1.
         12    1    3    3    0    0  0.25767398641E+00 -0.15522570648E+02 -0.74695634204E+01  0.17228202840E+02  0.00000000000E+00 0. -1.
         13    1    5    5    0    0 -0.87935299275E+02 -0.31843561465E+02  0.13639517415E+03  0.16537917885E+03  0.00000000000E+00 0. -1.
        -14    1    5    5    0    0 -0.89307488265E+01  0.13688989981E+02  0.11950508564E+03  0.12061762813E+03  0.00000000000E+00 0.  1.
          5    1    4    4  501    0  0.65127093145E+02 -0.18118455473E+02  0.32070776969E+02  0.74938800535E+02  0.41800000000E+01 0.  1.
         -5    1    4    4    0  501  0.82878111102E+02  0.44674501656E+01 -0.10190875481E+03  0.13149755176E+03  0.41800000000E+01 0.  1.
</event>
<event>
11    1  0.8864208E-009  0.1302289E+03  0.7561462E-02  0.1118988E+00
         22   -1    0    0    0    0  0.00000000000E+00  0.00000000000E+00  0.21650614653E+04  0.21650614653E+04  0.00000000000E+00 0.  1.
         22   -1    0    0    0    0 -0.00000000000E+00 -0.00000000000E+00 -0.27601462134E+03  0.27601462134E+03  0.00000000000E+00 0. -1.
        -24    2    1    2    0    0 -0.44567212048E+02 -0.12614163867E+01 -0.10491589223E+03  0.13910005092E+03  0.79709799668E+02 0.  0.
         25    2    1    2    0    0  0.75182377769E+02  0.20140034434E+02 -0.11755235181E+03  0.18847942323E+03  0.12509167299E+03 0.  0.
         24    2    1    2    0    0 -0.30615165721E+02 -0.18878618047E+02  0.21115150880E+04  0.21134966125E+04  0.84132476461E+02 0.  0.
        -13    1    5    5    0    0  0.19757425075E+02 -0.28141444049E+02  0.12409077889E+04  0.12413840813E+04  0.00000000000E+00 0.  1.
         14    1    5    5    0    0 -0.50372590796E+02  0.92628260020E+01  0.87060729902E+03  0.87211253113E+03  0.00000000000E+00 0. -1.
         13    1    3    3    0    0  0.10131059256E+02 -0.86679601018E+01 -0.75276598358E+02  0.76448271101E+02  0.00000000000E+00 0. -1.
        -14    1    3    3    0    0 -0.54698271304E+02  0.74065437151E+01 -0.29639293870E+02  0.62651779820E+02  0.00000000000E+00 0.  1.
          5    1    4    4  501    0 -0.13378854483E+02  0.34032908349E+02 -0.85671107900E+02  0.93242928562E+02  0.41800000000E+01 0.  1.
         -5    1    4    4    0  501  0.88561232252E+02 -0.13892873915E+02 -0.31881243910E+02  0.95236494669E+02  0.41800000000E+01 0.  1.
</event>
<event>
11    1  0.8864208E-009  0.1581886E+03  0.7561462E-02  0.1088793E+00
         22   -1    0    0    0    0  0.00000000000E+00  0.00000000000E+00  0.52995117145E+03  0.52995117145E+03  0.00000000000E+00 0.  1.
         22   -1    0    0    0    0 -0.00000000000E+00 -0.00000000000E+00 -0.14924423246E+04  0.14924423246E+04  0.00000000000E+00 0. -1.
         24    2    1    2    0    0  0.26633713630E+02  0.26544602825E+02 -0.12084615911E+04  0.12117408544E+04  0.80762061180E+02 0.  0.
         25    2    1    2    0    0  0.70984139906E+02 -0.26775455675E+02 -0.25458758168E+03  0.29362383517E+03  0.12507776256E+03 0.  0.
        -24    2    1    2    0    0 -0.97617853537E+02  0.23085284993E+00  0.50055801964E+03  0.51702880643E+03  0.85036210112E+02 0.  0.
        -13    1    3    3    0    0  0.52934293984E+02  0.31387228633E+02 -0.91287848516E+03  0.91495045017E+03  0.00000000000E+00 0.  1.
         14    1    3    3    0    0 -0.26300580354E+02 -0.48426258078E+01 -0.29558310591E+03  0.29679040424E+03  0.00000000000E+00 0. -1.
         11    1    5    5    0    0 -0.47096733548E+02 -0.42260879991E+02  0.25822489709E+03  0.26586496905E+03  0.00000000000E+00 0. -1.
        -12    1    5    5    0    0 -0.50521119989E+02  0.42491732841E+02  0.24233312255E+03  0.25116383738E+03  0.00000000000E+00 0.  1.
          5    1    4    4  501    0  0.35589910022E+02  0.43738791888E+02 -0.54633101358E+02  0.78625516057E+02  0.41800000000E+01 0. -1.
         -5    1    4    4    0  501  0.35394229885E+02 -0.70514247563E+02 -0.19995448032E+03  0.21499831911E+03  0.41800000000E+01 0. -1.
</event>
<event>
11    1  0.8864208E-009  0.3143468E+03  0.7561462E-02  0.9942958E-01
         22   -1    0    0    0    0  0.00000000000E+00  0.00000000000E+00  0.99109912508E+02  0.99109912508E+02  0.00000000000E+00 0. -1.
         22   -1    0    0    0    0 -0.00000000000E+00 -0.00000000000E+00 -0.14995795450E+04  0.14995795450E+04  0.00000000000E+00 0. -1.
         24    2    1    2    0    0 -0.21733053346E+02 -0.52011587158E+02 -0.37571525985E+03  0.38818309398E+03  0.79665721351E+02 0.  0.
         25    2    1    2    0    0  0.17609956457E+03  0.27293870978E+03 -0.69414139471E+03  0.77652232115E+03  0.12509213988E+03 0.  0.
        -24    2    1    2    0    0 -0.15436651122E+03 -0.22092712262E+03 -0.33061297794E+03  0.43398404239E+03  0.79996215969E+02 0.  0.
        -13    1    3    3    0    0  0.30414997440E+02 -0.19058263362E+02 -0.13532455828E+03  0.14000366261E+03  0.00000000000E+00 0.  1.
         14    1    3    3    0    0 -0.52148050786E+02 -0.32953323795E+02 -0.24039070157E+03  0.24817943136E+03  0.00000000000E+00 0. -1.
         11    1    5    5    0    0 -0.15736788909E+03 -0.19629538746E+03 -0.27296742939E+03  0.37122466131E+03  0.00000000000E+00 0. -1.
        -12    1    5    5    0    0  0.30013778711E+01 -0.24631735164E+02 -0.57645548544E+02  0.62759381078E+02  0.00000000000E+00 0.  1.
          5    1    4    4  501    0 -0.55659572830E+01  0.80052212426E+02 -0.20544812329E+03  0.22060312863E+03  0.41800000000E+01 0. -1.
         -5    1    4    4    0  501  0.18166552185E+03  0.19288649735E+03 -0.48869327142E+03  0.55591919253E+03  0.41800000000E+01 0. -1.
</event>
<event>
11    1  0.8864208E-009  0.2533876E+03  0.7561462E-02  0.1022110E+00
         22   -1    0    0    0    0  0.00000000000E+00  0.00000000000E+00  0.12576500527E+04  0.12576500527E+04  0.00000000000E+00 0. -1.
         22   -1    0    0    0    0 -0.00000000000E+00 -0.00000000000E+00 -0.19881423117E+04  0.19881423117E+04  0.00000000000E+00 0. -1.
         24    2    1    2    0    0 -0.99696348908E+02  0.19135476140E+03 -0.15913849185E+04  0.16076960530E+04  0.74997555982E+02 0.  0.
         25    2    1    2    0    0  0.12623459253E+03 -0.21443456221E+03 -0.33691448854E+03  0.43712301743E+03  0.12509119058E+03 0.  0.
        -24    2    1    2    0    0 -0.26538243625E+02  0.23079800803E+02  0.11978071480E+04  0.12009732939E+04  0.79736649693E+02 0.  0.
        -13    1    3    3    0    0 -0.38741781183E+02  0.15301089972E+02 -0.25298029529E+03  0.25638658071E+03  0.00000000000E+00 0.  1.
         14    1    3    3    0    0 -0.60954567725E+02  0.17605367143E+03 -0.13384046232E+04  0.13513094723E+04  0.00000000000E+00 0. -1.
         11    1    5    5    0    0  0.18266337363E+01  0.18331048021E+02  0.10617484078E+04  0.10619082095E+04  0.00000000000E+00 0. -1.
        -12    1    5    5    0    0 -0.28364877361E+02  0.47487527824E+01  0.13605874027E+03  0.13906508449E+03  0.00000000000E+00 0.  1.
          5    1    4    4  501    0  0.99625747200E+02 -0.18216025567E+03 -0.18046114429E+03  0.27512060128E+03  0.41800000000E+01 0.  1.
         -5    1    4    4    0  501  0.26608845334E+02 -0.32274306540E+02 -0.15645334425E+03  0.16200241615E+03  0.41800000000E+01 0.  1.
</event>
<event>
11    1  0.8864208E-009  0.3576967E+03  0.7561462E-02  0.9783545E-01
         22   -1    0    0    0    0  0.00000000000E+00  0.00000000000E+00  0.21939706748E+03  0.21939706748E+03  0.00000000000E+00 0. -1.
         22   -1    0    0    0    0 -0.00000000000E+00 -0.00000000000E+00 -0.17282719234E+04  0.17282719234E+04  0.00000000000E+00 0.  1.
         24    2    1    2    0    0  0.32611386276E+03  0.15078396595E+03 -0.13912096590E+04  0.14393855440E+04  0.85325101853E+02 0.  0.
         25    2    1    2    0    0 -0.87200191120E+02 -0.33115958852E+02 -0.16318983687E+03  0.22578451654E+03  0.12508870847E+03 0.  0.
        -24    2    1    2    0    0 -0.23891367164E+03 -0.11766800710E+03  0.45524639917E+02  0.28249893042E+03  0.82508487179E+02 0.  0.
        -11    1    3    3    0    0  0.32648731417E+03  0.13795388902E+03 -0.13640355980E+04  0.14093325919E+04  0.00000000000E+00 0.  1.
         12    1    3    3    0    0 -0.37345140930E+00  0.12830076938E+02 -0.27174060986E+02  0.30052952112E+02  0.00000000000E+00 0. -1.
         13    1    5    5    0    0 -0.14028024220E+03 -0.86408579745E+02  0.65176926688E+02  0.17718075736E+03  0.00000000000E+00 0. -1.
        -14    1    5    5    0    0 -0.98633429441E+02 -0.31259427357E+02 -0.19652286771E+02  0.10531817306E+03  0.00000000000E+00 0.  1.
          5    1    4    4  501    0 -0.61101596551E+02 -0.33090050150E+02 -0.99945388257E+01  0.70325811238E+02  0.41800000000E+01 0.  1.
         -5    1    4    4    0  501 -0.26098594569E+02 -0.25908702248E-01 -0.15319529805E+03  0.15545870530E+03  0.41800000000E+01 0.  1.
</event>
<event>
11    1  0.8864208E-009  0.1518531E+03  0.7561462E-02  0.1095000E+00
         22   -1    0    0    0    0  0.00000000000E+00  0.00000000000E+00  0.33587196041E+03  0.33587196041E+03  0.00000000000E+00 0.  1.
         22   -1    0    0    0    0 -0.00000000000E+00 -0.00000000000E+00 -0.95720220246E+03  0.95720220246E+03  0.00000000000E+00 0. -1.
         24    2    1    2    0    0  0.58574825791E+02 -0.64705792809E+02 -0.90541795742E+03  0.91321468607E+03  0.81003304770E+02 0.  0.
         25    2    1    2    0    0 -0.62753883300E+02 -0.33025960880E+01  0.12006940712E+03  0.18442276315E+03  0.12508451557E+03 0.  0.
        -24    2    1    2    0    0  0.41790575086E+01  0.68008388897E+02  0.16401830826E+03  0.19543671364E+03  0.81553038652E+02 0.  0.
        -13    1    3    3    0    0  0.17756446590E+02  0.11342632812E+02 -0.63945957575E+02  0.67327796672E+02  0.00000000000E+00 0.  1.
         14    1    3    3    0    0  0.40818379201E+02 -0.76048425621E+02 -0.84147199985E+03  0.84588688940E+03  0.00000000000E+00 0. -1.
         13    1    5    5    0    0 -0.50442765265E+01  0.13052878103E+02 -0.69442081471E+01  0.15621919832E+02  0.00000000000E+00 0. -1.
        -14    1    5    5    0    0  0.92233340350E+01  0.54955510794E+02  0.17096251641E+03  0.17981479381E+03  0.00000000000E+00 0.  1.
          5    1    4    4  501    0 -0.58946983527E+02 -0.58801709275E+02  0.81624588572E+02  0.11667233494E+03  0.41800000000E+01 0. -1.
         -5    1    4    4    0  501 -0.38068997727E+01  0.55499113187E+02  0.38444818545E+02  0.67750428216E+02  0.41800000000E+01 0. -1.
</event>
<event>
11    1  0.8864208E-009  0.1725734E+03  0.7561462E-02  0.1075814E+00
         22   -1    0    0    0    0  0.00000000000E+00  0.00000000000E+00  0.36311913334E+03  0.36311913334E+03  0.00000000000E+00 0.  1.
         22   -1    0    0    0    0 -0.00000000000E+00 -0.00000000000E+00 -0.23741989331E+03  0.23741989331E+03  0.00000000000E+00 0. -1.
         24    2    1    2    0    0  0.25199941299E+02  0.30187572586E+02 -0.88787345999E+02  0.11468289998E+03  0.61013508003E+02 0.  0.
         25    2    1    2    0    0 -0.12091237756E+03 -0.91868523295E+02 -0.35266772516E+02  0.19987729809E+03  0.12509020917E+03 0.  0.
        -24    2    1    2    0    0  0.95712436258E+02  0.61680950709E+02  0.24975335854E+03  0.28597882858E+03  0.80260451997E+02 0.  0.
        -13    1    3    3    0    0 -0.20355983920E+02  0.10606992941E+02 -0.26171901382E+02  0.34811532608E+02  0.00000000000E+00 0.  1.
         14    1    3    3    0    0  0.45555925218E+02  0.19580579645E+02 -0.62615444617E+02  0.79871367375E+02  0.00000000000E+00 0. -1.
         13    1    5    5    0    0  0.28364657009E+02 -0.70971386408E+01  0.16339497635E+02  0.33494810450E+02  0.00000000000E+00 0. -1.
        -14    1    5    5    0    0  0.67347779249E+02  0.68778089349E+02  0.23341386091E+03  0.25248401813E+03  0.00000000000E+00 0.  1.
          5    1    4    4  501    0 -0.82554144232E+02 -0.52296746249E+02  0.40690140705E+02  0.10594006017E+03  0.41800000000E+01 0. -1.
         -5    1    4    4    0  501 -0.38358233324E+02 -0.39571777046E+02 -0.75956913221E+02  0.93937237922E+02  0.41800000000E+01 0. -1.
</event>
<event>
11    1  0.8864208E-009  0.1495642E+03  0.7561462E-02  0.1097325E+00
         22   -1    0    0    0    0  0.00000000000E+00  0.00000000000E+00  0.99143664681E+03  0.99143664681E+03  0.00000000000E+00 0.  1.
         22   -1    0    0    0    0 -0.00000000000E+00 -0.00000000000E+00 -0.10372167677E+03  0.10372167677E+03  0.00000000000E+00 0. -1.
         24    2    1    2    0    0  0.53747180192E+02 -0.15181823315E+02 -0.35522791608E+02  0.10568564606E+03  0.82391382570E+02 0.  0.
         25    2    1    2    0    0 -0.10369248708E+03  0.71908059911E+02  0.24670176133E+03  0.30402485532E+03  0.12508578117E+03 0.  0.
        -24    2    1    2    0    0  0.49945306884E+02 -0.56726236595E+02  0.67653600031E+03  0.68544782220E+03  0.80158328564E+02 0.  0.
        -13    1    3    3    0    0  0.46297689693E+01 -0.34119133222E+02  0.10251858437E+02  0.35925626146E+02  0.00000000000E+00 0.  1.
         14    1    3    3    0    0  0.49117411222E+02  0.18937309907E+02 -0.45774650045E+02  0.69760019914E+02  0.00000000000E+00 0. -1.
         11    1    5    5    0    0  0.30878556860E+02 -0.26053014913E+02  0.10101405402E+03  0.10879376806E+03  0.00000000000E+00 0. -1.
        -12    1    5    5    0    0  0.19066750023E+02 -0.30673221682E+02  0.57552194629E+03  0.57665405414E+03  0.00000000000E+00 0.  1.
          5    1    4    4  501    0 -0.53805442622E+00 -0.18128848751E+02 -0.33481154599E+01  0.18911026855E+02  0.41800000000E+01 0.  1.
         -5    1    4    4    0  501 -0.10315443265E+03  0.90036908661E+02  0.25004987679E+03  0.28511382846E+03  0.41800000000E+01 0.  1.
</event>
<event>
11    1  0.8864208E-009  0.1542149E+03  0.7561462E-02  0.1092648E+00
         22   -1    0    0    0    0  0.00000000000E+00  0.00000000000E+00  0.21526370820E+04  0.21526370820E+04  0.00000000000E+00 0. -1.
         22   -1    0    0    0    0 -0.00000000000E+00 -0.00000000000E+00 -0.22800637031E+03  0.22800637031E+03  0.00000000000E+00 0.  1.
        -24    2    1    2    0    0  0.90335566538E+02 -0.32259589082E+01 -0.19429800622E+03  0.22872654104E+03  0.79957450960E+02 0.  0.
         25    2    1    2    0    0 -0.84927329439E+02  0.23830851926E+02  0.36211062852E+03  0.39313092246E+03  0.12508898480E+03 0.  0.
         24    2    1    2    0    0 -0.54082370992E+01 -0.20604893018E+02  0.17568180894E+04  0.17587859888E+04  0.80402391553E+02 0.  0.
        -13    1    5    5    0    0 -0.26714025488E+01  0.31189833763E+02  0.65134056530E+03  0.65209238159E+03  0.00000000000E+00 0.  1.
         14    1    5    5    0    0 -0.27368345504E+01 -0.51794726781E+02  0.11054775241E+04  0.11066936072E+04  0.00000000000E+00 0. -1.
         11    1    3    3    0    0  0.48903398038E+02 -0.23549100174E+02 -0.39320004286E+02  0.67023616701E+02  0.00000000000E+00 0. -1.
        -12    1    3    3    0    0  0.41432168500E+02  0.20323141266E+02 -0.15497800193E+03  0.16170292434E+03  0.00000000000E+00 0.  1.
          5    1    4    4  501    0 -0.75696426659E+02 -0.36805199668E+02  0.14737862483E+03  0.16977191519E+03  0.41800000000E+01 0.  1.
         -5    1    4    4    0  501 -0.92309027799E+01  0.60636051594E+02  0.21473200369E+03  0.22335900727E+03  0.41800000000E+01 0.  1.
</event>
<event>
11    1  0.8864208E-009  0.2941172E+03  0.7561462E-02  0.1002712E+00
         22   -1    0    0    0    0  0.00000000000E+00  0.00000000000E+00  0.13830575485E+04  0.13830575485E+04  0.00000000000E+00 0.  1.
         22   -1    0    0    0    0 -0.00000000000E+00 -0.00000000000E+00 -0.91586228158E+03  0.91586228158E+03  0.00000000000E+00 0. -1.
        -24    2    1    2    0    0 -0.19123797568E+02  0.79590363006E+01 -0.65726207002E+03  0.66249380567E+03  0.80470789571E+02 0.  0.
         25    2    1    2    0    0  0.29152983780E+02 -0.27343550888E+03 -0.14573908291E+03  0.33541674637E+03  0.12509052512E+03 0.  0.
         24    2    1    2    0    0 -0.10029186212E+02  0.26547647258E+03  0.12701964198E+04  0.13010092780E+04  0.92993841021E+02 0.  0.
        -11    1    5    5    0    0  0.32551930927E+02  0.18859878818E+03  0.79130199291E+03  0.81411791228E+03  0.00000000000E+00 0.  1.
         12    1    5    5    0    0 -0.42581117139E+02  0.76877684405E+02  0.47889442693E+03  0.48689136575E+03  0.00000000000E+00 0. -1.
         11    1    3    3    0    0 -0.14428326893E+02  0.23346591903E+02 -0.63166403396E+03  0.63225998748E+03  0.00000000000E+00 0. -1.
        -12    1    3    3    0    0 -0.46954706749E+01 -0.15387555602E+02 -0.25598036058E+02  0.30233818189E+02  0.00000000000E+00 0.  1.
          5    1    4    4  501    0  0.26494172761E+02 -0.12420153264E+03 -0.42921452459E+00  0.12706541042E+03  0.41800000000E+01 0.  1.
         -5    1    4    4    0  501  0.26588110181E+01 -0.14923397624E+03 -0.14530986838E+03  0.20835133594E+03  0.41800000000E+01 0.  1.
</event>
<event>
11    1  0.8864208E-009  0.3715970E+03  0.7561462E-02  0.9737492E-01
         22   -1    0    0    0    0  0.00000000000E+00  0.00000000000E+00  0.25606569905E+04  0.25606569905E+04  0.00000000000E+00 0.  1.
         22   -1    0    0    0    0 -0.00000000000E+00 -0.00000000000E+00 -0.24252865538E+03  0.24252865538E+03  0.00000000000E+00 0. -1.
         24    2    1    2    0    0 -0.27292560342E+03 -0.20418394480E+03  0.54529785808E+02  0.35520539195E+03  0.83772934822E+02 0.  0.
         25    2    1    2    0    0  0.26161384982E+03  0.26331665321E+03  0.33129492558E+03  0.51300996898E+03  0.12508171043E+03 0.  0.
        -24    2    1    2    0    0  0.11311753609E+02 -0.59132708405E+02  0.19323036237E+04  0.19349702849E+04  0.81780660180E+02 0.  0.
        -11    1    3    3    0    0 -0.41562859356E+02 -0.67239894727E+02  0.32438437688E+02  0.85445461906E+02  0.00000000000E+00 0.  1.
         12    1    3    3    0    0 -0.23136274407E+03 -0.13694405007E+03  0.22091348120E+02  0.26975993004E+03  0.00000000000E+00 0. -1.
         13    1    5    5    0    0  0.17730007995E+02 -0.14604886402E+02  0.12415663784E+03  0.12626371851E+03  0.00000000000E+00 0. -1.
        -14    1    5    5    0    0 -0.64182543858E+01 -0.44527822003E+02  0.18081469859E+04  0.18087065664E+04  0.00000000000E+00 0.  1.
          5    1    4    4  501    0  0.19668697900E+02 -0.61208058764E+00 -0.61039034396E+01  0.21022900773E+02  0.41800000000E+01 0.  1.
         -5    1    4    4    0  501  0.24194515192E+03  0.26392873379E+03  0.33739882902E+03  0.49198706821E+03  0.41800000000E+01 0.  1.
</event>
<event>
11    1  0.8864208E-009  0.3022633E+03  0.7561462E-02  0.9992379E-01
         22   -1    0    0    0    0  0.00000000000E+00  0.00000000000E+00  0.56815954581E+03  0.56815954581E+03  0.00000000000E+00 0.  1.
         22   -1    0    0    0    0 -0.00000000000E+00 -0.00000000000E+00 -0.80506617164E+03  0.80506617164E+03  0.00000000000E+00 0.  1.
         24    2    1    2    0    0 -0.27094482273E+03  0.13983936129E+02 -0.67060758982E+03  0.72856723746E+03  0.86539196637E+02 0.  0.
         25    2    1    2    0    0  0.31341050415E+03 -0.57796820552E+02  0.21606839355E+03  0.40486078003E+03  0.12514025709E+03 0.  0.
        -24    2    1    2    0    0 -0.42465681421E+02  0.43812884423E+02  0.21763257044E+03  0.23979769996E+03  0.80100550863E+02 0.  0.
        -11    1    3    3    0    0 -0.23626584922E+03 -0.14451914311E+02 -0.59901573147E+03  0.64408870188E+03  0.00000000000E+00 0.  1.
         12    1    3    3    0    0 -0.34678973502E+02  0.28435850439E+02 -0.71591858340E+02  0.84478535582E+02  0.00000000000E+00 0. -1.
         13    1    5    5    0    0  0.70343135291E+01  0.77325933693E+01  0.14239632537E+03  0.14277950849E+03  0.00000000000E+00 0. -1.
        -14    1    5    5    0    0 -0.49499994950E+02  0.36080291054E+02  0.75236245072E+02  0.97018191465E+02  0.00000000000E+00 0.  1.
          5    1    4    4  501    0  0.23697686551E+02  0.24107804894E+02  0.51442747893E+02  0.61697611911E+02  0.41800000000E+01 0. -1.
         -5    1    4    4    0  501  0.28971281760E+03 -0.81904625446E+02  0.16462564565E+03  0.34316316812E+03  0.41800000000E+01 0. -1.
</event>
<event>
11    1  0.1146182E-008  0.1578511E+03  0.7561462E-02  0.1089116E+00
         22   -1    0    0    0    0  0.00000000000E+00  0.00000000000E+00  0.92042719689E+03  0.92042719689E+03  0.00000000000E+00 0.  1.
         22   -1    0    0    0    0 -0.00000000000E+00 -0.00000000000E+00 -0.30716536244E+03  0.30716536244E+03  0.00000000000E+00 0.  1.
        -24    2    1    2    0    0  0.71490988214E+02  0.55400342798E+02 -0.24796319472E+03  0.27605676900E+03  0.80879134477E+02 0.  0.
         25    2    1    2    0    0  0.33578319624E+02 -0.49698077749E+02  0.81911985516E+02  0.16110556548E+03  0.12509207559E+03 0.  0.
         24    2    1    2    0    0 -0.10506930784E+03 -0.57022650490E+01  0.77931304365E+03  0.79043022485E+03  0.79868924299E+02 0.  0.
        -11    1    5    5    0    0 -0.44374084213E+02 -0.17293075585E+01  0.58813942626E+03  0.58981355917E+03  0.00000000000E+00 0.  1.
         12    1    5    5    0    0 -0.60695223625E+02 -0.39729574905E+01  0.19117361739E+03  0.20061666568E+03  0.00000000000E+00 0. -1.
         11    1    3    3    0    0  0.63528995647E+02  0.11023118059E+02 -0.83336886541E+02  0.10536830206E+03  0.00000000000E+00 0. -1.
        -12    1    3    3    0    0  0.79619925670E+01  0.44377224739E+02 -0.16462630818E+03  0.17068846694E+03  0.00000000000E+00 0.  1.
          5    1    4    4  501    0  0.32388750561E+02 -0.77654854046E+02  0.97459849848E+02  0.12882236705E+03  0.41800000000E+01 0.  1.
         -5    1    4    4    0  501  0.11895690638E+01  0.27956776297E+02 -0.15547864332E+02  0.32283198429E+02  0.41800000000E+01 0.  1.
</event>
<event>
11    1  0.8864208E-009  0.2899174E+03  0.7561462E-02  0.1004551E+00
         22   -1    0    0    0    0  0.00000000000E+00  0.00000000000E+00  0.32186067061E+03  0.32186067061E+03  0.00000000000E+00 0.  1.
         22   -1    0    0    0    0 -0.00000000000E+00 -0.00000000000E+00 -0.15080418183E+04  0.15080418183E+04  0.00000000000E+00 0.  1.
        -24    2    1    2    0    0 -0.15324669260E+03  0.21389026737E+03 -0.13051649559E+04  0.13337202107E+04  0.78233259678E+02 0.  0.
         25    2    1    2    0    0  0.25994863286E+03 -0.10322081989E+03  0.10150984850E+03  0.32276882587E+03  0.12509051214E+03 0.  0.
         24    2    1    2    0    0 -0.10670194026E+03 -0.11066944749E+03  0.17473959727E+02  0.17341345238E+03  0.78318934713E+02 0.  0.
        -11    1    5    5    0    0 -0.13236516427E+02  0.12026373275E+02 -0.17966099429E+01  0.17974059879E+02  0.00000000000E+00 0.  1.
         12    1    5    5    0    0 -0.93465423836E+02 -0.12269582076E+03  0.19270569670E+02  0.15543939250E+03  0.00000000000E+00 0. -1.
         11    1    3    3    0    0 -0.12479552218E+03  0.20661486015E+03 -0.10798038853E+04  0.11064538190E+04  0.00000000000E+00 0. -1.
        -12    1    3    3    0    0 -0.28451170418E+02  0.72754072271E+01 -0.22536107064E+03  0.22726639173E+03  0.00000000000E+00 0.  1.
          5    1    4    4  501    0  0.49403496002E+02 -0.31010988610E+02  0.80019579746E+02  0.99111010360E+02  0.41800000000E+01 0.  1.
         -5    1    4    4    0  501  0.21054513686E+03 -0.72209831275E+02  0.21490268757E+02  0.22365781551E+03  0.41800000000E+01 0.  1.
</event>
<event>
11    1  0.8864208E-009  0.1585243E+03  0.7561462E-02  0.1088473E+00
         22   -1    0    0    0    0  0.00000000000E+00  0.00000000000E+00  0.34009142575E+03  0.34009142575E+03  0.00000000000E+00 0. -1.
         22   -1    0    0    0    0 -0.00000000000E+00 -0.00000000000E+00 -0.13536807579E+04  0.13536807579E+04  0.00000000000E+00 0.  1.
        -24    2    1    2    0    0 -0.62373727735E+01 -0.53793884861E+01 -0.10275825695E+04  0.10308414230E+04  0.81487788232E+02 0.  0.
         25    2    1    2    0    0 -0.81706353158E+02 -0.37159041913E+02 -0.29270949738E+03  0.33073084347E+03  0.12508924184E+03 0.  0.
         24    2    1    2    0    0  0.87943725932E+02  0.42538430400E+02  0.30670273474E+03  0.33219991715E+03  0.82137692136E+02 0.  0.
        -13    1    5    5    0    0  0.35864290226E+00 -0.20005385601E+02  0.48500986844E+02  0.52466082402E+02  0.00000000000E+00 0.  1.
         14    1    5    5    0    0  0.87585083030E+02  0.62543816001E+02  0.25820174790E+03  0.27973383475E+03  0.00000000000E+00 0. -1.
         13    1    3    3    0    0  0.34687310599E+02 -0.17830833685E+02 -0.51848359380E+03  0.51994844474E+03  0.00000000000E+00 0. -1.
        -14    1    3    3    0    0 -0.40924683373E+02  0.12451445199E+02 -0.50909897569E+03  0.51089297827E+03  0.00000000000E+00 0.  1.
          5    1    4    4  501    0 -0.32165779105E+02  0.46335223875E+02 -0.99170351616E+02  0.11416576263E+03  0.41800000000E+01 0.  1.
         -5    1    4    4    0  501 -0.49540574053E+02 -0.83494265788E+02 -0.19353914577E+03  0.21656508085E+03  0.41800000000E+01 0.  1.
</event>
<event>
11    1  0.8864208E-009  0.1643812E+03  0.7561462E-02  0.1083028E+00
         22   -1    0    0    0    0  0.00000000000E+00  0.00000000000E+00  0.83374334144E+02  0.83374334144E+02  0.00000000000E+00 0. -1.
         22   -1    0    0    0    0 -0.00000000000E+00 -0.00000000000E+00 -0.19096973263E+04  0.19096973263E+04  0.00000000000E+00 0. -1.
        -24    2    1    2    0    0  0.10046843820E+03 -0.34581051452E+02 -0.13486927073E+04  0.13552353185E+04  0.80006209007E+02 0.  0.
         25    2    1    2    0    0 -0.12329781707E+03 -0.39457657315E+02 -0.49365800253E+03  0.52545706696E+03  0.12509055656E+03 0.  0.
         24    2    1    2    0    0  0.22829378862E+02  0.74038708768E+02  0.16027717738E+02  0.11237927496E+03  0.79807911700E+02 0.  0.
        -11    1    5    5    0    0  0.46155425003E+02  0.16469902349E+02  0.95459927792E+01  0.49927015920E+02  0.00000000000E+00 0.  1.
         12    1    5    5    0    0 -0.23326046141E+02  0.57568806418E+02  0.64817249591E+01  0.62452259042E+02  0.00000000000E+00 0. -1.
         13    1    3    3    0    0  0.54407974817E+02  0.22063631124E+00 -0.10244264833E+04  0.10258703115E+04  0.00000000000E+00 0. -1.
        -14    1    3    3    0    0  0.46060463387E+02 -0.34801687764E+02 -0.32426622404E+03  0.32936500696E+03  0.00000000000E+00 0.  1.
          5    1    4    4  501    0  0.51669782670E+01  0.32754108057E+01  0.48628570662E+01  0.88626045384E+01  0.41800000000E+01 0. -1.
         -5    1    4    4    0  501 -0.12846479533E+03 -0.42733068121E+02 -0.49852085959E+03  0.51659446242E+03  0.41800000000E+01 0. -1.
</event>
<event>
11    1  0.8864208E-009  0.1403335E+03  0.7561462E-02  0.1107187E+00
         22   -1    0    0    0    0  0.00000000000E+00  0.00000000000E+00  0.12223023132E+03  0.12223023132E+03  0.00000000000E+00 0.  1.
         22   -1    0    0    0    0 -0.00000000000E+00 -0.00000000000E+00 -0.75525454066E+03  0.75525454066E+03  0.00000000000E+00 0.  1.
         24    2    1    2    0    0  0.15676600285E+02 -0.59256589366E+02 -0.60614652288E+03  0.61432823472E+03  0.78920679098E+02 0.  0.
         25    2    1    2    0    0 -0.92043469051E+01  0.93998960113E+02 -0.64192577829E+02  0.16937702827E+03  0.12508943262E+03 0.  0.
        -24    2    1    2    0    0 -0.64722533802E+01 -0.34742370746E+02  0.37314791375E+02  0.93779508988E+02  0.78442847104E+02 0.  0.
        -11    1    3    3    0    0  0.10669770709E+02 -0.38580900366E+02 -0.57623301268E+03  0.57762168829E+03  0.00000000000E+00 0.  1.
         12    1    3    3    0    0  0.50068295763E+01 -0.20675689000E+02 -0.29913510200E+02  0.36706546426E+02  0.00000000000E+00 0. -1.
         13    1    5    5    0    0  0.63707245862E+00  0.20427021956E+02 -0.80856873549E+01  0.21978339958E+02  0.00000000000E+00 0. -1.
        -14    1    5    5    0    0 -0.71093258388E+01 -0.55169392703E+02  0.45400478730E+02  0.71801169029E+02  0.00000000000E+00 0.  1.
          5    1    4    4  501    0  0.49876819450E+02  0.47226932508E+02 -0.63897738820E+02  0.93906728720E+02  0.41800000000E+01 0. -1.
         -5    1    4    4    0  501 -0.59081166355E+02  0.46772027604E+02 -0.29483900859E+00  0.75470299550E+02  0.41800000000E+01 0. -1.
</event>
<event>
11    1  0.8864208E-009  0.1677814E+03  0.7561462E-02  0.1079979E+00
         22   -1    0    0    0    0  0.00000000000E+00  0.00000000000E+00  0.81613475552E+03  0.81613475552E+03  0.00000000000E+00 0.  1.
         22   -1    0    0    0    0 -0.00000000000E+00 -0.00000000000E+00 -0.51100111840E+03  0.51100111840E+03  0.00000000000E+00 0.  1.
        -24    2    1    2    0    0 -0.13717781412E+02 -0.58119637650E+02 -0.46474764724E+03  0.47612573613E+03  0.84494207986E+02 0.  0.
         25    2    1    2    0    0 -0.95620968058E+02  0.12908330050E+02  0.15999439394E+03  0.22487738333E+03  0.12514646189E+03 0.  0.
         24    2    1    2    0    0  0.10933874947E+03  0.45211307601E+02  0.60988689042E+03  0.62613275445E+03  0.77981937768E+02 0.  0.
        -13    1    5    5    0    0  0.35553108080E+01 -0.16716725507E+02  0.11651597922E+03  0.11776273842E+03  0.00000000000E+00 0.  1.
         14    1    5    5    0    0  0.10578343866E+03  0.61928033107E+02  0.49337091120E+03  0.50837001603E+03  0.00000000000E+00 0. -1.
         13    1    3    3    0    0 -0.12506391494E+02 -0.78437224254E+01 -0.35607265584E+03  0.35637854880E+03  0.00000000000E+00 0. -1.
        -14    1    3    3    0    0 -0.12113899176E+01 -0.50275915225E+02 -0.10867499141E+03  0.11974718733E+03  0.00000000000E+00 0.  1.
          5    1    4    4  501    0  0.24787434107E+02 -0.15282658266E+02  0.55947836707E+02  0.63210832659E+02  0.41800000000E+01 0. -1.
         -5    1    4    4    0  501 -0.12040840217E+03  0.28190988316E+02  0.10404655724E+03  0.16166655068E+03  0.41800000000E+01 0. -1.
</event>
<event>
11    1  0.8864208E-009  0.1943193E+03  0.7561462E-02  0.1058615E+00
         22   -1    0    0    0    0  0.00000000000E+00  0.00000000000E+00  0.19666578224E+04  0.19666578224E+04  0.00000000000E+00 0. -1.
         22   -1    0    0    0    0 -0.00000000000E+00 -0.00000000000E+00 -0.34196664998E+03  0.34196664998E+03  0.00000000000E+00 0. -1.
        -24    2    1    2    0    0 -0.13674917618E+03  0.63012811063E+02 -0.29191892505E+03  0.33842416022E+03  0.81506452945E+02 0.  0.
         25    2    1    2    0    0  0.56310142460E+02 -0.14627773701E+03  0.40388860179E+03  0.45093351919E+03  0.12508807930E+03 0.  0.
         24    2    1    2    0    0  0.80439033725E+02  0.83264925948E+02  0.15127214957E+04  0.15192667930E+04  0.80260692313E+02 0.  0.
        -13    1    5    5    0    0 -0.66835844671E+01  0.27371328100E+02  0.15025037139E+03  0.15286933638E+03  0.00000000000E+00 0.  1.
         14    1    5    5    0    0  0.87122618192E+02  0.55893597848E+02  0.13624711243E+04  0.13663974566E+04  0.00000000000E+00 0. -1.
         11    1    3    3    0    0 -0.13497047804E+03  0.66634961157E+02 -0.29637745563E+03  0.33241065596E+03  0.00000000000E+00 0. -1.
        -12    1    3    3    0    0 -0.17786981450E+01 -0.36221500942E+01  0.44585305862E+01  0.60135042516E+01  0.00000000000E+00 0.  1.
          5    1    4    4  501    0  0.60640602225E+02 -0.59585835722E+02  0.31628886808E+03  0.32754217274E+03  0.41800000000E+01 0.  1.
         -5    1    4    4    0  501 -0.43304597655E+01 -0.86691901288E+02  0.87599733715E+02  0.12339134645E+03  0.41800000000E+01 0.  1.
</event>
<event>
11    1  0.8864208E-009  0.1430009E+03  0.7561462E-02  0.1104253E+00
         22   -1    0    0    0    0  0.00000000000E+00  0.00000000000E+00  0.56715181023E+03  0.56715181023E+03  0.00000000000E+00 0.  1.
         22   -1    0    0    0    0 -0.00000000000E+00 -0.00000000000E+00 -0.86814456686E+03  0.86814456686E+03  0.00000000000E+00 0.  1.
        -24    2    1    2    0    0  0.39185926894E+02 -0.36360732276E+02 -0.77850273330E+03  0.78416487262E+03  0.77397687134E+02 0.  0.
         25    2    1    2    0    0  0.57580503045E+01  0.88807287313E+02 -0.88996780637E+01  0.15377913961E+03  0.12509568372E+03 0.  0.
         24    2    1    2    0    0 -0.44943977198E+02 -0.52446555037E+02  0.48640965474E+03  0.49735236486E+03  0.77423642349E+02 0.  0.
        -13    1    5    5    0    0 -0.55701813981E+02 -0.64727480771E+02  0.43848736961E+03  0.44672532070E+03  0.00000000000E+00 0.  1.
         14    1    5    5    0    0  0.10757836782E+02  0.12280925734E+02  0.47922285130E+02  0.50627044168E+02  0.00000000000E+00 0. -1.
         11    1    3    3    0    0 -0.69019799489E+01 -0.45137561810E+02 -0.31474118677E+03  0.31803624237E+03  0.00000000000E+00 0. -1.
        -12    1    3    3    0    0  0.46087906843E+02  0.87768295344E+01 -0.46376154653E+03  0.46612863025E+03  0.00000000000E+00 0.  1.
          5    1    4    4  501    0 -0.30419612458E+02  0.72723241892E+02  0.41794098682E+02  0.89321004350E+02  0.41800000000E+01 0.  1.
         -5    1    4    4    0  501  0.36177662762E+02  0.16084045420E+02 -0.50693776746E+02  0.64458135257E+02  0.41800000000E+01 0.  1.
</event>
<event>
11    1  0.8864208E-009  0.1712892E+03  0.7561462E-02  0.1076915E+00
         22   -1    0    0    0    0  0.00000000000E+00  0.00000000000E+00  0.36875221710E+03  0.36875221710E+03  0.00000000000E+00 0. -1.
         22   -1    0    0    0    0 -0.00000000000E+00 -0.00000000000E+00 -0.29601041674E+03  0.29601041674E+03  0.00000000000E+00 0.  1.
         24    2    1    2    0    0  0.57536671762E+02 -0.19995368044E+02 -0.19113990906E+03  0.21565511007E+03  0.79135190159E+02 0.  0.
         25    2    1    2    0    0 -0.12104064730E+03 -0.73387893205E+02  0.50003606482E+02  0.19540748993E+03  0.12508838991E+03 0.  0.
        -24    2    1    2    0    0  0.63503975541E+02  0.93383261250E+02  0.21387810294E+03  0.25370003385E+03  0.76594228691E+02 0.  0.
        -13    1    3    3    0    0  0.31498188517E+02 -0.19441732909E+00 -0.17739980988E+03  0.18017454378E+03  0.00000000000E+00 0.  1.
         14    1    3    3    0    0  0.26038483245E+02 -0.19800950715E+02 -0.13740099176E+02  0.35480566291E+02  0.00000000000E+00 0. -1.
         13    1    5    5    0    0  0.58840504784E+02  0.26210325844E+02  0.71711080749E+02  0.96393284446E+02  0.00000000000E+00 0. -1.
        -14    1    5    5    0    0  0.46634707572E+01  0.67172935406E+02  0.14216702219E+03  0.15730674940E+03  0.00000000000E+00 0.  1.
          5    1    4    4  501    0 -0.57925499070E+02  0.23230014421E+02 -0.12957269306E+02  0.63877697520E+02  0.41800000000E+01 0.  1.
         -5    1    4    4    0  501 -0.63115148233E+02 -0.96617907627E+02  0.62960875787E+02  0.13152979241E+03  0.41800000000E+01 0.  1.
</event>
<event>
11    1  0.8864208E-009  0.1468712E+03  0.7561462E-02  0.1100119E+00
         22   -1    0    0    0    0  0.00000000000E+00  0.00000000000E+00  0.14103825463E+04  0.14103825463E+04  0.00000000000E+00 0.  1.
         22   -1    0    0    0    0 -0.00000000000E+00 -0.00000000000E+00 -0.11923727452E+03  0.11923727452E+03  0.00000000000E+00 0. -1.
        -24    2    1    2    0    0 -0.38636989466E+02 -0.47827001141E+02 -0.59619288538E+02  0.11930643410E+03  0.83062185489E+02 0.  0.
         25    2    1    2    0    0  0.54957053609E+01  0.11457370504E+03  0.23883696069E+03  0.29298506665E+03  0.12505926125E+03 0.  0.
         24    2    1    2    0    0  0.33141284105E+02 -0.66746703895E+02  0.11119275996E+04  0.11173283201E+04  0.80536456415E+02 0.  0.
        -13    1    5    5    0    0  0.88608581177E+01 -0.77601252873E+02  0.95255109431E+03  0.95574790427E+03  0.00000000000E+00 0.  1.
         14    1    5    5    0    0  0.24280425987E+02  0.10854548978E+02  0.15937650532E+03  0.16158041579E+03  0.00000000000E+00 0. -1.
         13    1    3    3    0    0 -0.15135139237E+02 -0.11201128990E+01 -0.64995948635E+02  0.66744291378E+02  0.00000000000E+00 0. -1.
        -14    1    3    3    0    0 -0.23501850229E+02 -0.46706888242E+02  0.53766600970E+01  0.52562142719E+02  0.00000000000E+00 0.  1.
          5    1    4    4  501    0 -0.17039201247E+02  0.12536519749E+03  0.13082588039E+03  0.18204299081E+03  0.41800000000E+01 0. -1.
         -5    1    4    4    0  501  0.22534906608E+02 -0.10791492456E+02  0.10801108029E+03  0.11094207584E+03  0.41800000000E+01 0. -1.
</event>
<event>
11    1  0.8864208E-009  0.1821962E+03  0.7561462E-02  0.1067880E+00
         22   -1    0    0    0    0  0.00000000000E+00  0.00000000000E+00  0.15982801188E+03  0.15982801188E+03  0.00000000000E+00 0.  1.
         22   -1    0    0    0    0 -0.00000000000E+00 -0.00000000000E+00 -0.20488564736E+04  0.20488564736E+04  0.00000000000E+00 0. -1.
         24    2    1    2    0    0 -0.11973751827E+03  0.99965801498E+02 -0.15251982811E+04  0.15352334145E+04  0.79884952382E+02 0.  0.
         25    2    1    2    0    0  0.96632312432E+02  0.12652404377E+02 -0.47041945042E+03  0.49642940031E+03  0.12509917275E+03 0.  0.
        -24    2    1    2    0    0  0.23105205835E+02 -0.11261820587E+03  0.10658926979E+03  0.17702167066E+03  0.82211243876E+02 0.  0.
        -11    1    3    3    0    0 -0.27238568630E+02  0.60899148061E+02 -0.84946265175E+03  0.85207830777E+03  0.00000000000E+00 0.  1.
         12    1    3    3    0    0 -0.92498949638E+02  0.39066653437E+02 -0.67573562933E+03  0.68315510673E+03  0.00000000000E+00 0. -1.
         13    1    5    5    0    0  0.95792712147E+01 -0.11438173886E+03  0.62133218917E+02  0.13052004257E+03  0.00000000000E+00 0. -1.
        -14    1    5    5    0    0  0.13525934621E+02  0.17635329807E+01  0.44456050872E+02  0.46501628090E+02  0.00000000000E+00 0.  1.
          5    1    4    4  501    0  0.71011687664E+02 -0.51546102107E+02 -0.22888627760E+03  0.24516537460E+03  0.41800000000E+01 0.  1.
         -5    1    4    4    0  501  0.25620624769E+02  0.64198506483E+02 -0.24153317282E+03  0.25126402572E+03  0.41800000000E+01 0.  1.
</event>
<event>
11    1  0.8864208E-009  0.1907257E+03  0.7561462E-02  0.1061283E+00
         22   -1    0    0    0    0  0.00000000000E+00  0.00000000000E+00  0.25269317105E+03  0.25269317105E+03  0.00000000000E+00 0. -1.
         22   -1    0    0    0    0 -0.00000000000E+00 -0.00000000000E+00 -0.19162711943E+04  0.19162711943E+04  0.00000000000E+00 0.  1.
         24    2    1    2    0    0  0.86925910223E+02  0.11175463885E+03 -0.15349350138E+04  0.15435840216E+04  0.81122881320E+02 0.  0.
         25    2    1    2    0    0 -0.11325684697E+03 -0.11373613299E+03 -0.34033020899E+03  0.39653090894E+03  0.12509631996E+03 0.  0.
        -24    2    1    2    0    0  0.26330936743E+02  0.19814941401E+01  0.21168719960E+03  0.22884943478E+03  0.82845330433E+02 0.  0.
        -11    1    3    3    0    0  0.91431981429E+02  0.10173509537E+03 -0.15117748299E+04  0.15179502538E+04  0.00000000000E+00 0.  1.
         12    1    3    3    0    0 -0.45060712054E+01  0.10019543476E+02 -0.23160183976E+02  0.25633767787E+02  0.00000000000E+00 0. -1.
         13    1    5    5    0    0  0.25322874171E+02  0.23126911347E+02  0.20314845304E+03  0.20602280446E+03  0.00000000000E+00 0. -1.
        -14    1    5    5    0    0  0.10080625719E+01 -0.21145417207E+02  0.85387465663E+01  0.22826630324E+02  0.00000000000E+00 0.  1.
          5    1    4    4  501    0 -0.18094471834E+02  0.10280948048E+02  0.82588001239E+00  0.21242934862E+02  0.41800000000E+01 0. -1.
         -5    1    4    4    0  501 -0.95162375132E+02 -0.12401708104E+03 -0.34115608900E+03  0.37528797408E+03  0.41800000000E+01 0. -1.
</event>
<event>
11    1  0.8864208E-009  0.1404097E+03  0.7561462E-02  0.1107102E+00
         22   -1    0    0    0    0  0.00000000000E+00  0.00000000000E+00  0.12670736491E+04  0.12670736491E+04  0.00000000000E+00 0. -1.
         22   -1    0    0    0    0 -0.00000000000E+00 -0.00000000000E+00 -0.84298719343E+02  0.84298719343E+02  0.00000000000E+00 0. -1.
        -24    2    1    2    0    0  0.17538936973E+02  0.17369343863E+02 -0.37504835611E+02  0.91003963061E+02  0.79156807554E+02 0.  0.
         25    2    1    2    0    0 -0.12716621459E+02 -0.78743287197E+02  0.30035351520E+03  0.33499452155E+03  0.12508747995E+03 0.  0.
         24    2    1    2    0    0 -0.48223155147E+01  0.61373943334E+02  0.91992625020E+03  0.92537388386E+03  0.79135980862E+02 0.  0.
        -13    1    5    5    0    0  0.26179271487E+02  0.20704083947E+02  0.14628706072E+03  0.15004638443E+03  0.00000000000E+00 0.  1.
         14    1    5    5    0    0 -0.31001587001E+02  0.40669859387E+02  0.77363918949E+03  0.77532749943E+03  0.00000000000E+00 0. -1.
         13    1    3    3    0    0  0.34586552564E+02  0.97761787246E+01 -0.54816391391E+02  0.65548760887E+02  0.00000000000E+00 0. -1.
        -14    1    3    3    0    0 -0.17047615591E+02  0.75931651387E+01  0.17311555780E+02  0.25455202173E+02  0.00000000000E+00 0.  1.
          5    1    4    4  501    0 -0.42304830179E+02  0.18561485567E+02  0.86541483612E+02  0.98189246808E+02  0.41800000000E+01 0.  1.
         -5    1    4    4    0  501  0.29588208721E+02 -0.97304772764E+02  0.21381203158E+03  0.23680527475E+03  0.41800000000E+01 0.  1.
</event>
<event>
11    1  0.8864208E-009  0.1407305E+03  0.7561462E-02  0.1106745E+00
         22   -1    0    0    0    0  0.00000000000E+00  0.00000000000E+00  0.31641934825E+04  0.31641934825E+04  0.00000000000E+00 0. -1.
         22   -1    0    0    0    0 -0.00000000000E+00 -0.00000000000E+00 -0.64499018249E+03  0.64499018249E+03  0.00000000000E+00 0.  1.
         24    2    1    2    0    0  0.60793015141E+02 -0.16984560971E+02 -0.58217807936E+03  0.59101316700E+03  0.79881045783E+02 0.  0.
         25    2    1    2    0    0 -0.10245678536E+03  0.17815360084E+01  0.55643661041E+02  0.17100919353E+03  0.12508941011E+03 0.  0.
        -24    2    1    2    0    0  0.41663770218E+02  0.15203024962E+02  0.30457377183E+04  0.30471613044E+04  0.81894839527E+02 0.  0.
        -11    1    3    3    0    0  0.12086317024E+02  0.10947986817E+02 -0.40106501853E+03  0.40139642072E+03  0.00000000000E+00 0.  1.
         12    1    3    3    0    0  0.48706698117E+02 -0.27932547788E+02 -0.18111306083E+03  0.18961674628E+03  0.00000000000E+00 0. -1.
         13    1    5    5    0    0  0.44690474785E+02  0.16295588677E+02  0.30413402638E+04  0.30417122456E+04  0.00000000000E+00 0. -1.
        -14    1    5    5    0    0 -0.30267045668E+01 -0.10925637146E+01  0.43974544832E+01  0.54490588120E+01  0.00000000000E+00 0.  1.
          5    1    4    4  501    0 -0.48957796318E+02  0.15207922206E+01 -0.38637413239E+02  0.62526000441E+02  0.41800000000E+01 0.  1.
         -5    1    4    4    0  501 -0.53498989041E+02  0.26074378781E+00  0.94281074281E+02  0.10848319309E+03  0.41800000000E+01 0.  1.
</event>
<event>
11    1  0.8864208E-009  0.1963439E+03  0.7561462E-02  0.1057140E+00
         22   -1    0    0    0    0  0.00000000000E+00  0.00000000000E+00  0.23313637802E+04  0.23313637802E+04  0.00000000000E+00 0.  1.
         22   -1    0    0    0    0 -0.00000000000E+00 -0.00000000000E+00 -0.40783374358E+03  0.40783374358E+03  0.00000000000E+00 0. -1.
         24    2    1    2    0    0  0.12240874612E+03  0.88050451730E+02 -0.36129172513E+03  0.40020189095E+03  0.83024452434E+02 0.  0.
         25    2    1    2    0    0 -0.16306928869E+03 -0.52850001952E+02  0.41139705495E+03  0.46290509554E+03  0.12509546369E+03 0.  0.
        -24    2    1    2    0    0  0.40660542573E+02 -0.35200449778E+02  0.18734247068E+04  0.18760905373E+04  0.84280606556E+02 0.  0.
        -11    1    3    3    0    0  0.90426044030E+02  0.51745103767E+02 -0.14489924394E+03  0.17846628840E+03  0.00000000000E+00 0.  1.
         12    1    3    3    0    0  0.31982702092E+02  0.36305347963E+02 -0.21639248119E+03  0.22173560255E+03  0.00000000000E+00 0. -1.
         11    1    5    5    0    0  0.48729596516E+01  0.14008859945E+01  0.55608818315E+01  0.75253985994E+01  0.00000000000E+00 0. -1.
        -12    1    5    5    0    0  0.35787582921E+02 -0.36601335773E+02  0.18678638250E+04  0.18685651387E+04  0.00000000000E+00 0.  1.
          5    1    4    4  501    0 -0.16910363129E+03 -0.27906032606E+02  0.39864004670E+03  0.43394255841E+03  0.41800000000E+01 0.  1.
         -5    1    4    4    0  501  0.60343425988E+01 -0.24943969346E+02  0.12757008255E+02  0.28962537129E+02  0.41800000000E+01 0.  1.
</event>
<event>
11    1  0.8864208E-009  0.1632073E+03  0.7561462E-02  0.1084099E+00
         22   -1    0    0    0    0  0.00000000000E+00  0.00000000000E+00  0.48582280554E+03  0.48582280554E+03  0.00000000000E+00 0.  1.
         22   -1    0    0    0    0 -0.00000000000E+00 -0.00000000000E+00 -0.54591347278E+03  0.54591347278E+03  0.00000000000E+00 0.  1.
        -24    2    1    2    0    0 -0.50985954835E+02 -0.88720911119E+02 -0.42020769106E+03  0.43976410009E+03  0.79668013952E+02 0.  0.
         25    2    1    2    0    0  0.60742831994E+02  0.10620545174E+03 -0.43540378332E+02  0.18031043182E+03  0.12508716025E+03 0.  0.
         24    2    1    2    0    0 -0.97568771589E+01 -0.17484540619E+02  0.40365740215E+03  0.41166174641E+03  0.78263588847E+02 0.  0.
        -11    1    5    5    0    0 -0.37356590495E+02 -0.63675785346E+01  0.33078873145E+03  0.33295231756E+03  0.00000000000E+00 0.  1.
         12    1    5    5    0    0  0.27599713337E+02 -0.11116962084E+02  0.72868670696E+02  0.78709428858E+02  0.00000000000E+00 0. -1.
         13    1    3    3    0    0  0.97432750460E+01  0.28546646980E+01 -0.73503190943E+01  0.12534261444E+02  0.00000000000E+00 0. -1.
        -14    1    3    3    0    0 -0.60729229881E+02 -0.91575575817E+02 -0.41285737196E+03  0.42722983865E+03  0.00000000000E+00 0.  1.
          5    1    4    4  501    0 -0.18616973608E+02  0.33729969268E+02  0.30852297541E+02  0.49534222480E+02  0.41800000000E+01 0. -1.
         -5    1    4    4    0  501  0.79359805603E+02  0.72475482471E+02 -0.74392675873E+02  0.13077620934E+03  0.41800000000E+01 0. -1.
</event>
<event>
11    1  0.8864208E-009  0.2684120E+03  0.7561462E-02  0.1014524E+00
         22   -1    0    0    0    0  0.00000000000E+00  0.00000000000E+00  0.13847573205E+04  0.13847573205E+04  0.00000000000E+00 0. -1.
         22   -1    0    0    0    0 -0.00000000000E+00 -0.00000000000E+00 -0.20016059013E+03  0.20016059013E+03  0.00000000000E+00 0. -1.
        -24    2    1    2    0    0 -0.58668420212E+01  0.23436863374E+02 -0.55332965896E+02  0.99901755435E+02  0.79592193236E+02 0.  0.
         25    2    1    2    0    0 -0.95805997231E+02  0.19397985352E+03  0.33445719502E+02  0.25215409977E+03  0.12512434297E+03 0.  0.
         24    2    1    2    0    0  0.10167283925E+03 -0.21741671689E+03  0.12064839768E+04  0.12328620555E+04  0.82084508236E+02 0.  0.
        -13    1    5    5    0    0  0.46473555055E+02 -0.27642413690E+02  0.20153508490E+03  0.20866308921E+03  0.00000000000E+00 0.  1.
         14    1    5    5    0    0  0.55199284197E+02 -0.18977430320E+03  0.10049488919E+04  0.10241989662E+04  0.00000000000E+00 0. -1.
         13    1    3    3    0    0 -0.14537962083E+02 -0.16391263416E+02 -0.54930457367E+02  0.59138659137E+02  0.00000000000E+00 0. -1.
        -14    1    3    3    0    0  0.86711200620E+01  0.39828126790E+02 -0.40250852826E+00  0.40763096299E+02  0.00000000000E+00 0.  1.
          5    1    4    4  501    0 -0.79135812720E+02  0.35324092373E+02 -0.84195089387E+01  0.87170114647E+02  0.41800000000E+01 0. -1.
         -5    1    4    4    0  501 -0.16670184511E+02  0.15865576114E+03  0.41865228440E+02  0.16498398513E+03  0.41800000000E+01 0. -1.
</event>
<event>
11    1  0.8864208E-009  0.1409035E+03  0.7561462E-02  0.1106554E+00
         22   -1    0    0    0    0  0.00000000000E+00  0.00000000000E+00  0.82279382284E+03  0.82279382284E+03  0.00000000000E+00 0.  1.
         22   -1    0    0    0    0 -0.00000000000E+00 -0.00000000000E+00 -0.89309843425E+03  0.89309843425E+03  0.00000000000E+00 0. -1.
         24    2    1    2    0    0  0.59165348709E+02  0.21878805647E+02 -0.76721013924E+03  0.77383727554E+03  0.78952584705E+02 0.  0.
         25    2    1    2    0    0 -0.82315284732E+02 -0.41892144914E+02 -0.69891476725E+02  0.17047906897E+03  0.12509011364E+03 0.  0.
        -24    2    1    2    0    0  0.23149936023E+02  0.20013339267E+02  0.76679700456E+03  0.77157591259E+03  0.80095501807E+02 0.  0.
        -13    1    3    3    0    0  0.38303758987E+02 -0.27006265542E+02 -0.41527859316E+03  0.41791485528E+03  0.00000000000E+00 0.  1.
         14    1    3    3    0    0  0.20861589722E+02  0.48885071188E+02 -0.35193154609E+03  0.35592242026E+03  0.00000000000E+00 0. -1.
         13    1    5    5    0    0 -0.20294784153E+02 -0.18616233249E+02  0.26098458576E+03  0.26243360381E+03  0.00000000000E+00 0. -1.
        -14    1    5    5    0    0  0.43444720176E+02  0.38629572516E+02  0.50581241879E+03  0.50914230878E+03  0.00000000000E+00 0.  1.
          5    1    4    4  501    0 -0.44726808435E+02 -0.82241108917E+02 -0.66815571636E+02  0.11509074855E+03  0.41800000000E+01 0.  1.
         -5    1    4    4    0  501 -0.37588476297E+02  0.40348964002E+02 -0.30759050888E+01  0.55388320416E+02  0.41800000000E+01 0.  1.
</event>
<event>
11    1  0.8864208E-009  0.1858073E+03  0.7561462E-02  0.1065040E+00
         22   -1    0    0    0    0  0.00000000000E+00  0.00000000000E+00  0.46403811115E+03  0.46403811115E+03  0.00000000000E+00 0.  1.
         22   -1    0    0    0    0 -0.00000000000E+00 -0.00000000000E+00 -0.11351743300E+04  0.11351743300E+04  0.00000000000E+00 0. -1.
        -24    2    1    2    0    0  0.21109154778E+02  0.37715935251E+02 -0.97537435825E+03  0.97952958949E+03  0.79088493220E+02 0.  0.
         25    2    1    2    0    0 -0.12948404572E+03 -0.11552874388E+03 -0.61040082934E+02  0.22245501192E+03  0.12508929548E+03 0.  0.
         24    2    1    2    0    0  0.10837489094E+03  0.77812808627E+02  0.36527822234E+03  0.39722783975E+03  0.81005103441E+02 0.  0.
        -11    1    5    5    0    0  0.54612294724E+02  0.66120233933E+01  0.21972473469E+03  0.22650646927E+03  0.00000000000E+00 0.  1.
         12    1    5    5    0    0  0.53762596219E+02  0.71200785234E+02  0.14555348764E+03  0.17072137047E+03  0.00000000000E+00 0. -1.
         13    1    3    3    0    0  0.35242913459E+01  0.28183467680E+02 -0.92343605434E+03  0.92387275906E+03  0.00000000000E+00 0. -1.
        -14    1    3    3    0    0  0.17584863432E+02  0.95324675712E+01 -0.51938303910E+02  0.55656830425E+02  0.00000000000E+00 0.  1.
          5    1    4    4  501    0 -0.14393142152E+03 -0.61679434268E+02 -0.55848427559E+02  0.16630431736E+03  0.41800000000E+01 0.  1.
         -5    1    4    4    0  501  0.14447375803E+02 -0.53849309610E+02 -0.51916553750E+01  0.56150694552E+02  0.41800000000E+01 0.  1.
</event>
<event>
11    1  0.8864208E-009  0.1580403E+03  0.7561462E-02  0.1088935E+00
         22   -1    0    0    0    0  0.00000000000E+00  0.00000000000E+00  0.22329813942E+03  0.22329813942E+03  0.00000000000E+00 0.  1.
         22   -1    0    0    0    0 -0.00000000000E+00 -0.00000000000E+00 -0.52645027706E+03  0.52645027706E+03  0.00000000000E+00 0.  1.
         24    2    1    2    0    0  0.13156133882E+02 -0.18335960979E+02 -0.37021720225E+03  0.37936376618E+03  0.79666799389E+02 0.  0.
         25    2    1    2    0    0 -0.13176147676E+02 -0.81047934308E+02 -0.84753058421E+02  0.17196760326E+03  0.12508955647E+03 0.  0.
        -24    2    1    2    0    0  0.20013794201E-01  0.99383895286E+02  0.15181812303E+03  0.19841704703E+03  0.80270935150E+02 0.  0.
        -11    1    3    3    0    0 -0.32886620275E+02 -0.53025897863E+01 -0.19020697265E+03  0.19310188941E+03  0.00000000000E+00 0.  1.
         12    1    3    3    0    0  0.46042754157E+02 -0.13033371192E+02 -0.18001022961E+03  0.18626187677E+03  0.00000000000E+00 0. -1.
         13    1    5    5    0    0  0.15647294004E+02  0.27300631010E+02  0.21242607228E+01  0.31538464560E+02  0.00000000000E+00 0. -1.
        -14    1    5    5    0    0 -0.15627280210E+02  0.72083264277E+02  0.14969386231E+03  0.16687858247E+03  0.00000000000E+00 0.  1.
          5    1    4    4  501    0  0.25523439286E+02  0.15737898769E+02 -0.56158955090E+02  0.63799906328E+02  0.41800000000E+01 0.  1.
         -5    1    4    4    0  501 -0.38699586962E+02 -0.96785833077E+02 -0.28594103332E+02  0.10816769694E+03  0.41800000000E+01 0.  1.
</event>
<event>
11    1  0.8864208E-009  0.1705132E+03  0.7561462E-02  0.1077586E+00
         22   -1    0    0    0    0  0.00000000000E+00  0.00000000000E+00  0.55344596268E+03  0.55344596268E+03  0.00000000000E+00 0.  1.
         22   -1    0    0    0    0 -0.00000000000E+00 -0.00000000000E+00 -0.36979024464E+03  0.36979024464E+03  0.00000000000E+00 0.  1.
        -24    2    1    2    0    0 -0.18635884658E+02 -0.10883884338E+03 -0.27444879252E+03  0.30716310982E+03  0.82667081091E+02 0.  0.
         25    2    1    2    0    0 -0.22861247540E+02  0.17894755120E+03  0.10302359757E+03  0.24249628483E+03  0.12508286765E+03 0.  0.
         24    2    1    2    0    0  0.41497132198E+02 -0.70108707822E+02  0.35508091298E+03  0.37357681267E+03  0.82703913475E+02 0.  0.
        -13    1    5    5    0    0  0.53118595447E+02 -0.36242345837E+02  0.30680936964E+03  0.31347580786E+03  0.00000000000E+00 0.  1.
         14    1    5    5    0    0 -0.11621463249E+02 -0.33866361985E+02  0.48271543343E+02  0.60101004807E+02  0.00000000000E+00 0. -1.
         11    1    3    3    0    0 -0.32623655770E+02 -0.40225029293E+02 -0.49785758580E+02  0.71839944702E+02  0.00000000000E+00 0. -1.
        -12    1    3    3    0    0  0.13987771112E+02 -0.68613814086E+02 -0.22466303394E+03  0.23532316512E+03  0.00000000000E+00 0.  1.
          5    1    4    4  501    0 -0.72022820583E+02  0.13484397032E+03  0.78682236979E+02  0.17198415576E+03  0.41800000000E+01 0. -1.
         -5    1    4    4    0  501  0.49161573043E+02  0.44103580886E+02  0.24341360595E+02  0.70512129075E+02  0.41800000000E+01 0. -1.
</event>
<event>
11    1  0.8864208E-009  0.1772405E+03  0.7561462E-02  0.1071897E+00
         22   -1    0    0    0    0  0.00000000000E+00  0.00000000000E+00  0.12925316297E+04  0.12925316297E+04  0.00000000000E+00 0.  1.
         22   -1    0    0    0    0 -0.00000000000E+00 -0.00000000000E+00 -0.47604001827E+03  0.47604001827E+03  0.00000000000E+00 0.  1.
         24    2    1    2    0    0 -0.11718367532E+03 -0.34419563318E+02 -0.39805068571E+03  0.42410957884E+03  0.80671347873E+02 0.  0.
         25    2    1    2    0    0  0.16100443970E+03  0.69973756734E+02  0.12252912283E+03  0.24795185434E+03  0.12509188580E+03 0.  0.
        -24    2    1    2    0    0 -0.43820764376E+02 -0.35554193415E+02  0.10920131743E+04  0.10965102148E+04  0.81593616310E+02 0.  0.
        -11    1    3    3    0    0 -0.76100254858E+02 -0.18271889447E+02 -0.35089370318E+03  0.35951564870E+03  0.00000000000E+00 0.  1.
         12    1    3    3    0    0 -0.41083420467E+02 -0.16147673872E+02 -0.47156982530E+02  0.64593930134E+02  0.00000000000E+00 0. -1.
         13    1    5    5    0    0  0.10682840811E+02  0.16659723147E+02  0.37824410098E+03  0.37876149407E+03  0.00000000000E+00 0. -1.
        -14    1    5    5    0    0 -0.54503605187E+02 -0.52213916562E+02  0.71376907333E+03  0.71774872073E+03  0.00000000000E+00 0.  1.
          5    1    4    4  501    0  0.88628216919E+02  0.22172652704E+02  0.13201385570E+03  0.16059800080E+03  0.41800000000E+01 0. -1.
         -5    1    4    4    0  501  0.72376222782E+02  0.47801104030E+02 -0.94847328703E+01  0.87353853540E+02  0.41800000000E+01 0. -1.
</event>
<event>
11    1  0.8864208E-009  0.1342979E+03  0.7561462E-02  0.1114098E+00
         22   -1    0    0    0    0  0.00000000000E+00  0.00000000000E+00  0.14353176900E+03  0.14353176900E+03  0.00000000000E+00 0. -1.
         22   -1    0    0    0    0 -0.00000000000E+00 -0.00000000000E+00 -0.29588887623E+03  0.29588887623E+03  0.00000000000E+00 0.  1.
        -24    2    1    2    0    0  0.11669180899E+02  0.51236612753E+01 -0.17380319188E+03  0.19214601182E+03  0.80932803388E+02 0.  0.
         25    2    1    2    0    0 -0.31206883328E+02  0.39542194462E+02 -0.32239336848E+02  0.13866074161E+03  0.12509984698E+03 0.  0.
         24    2    1    2    0    0  0.19537702429E+02 -0.44665855737E+02  0.53685421492E+02  0.10861389179E+03  0.80858472190E+02 0.  0.
        -13    1    5    5    0    0  0.24994985612E+02 -0.39469684791E+02 -0.71947753112E+01  0.47269124331E+02  0.00000000000E+00 0.  1.
         14    1    5    5    0    0 -0.54572831827E+01 -0.51961709457E+01  0.60880196803E+02  0.61344767463E+02  0.00000000000E+00 0. -1.
         13    1    3    3    0    0  0.53950675284E+01 -0.94069969122E+01  0.54905636979E+01  0.12155025062E+02  0.00000000000E+00 0. -1.
        -14    1    3    3    0    0  0.62741133702E+01  0.14530658187E+02 -0.17929375558E+03  0.17999098676E+03  0.00000000000E+00 0.  1.
          5    1    4    4  501    0  0.40949899160E+02 -0.11654983455E+02 -0.25562430722E+02  0.49836163024E+02  0.41800000000E+01 0.  1.
         -5    1    4    4    0  501 -0.72156782487E+02  0.51197177916E+02 -0.66769061263E+01  0.88824578586E+02  0.41800000000E+01 0.  1.
</event>
<event>
11    1  0.8864208E-009  0.2348416E+03  0.7561462E-02  0.1032299E+00
         22   -1    0    0    0    0  0.00000000000E+00  0.00000000000E+00  0.24180938830E+03  0.24180938830E+03  0.00000000000E+00 0. -1.
         22   -1    0    0    0    0 -0.00000000000E+00 -0.00000000000E+00 -0.68573016310E+03  0.68573016310E+03  0.00000000000E+00 0.  1.
        -24    2    1    2    0    0 -0.75531738665E+01  0.43019923646E+02 -0.41009954528E+03  0.42077371906E+03  0.83433334760E+02 0.  0.
         25    2    1    2    0    0 -0.10505378129E+03  0.13300520564E+03 -0.14650577983E+03  0.25658785112E+03  0.12508677039E+03 0.  0.
         24    2    1    2    0    0  0.11260695515E+03 -0.17602512929E+03  0.11268455032E+03  0.25017798122E+03  0.78905271803E+02 0.  0.
        -11    1    5    5    0    0  0.20291057068E+02 -0.50534447749E+02 -0.53581661094E+01  0.54718985282E+02  0.00000000000E+00 0.  1.
         12    1    5    5    0    0  0.92315898086E+02 -0.12549068154E+03  0.11804271642E+03  0.19545899594E+03  0.00000000000E+00 0. -1.
         11    1    3    3    0    0 -0.35295090215E+02  0.52698743393E+02 -0.24480457831E+03  0.25288768754E+03  0.00000000000E+00 0. -1.
        -12    1    3    3    0    0  0.27741916349E+02 -0.96788197470E+01 -0.16529496697E+03  0.16788603152E+03  0.00000000000E+00 0.  1.
          5    1    4    4  501    0 -0.10026221268E+03  0.63473403109E+02 -0.14410858542E+03  0.18672477336E+03  0.41800000000E+01 0. -1.
         -5    1    4    4    0  501 -0.47915686056E+01  0.69531802531E+02 -0.23971944135E+01  0.69863077759E+02  0.41800000000E+01 0. -1.
</event>
<event>
11    1  0.8864208E-009  0.1332016E+03  0.7561462E-02  0.1115397E+00
         22   -1    0    0    0    0  0.00000000000E+00  0.00000000000E+00  0.15712625933E+04  0.15712625933E+04  0.00000000000E+00 0.  1.
         22   -1    0    0    0    0 -0.00000000000E+00 -0.00000000000E+00 -0.16845903134E+03  0.16845903134E+03  0.00000000000E+00 0.  1.
        -24    2    1    2    0    0 -0.11671520733E+02  0.46091322677E+01 -0.85385775213E+02  0.11793257657E+03  0.80373462728E+02 0.  0.
         25    2    1    2    0    0  0.54948643433E+02 -0.18674148123E+02  0.73508336744E+01  0.13809270670E+03  0.12508990232E+03 0.  0.
         24    2    1    2    0    0 -0.43277122700E+02  0.14065015855E+02  0.14808385035E+04  0.14836963414E+04  0.80008911731E+02 0.  0.
        -11    1    5    5    0    0 -0.45813791226E+02 -0.54715058981E+01  0.13891145211E+04  0.13898805681E+04  0.00000000000E+00 0.  1.
         12    1    5    5    0    0  0.25366685266E+01  0.19536521753E+02  0.91723982418E+02  0.93815773301E+02  0.00000000000E+00 0. -1.
         13    1    3    3    0    0  0.56842668906E+01 -0.10959922952E+02  0.12344824239E+02  0.17459252180E+02  0.00000000000E+00 0. -1.
        -14    1    3    3    0    0 -0.17355787624E+02  0.15569055219E+02 -0.97730599452E+02  0.10047332439E+03  0.00000000000E+00 0.  1.
          5    1    4    4  501    0  0.66328438517E+02 -0.19550602542E+02  0.55291087217E+02  0.88635571536E+02  0.41800000000E+01 0.  1.
         -5    1    4    4    0  501 -0.11379795084E+02  0.87645441919E+00 -0.47940253542E+02  0.49457135160E+02  0.41800000000E+01 0.  1.
</event>
<event>
11    1  0.8864208E-009  0.1659352E+03  0.7561462E-02  0.1081624E+00
         22   -1    0    0    0    0  0.00000000000E+00  0.00000000000E+00  0.51523787591E+03  0.51523787591E+03  0.00000000000E+00 0. -1.
         22   -1    0    0    0    0 -0.00000000000E+00 -0.00000000000E+00 -0.18504366257E+03  0.18504366257E+03  0.00000000000E+00 0. -1.
         24    2    1    2    0    0  0.10559789545E+03 -0.12542393064E+02 -0.77642720582E+02  0.15657172360E+03  0.84723582461E+02 0.  0.
         25    2    1    2    0    0 -0.11993953462E+03 -0.33200465284E+02  0.64414885183E+02  0.18784141845E+03  0.12508940079E+03 0.  0.
        -24    2    1    2    0    0  0.14341639179E+02  0.45742858347E+02  0.34342204873E+03  0.35586839643E+03  0.80034494555E+02 0.  0.
        -11    1    3    3    0    0  0.67492689703E+02  0.31771909623E+02 -0.59364883473E+02  0.95335758213E+02  0.00000000000E+00 0.  1.
         12    1    3    3    0    0  0.38105205743E+02 -0.44314302686E+02 -0.18277837110E+02  0.61235965385E+02  0.00000000000E+00 0. -1.
         11    1    5    5    0    0  0.24211440236E+02  0.39744504276E+02  0.34088027863E+03  0.34404241572E+03  0.00000000000E+00 0. -1.
        -12    1    5    5    0    0 -0.98698010571E+01  0.59983540710E+01  0.25417701049E+01  0.11825980709E+02  0.00000000000E+00 0.  1.
          5    1    4    4  501    0 -0.41130751162E+02  0.43010995891E+02 -0.18211327796E+01  0.59686458961E+02  0.41800000000E+01 0. -1.
         -5    1    4    4    0  501 -0.78808783463E+02 -0.76211461175E+02  0.66236017963E+02  0.12815495949E+03  0.41800000000E+01 0. -1.
</event>
<event>
11    1  0.8864208E-009  0.1392626E+03  0.7561462E-02  0.1108385E+00
         22   -1    0    0    0    0  0.00000000000E+00  0.00000000000E+00  0.32308108629E+03  0.32308108629E+03  0.00000000000E+00 0. -1.
         22   -1    0    0    0    0 -0.00000000000E+00 -0.00000000000E+00 -0.34954201785E+03  0.34954201785E+03  0.00000000000E+00 0. -1.
         24    2    1    2    0    0 -0.35705468993E+02  0.27635325600E+02 -0.22847259710E+03  0.24687770083E+03  0.81916297563E+02 0.  0.
         25    2    1    2    0    0  0.71418309203E+01 -0.80863011656E+02 -0.47838784548E+02  0.15662232897E+03  0.12510864167E+03 0.  0.
        -24    2    1    2    0    0  0.28563638072E+02  0.53227686056E+02  0.24985045009E+03  0.26912307434E+03  0.79705167654E+02 0.  0.
        -11    1    3    3    0    0 -0.34531101742E+02 -0.12715751133E+02 -0.40929316754E+02  0.55039043272E+02  0.00000000000E+00 0.  1.
         12    1    3    3    0    0 -0.11743672501E+01  0.40351076733E+02 -0.18754328035E+03  0.19183865756E+03  0.00000000000E+00 0. -1.
         13    1    5    5    0    0  0.54260415723E+02  0.21129108065E+02  0.16140258165E+03  0.17158503806E+03  0.00000000000E+00 0. -1.
        -14    1    5    5    0    0 -0.25696777651E+02  0.32098577991E+02  0.88447868438E+02  0.97538036283E+02  0.00000000000E+00 0.  1.
          5    1    4    4  501    0  0.43597006093E+02  0.65270888261E+01  0.10257031644E+02  0.45453062900E+02  0.41800000000E+01 0.  1.
         -5    1    4    4    0  501 -0.36455175173E+02 -0.87390100483E+02 -0.58095816192E+02  0.11116926607E+03  0.41800000000E+01 0.  1.
</event>
<event>
11    1  0.8864208E-009  0.1401953E+03  0.7561462E-02  0.1107340E+00
         22   -1    0    0    0    0  0.00000000000E+00  0.00000000000E+00  0.21927752814E+03  0.21927752814E+03  0.00000000000E+00 0.  1.
         22   -1    0    0    0    0 -0.00000000000E+00 -0.00000000000E+00 -0.25954160558E+04  0.25954160558E+04  0.00000000000E+00 0.  1.
         24    2    1    2    0    0 -0.61567139995E+02 -0.17606389766E+02 -0.24074346875E+04  0.24095275339E+04  0.77334755292E+02 0.  0.
         25    2    1    2    0    0  0.45223193703E+02  0.83184522881E+01 -0.15193713371E+03  0.20210536694E+03  0.12508937944E+03 0.  0.
        -24    2    1    2    0    0  0.16343946292E+02  0.92879374782E+01  0.18323329354E+03  0.20306068312E+03  0.85474035867E+02 0.  0.
        -11    1    3    3    0    0 -0.75742218874E+02  0.16991801400E+01 -0.19416033933E+04  0.19430809319E+04  0.00000000000E+00 0.  1.
         12    1    3    3    0    0  0.14175078879E+02 -0.19305569906E+02 -0.46583129418E+03  0.46644660201E+03  0.00000000000E+00 0. -1.
         11    1    5    5    0    0  0.41106672861E+01  0.35210343759E+02  0.27919190415E+02  0.45123686536E+02  0.00000000000E+00 0. -1.
        -12    1    5    5    0    0  0.12233279006E+02 -0.25922406281E+02  0.15531410312E+03  0.15793699659E+03  0.00000000000E+00 0.  1.
          5    1    4    4  501    0  0.44808029783E+02  0.27544698587E+02 -0.16838448940E+03  0.17645758308E+03  0.41800000000E+01 0.  1.
         -5    1    4    4    0  501  0.41516391986E+00 -0.19226246298E+02  0.16447355692E+02  0.25647783863E+02  0.41800000000E+01 0.  1.
</event>
<event>
11    1  0.8864208E-009  0.1276672E+03  0.7561462E-02  0.1122169E+00
         22   -1    0    0    0    0  0.00000000000E+00  0.00000000000E+00  0.12489577784E+03  0.12489577784E+03  0.00000000000E+00 0.  1.
         22   -1    0    0    0    0 -0.00000000000E+00 -0.00000000000E+00 -0.23321604036E+04  0.23321604036E+04  0.00000000000E+00 0. -1.
        -24    2    1    2    0    0 -0.13638386217E+02  0.21647055616E+02 -0.19065614566E+04  0.19083195264E+04  0.77796057437E+02 0.  0.
         25    2    1    2    0    0  0.19707325920E+02 -0.16491940798E+02 -0.40025656800E+03  0.42013600670E+03  0.12509428882E+03 0.  0.
         24    2    1    2    0    0 -0.60689397030E+01 -0.51551148181E+01  0.99553398811E+02  0.12860064833E+03  0.81017530812E+02 0.  0.
        -11    1    5    5    0    0 -0.38569566369E+02 -0.22382414807E+02  0.56294897761E+02  0.71817125091E+02  0.00000000000E+00 0.  1.
         12    1    5    5    0    0  0.32500626666E+02  0.17227299988E+02  0.43258501050E+02  0.56783523241E+02  0.00000000000E+00 0. -1.
         11    1    3    3    0    0 -0.36353133311E+01  0.43813824206E+02 -0.63255790221E+03  0.63408387958E+03  0.00000000000E+00 0. -1.
        -12    1    3    3    0    0 -0.10003072885E+02 -0.22166768589E+02 -0.12740035544E+04  0.12742356468E+04  0.00000000000E+00 0.  1.
          5    1    4    4  501    0  0.19322648377E+01 -0.13926137102E+02  0.42016403227E+01  0.15257690631E+02  0.41800000000E+01 0. -1.
         -5    1    4    4    0  501  0.17775061082E+02 -0.25658036962E+01 -0.40445820832E+03  0.40487831607E+03  0.41800000000E+01 0. -1.
</event>
<event>
11    1  0.8864208E-009  0.1390791E+03  0.7561462E-02  0.1108591E+00
         22   -1    0    0    0    0  0.00000000000E+00  0.00000000000E+00  0.13997451567E+04  0.13997451567E+04  0.00000000000E+00 0.  1.
         22   -1    0    0    0    0 -0.00000000000E+00 -0.00000000000E+00 -0.31839354663E+03  0.31839354663E+03  0.00000000000E+00 0. -1.
        -24    2    1    2    0    0  0.25948179652E+02 -0.86911074428E+01 -0.30111549799E+03  0.31266844863E+03  0.79637756527E+02 0.  0.
         25    2    1    2    0    0 -0.17050794293E+01 -0.52264866838E+02  0.55404541355E+03  0.57039316378E+03  0.12509003721E+03 0.  0.
         24    2    1    2    0    0 -0.24243100223E+02  0.60955974281E+02  0.82842169454E+03  0.83507709096E+03  0.82267157159E+02 0.  0.
        -13    1    5    5    0    0 -0.19389572064E+02  0.33863891491E+02  0.76433056680E+03  0.76532603117E+03  0.00000000000E+00 0.  1.
         14    1    5    5    0    0 -0.48535281590E+01  0.27092082790E+02  0.64091127745E+02  0.69751059785E+02  0.00000000000E+00 0. -1.
         13    1    3    3    0    0  0.21542975021E+02  0.59760784082E+00 -0.30160732860E+03  0.30237631781E+03  0.00000000000E+00 0. -1.
        -14    1    3    3    0    0  0.44052046307E+01 -0.92887152836E+01  0.49183061163E+00  0.10292130820E+02  0.00000000000E+00 0.  1.
          5    1    4    4  501    0  0.19762757279E+01 -0.87516275851E+02  0.48301287722E+03  0.49089908960E+03  0.41800000000E+01 0. -1.
         -5    1    4    4    0  501 -0.36813551572E+01  0.35251409013E+02  0.71032536334E+02  0.79494074189E+02  0.41800000000E+01 0. -1.
</event>
<event>
11    1  0.8864208E-009  0.1365790E+03  0.7561462E-02  0.1111440E+00
         22   -1    0    0    0    0  0.00000000000E+00  0.00000000000E+00  0.83906319957E+02  0.83906319957E+02  0.00000000000E+00 0. -1.
         22   -1    0    0    0    0 -0.00000000000E+00 -0.00000000000E+00 -0.18426389709E+04  0.18426389709E+04  0.00000000000E+00 0. -1.
         24    2    1    2    0    0 -0.20460444122E+01 -0.68013557869E+01 -0.15606466808E+04  0.15627109535E+04  0.79981356435E+02 0.  0.
         25    2    1    2    0    0 -0.21798603429E+02 -0.43590593528E+02 -0.22581668922E+03  0.26270861457E+03  0.12508924847E+03 0.  0.
        -24    2    1    2    0    0  0.23844647841E+02  0.50391949315E+02  0.27730718993E+02  0.10112572280E+03  0.79683770306E+02 0.  0.
        -11    1    3    3    0    0  0.86044203155E+01  0.35376123606E+02 -0.78805627203E+03  0.78889682092E+03  0.00000000000E+00 0.  1.
         12    1    3    3    0    0 -0.10650464728E+02 -0.42177479393E+02 -0.77259040872E+03  0.77381413260E+03  0.00000000000E+00 0. -1.
         11    1    5    5    0    0 -0.10034559476E+02  0.22026359522E+02  0.47042236802E+02  0.52903921792E+02  0.00000000000E+00 0. -1.
        -12    1    5    5    0    0  0.33879207317E+02  0.28365589794E+02 -0.19311517808E+02  0.48221801012E+02  0.00000000000E+00 0.  1.
          5    1    4    4  501    0 -0.32526628038E+02  0.21785440376E+02 -0.15752327782E+02  0.42405131464E+02  0.41800000000E+01 0.  1.
         -5    1    4    4    0  501  0.10728024609E+02 -0.65376033904E+02 -0.21006436144E+03  0.22030348311E+03  0.41800000000E+01 0.  1.
</event>
<event>
11    1  0.8864208E-009  0.1329326E+03  0.7561462E-02  0.1115717E+00
         22   -1    0    0    0    0  0.00000000000E+00  0.00000000000E+00  0.69176172094E+03  0.69176172094E+03  0.00000000000E+00 0. -1.
         22   -1    0    0    0    0 -0.00000000000E+00 -0.00000000000E+00 -0.49766985859E+03  0.49766985859E+03  0.00000000000E+00 0. -1.
         24    2    1    2    0    0  0.30836273630E+02 -0.14546622871E+02 -0.43843952692E+03  0.44691603495E+03  0.79638203932E+02 0.  0.
         25    2    1    2    0    0 -0.63840138041E+02  0.41410820478E+02  0.54195729285E+02  0.15612559358E+03  0.12509038580E+03 0.  0.
        -24    2    1    2    0    0  0.33003864410E+02 -0.26864197608E+02  0.57833565998E+03  0.58638995100E+03  0.87006314988E+02 0.  0.
        -13    1    3    3    0    0  0.25840089178E+02  0.31156649817E+02 -0.21956495955E+03  0.22326490656E+03  0.00000000000E+00 0.  1.
         14    1    3    3    0    0  0.49961844525E+01 -0.45703272687E+02 -0.21887456737E+03  0.22365112840E+03  0.00000000000E+00 0. -1.
         11    1    5    5    0    0  0.63565360849E+01 -0.59539058807E+01  0.51043835071E+03  0.51051264864E+03  0.00000000000E+00 0. -1.
        -12    1    5    5    0    0  0.26647328325E+02 -0.20910291727E+02  0.67897309271E+02  0.75877302359E+02  0.00000000000E+00 0.  1.
          5    1    4    4  501    0 -0.87744923471E+01 -0.39526946470E+02  0.40091480069E+02  0.57132918596E+02  0.41800000000E+01 0.  1.
         -5    1    4    4    0  501 -0.55065645694E+02  0.80937766948E+02  0.14104249215E+02  0.98992674982E+02  0.41800000000E+01 0.  1.
</event>
<event>
11    1  0.8864208E-009  0.1345314E+03  0.7561462E-02  0.1113823E+00
         22   -1    0    0    0    0  0.00000000000E+00  0.00000000000E+00  0.39684922026E+03  0.39684922026E+03  0.00000000000E+00 0. -1.
         22   -1    0    0    0    0 -0.00000000000E+00 -0.00000000000E+00 -0.15224520730E+03  0.15224520730E+03  0.00000000000E+00 0. -1.
         24    2    1    2    0    0  0.32767909620E+01 -0.10332616122E+02 -0.84898865325E+02  0.11657986035E+03  0.79155203184E+02 0.  0.
         25    2    1    2    0    0  0.45714619223E+02 -0.14256438760E+01  0.59174683035E+02  0.14574233232E+03  0.12508926992E+03 0.  0.
        -24    2    1    2    0    0 -0.48991410185E+02  0.11758259998E+02  0.27032819525E+03  0.28677223488E+03  0.81379153370E+02 0.  0.
        -13    1    3    3    0    0  0.23937508496E+02  0.26883998831E+02 -0.28458963973E+02  0.45887540101E+02  0.00000000000E+00 0.  1.
         14    1    3    3    0    0 -0.20660717534E+02 -0.37216614953E+02 -0.56439901353E+02  0.70692320250E+02  0.00000000000E+00 0. -1.
         13    1    5    5    0    0 -0.56039340615E+02  0.33849894189E+02  0.23894329278E+03  0.24775011644E+03  0.00000000000E+00 0. -1.
        -14    1    5    5    0    0  0.70479304291E+01 -0.22091634191E+02  0.31384902469E+02  0.39022118440E+02  0.00000000000E+00 0.  1.
          5    1    4    4  501    0  0.72598597637E+02  0.40417712025E+02  0.34509636899E+02  0.90069613429E+02  0.41800000000E+01 0.  1.
         -5    1    4    4    0  501 -0.26883978414E+02 -0.41843355901E+02  0.24665046135E+02  0.55672718896E+02  0.41800000000E+01 0.  1.
</event>
<event>
11    1  0.8864208E-009  0.1357511E+03  0.7561462E-02  0.1112398E+00
         22   -1    0    0    0    0  0.00000000000E+00  0.00000000000E+00  0.13400212591E+04  0.13400212591E+04  0.00000000000E+00 0. -1.
         22   -1    0    0    0    0 -0.00000000000E+00 -0.00000000000E+00 -0.65432141018E+02  0.65432141018E+02  0.00000000000E+00 0. -1.
        -24    2    1    2    0    0 -0.55204143798E+02 -0.10969170519E+02 -0.10849297797E+02  0.97883387229E+02  0.79345006386E+02 0.  0.
         25    2    1    2    0    0  0.14538651455E+02  0.52435627178E+01  0.45018542748E+03  0.46749704159E+03  0.12509075681E+03 0.  0.
         24    2    1    2    0    0  0.40665492343E+02  0.57256078008E+01  0.83525298835E+03  0.84007297125E+03  0.79928578342E+02 0.  0.
        -11    1    5    5    0    0  0.16315169328E+02  0.39125211053E+02  0.26965163787E+03  0.27296331750E+03  0.00000000000E+00 0.  1.
         12    1    5    5    0    0  0.24350323015E+02 -0.33399603252E+02  0.56560135047E+03  0.56710965376E+03  0.00000000000E+00 0. -1.
         11    1    3    3    0    0 -0.62261983718E+02 -0.30914051368E+02 -0.23323748702E+02  0.73322782557E+02  0.00000000000E+00 0. -1.
        -12    1    3    3    0    0  0.70578399199E+01  0.19944880850E+02  0.12474450905E+02  0.24560604671E+02  0.00000000000E+00 0.  1.
          5    1    4    4  501    0 -0.13289366780E+02  0.61062307663E+02  0.19742655948E+03  0.20712298635E+03  0.41800000000E+01 0.  1.
         -5    1    4    4    0  501  0.27828018234E+02 -0.55818744945E+02  0.25275886800E+03  0.26037405523E+03  0.41800000000E+01 0.  1.
</event>
<event>
11    1  0.8864208E-009  0.1307661E+03  0.7561462E-02  0.1118331E+00
         22   -1    0    0    0    0  0.00000000000E+00  0.00000000000E+00  0.72356859813E+03  0.72356859813E+03  0.00000000000E+00 0.  1.
         22   -1    0    0    0    0 -0.00000000000E+00 -0.00000000000E+00 -0.74095345546E+03  0.74095345546E+03  0.00000000000E+00 0. -1.
         24    2    1    2    0    0  0.14852496820E+02 -0.24085837655E+02 -0.70768298427E+03  0.71282793588E+03  0.80670538063E+02 0.  0.
         25    2    1    2    0    0  0.20414380944E+02  0.39339769359E+02  0.13549524389E+03  0.18966387881E+03  0.12509620860E+03 0.  0.
        -24    2    1    2    0    0 -0.35266877764E+02 -0.15253931704E+02  0.55480288306E+03  0.56203023890E+03  0.81211546506E+02 0.  0.
        -13    1    3    3    0    0  0.62551054559E+01 -0.38561967391E+02 -0.15362939185E+03  0.15851858475E+03  0.00000000000E+00 0.  1.
         14    1    3    3    0    0  0.85973913642E+01  0.14476129737E+02 -0.55405359243E+03  0.55430935113E+03  0.00000000000E+00 0. -1.
         11    1    5    5    0    0 -0.39256622400E+02 -0.65182994247E+01  0.10757725740E+03  0.11470151236E+03  0.00000000000E+00 0. -1.
        -12    1    5    5    0    0  0.39897446363E+01 -0.87356322798E+01  0.44722562566E+03  0.44732872653E+03  0.00000000000E+00 0.  1.
          5    1    4    4  501    0  0.59273096548E+01  0.83089933698E+02  0.10562507454E+03  0.13458528468E+03  0.41800000000E+01 0.  1.
         -5    1    4    4    0  501  0.14487071289E+02 -0.43750164339E+02  0.29870169345E+02  0.55078594126E+02  0.41800000000E+01 0.  1.
</event>
<event>
11    1  0.8864208E-009  0.1448619E+03  0.7561462E-02  0.1102248E+00
         22   -1    0    0    0    0  0.00000000000E+00  0.00000000000E+00  0.20887157616E+04  0.20887157616E+04  0.00000000000E+00 0.  1.
         22   -1    0    0    0    0 -0.00000000000E+00 -0.00000000000E+00 -0.15770066702E+03  0.15770066702E+03  0.00000000000E+00 0. -1.
         24    2    1    2    0    0 -0.49062182051E+02  0.55981365660E+02 -0.12251876025E+03  0.16378301472E+03  0.79202388152E+02 0.  0.
         25    2    1    2    0    0  0.53729283868E+02 -0.18004207313E+02  0.33830329109E+03  0.36511614039E+03  0.12509872813E+03 0.  0.
        -24    2    1    2    0    0 -0.46671018171E+01 -0.37977158347E+02  0.17152305638E+04  0.17175172735E+04  0.79910272497E+02 0.  0.
        -13    1    3    3    0    0 -0.10033055394E+02 -0.70014195916E+01  0.73436950177E+01  0.14269265340E+02  0.00000000000E+00 0.  1.
         14    1    3    3    0    0 -0.39029126657E+02  0.62982785252E+02 -0.12986245526E+03  0.14951374938E+03  0.00000000000E+00 0. -1.
         11    1    5    5    0    0  0.31055466345E+02 -0.80352579831E+00  0.37099080720E+03  0.37228922449E+03  0.00000000000E+00 0. -1.
        -12    1    5    5    0    0 -0.35722568162E+02 -0.37173632549E+02  0.13442397566E+04  0.13452280490E+04  0.00000000000E+00 0.  1.
          5    1    4    4  501    0 -0.24778410796E+02 -0.45830593281E+02  0.10364114069E+03  0.11607485242E+03  0.41800000000E+01 0.  1.
         -5    1    4    4    0  501  0.78507694664E+02  0.27826385968E+02  0.23466215040E+03  0.24904128796E+03  0.41800000000E+01 0.  1.
</event>
<event>
11    1  0.8864208E-009  0.1317483E+03  0.7561462E-02  0.1117139E+00
         22   -1    0    0    0    0  0.00000000000E+00  0.00000000000E+00  0.80646377674E+03  0.80646377674E+03  0.00000000000E+00 0.  1.
         22   -1    0    0    0    0 -0.00000000000E+00 -0.00000000000E+00 -0.57345557396E+03  0.57345557396E+03  0.00000000000E+00 0.  1.
         24    2    1    2    0    0 -0.38730764088E+01 -0.44836123741E+02 -0.41352394753E+03  0.42354565043E+03  0.79772075958E+02 0.  0.
         25    2    1    2    0    0 -0.32556497379E+02  0.22029467130E+02 -0.12405426938E+03  0.18048813815E+03  0.12506511631E+03 0.  0.
        -24    2    1    2    0    0  0.36429573787E+02  0.22806656611E+02  0.77058641970E+03  0.77588556212E+03  0.79672566443E+02 0.  0.
        -11    1    3    3    0    0  0.18354229578E+02 -0.58500563528E+02 -0.34106661845E+03  0.34653373847E+03  0.00000000000E+00 0.  1.
         12    1    3    3    0    0 -0.22227305987E+02  0.13664439787E+02 -0.72457329078E+02  0.77011911957E+02  0.00000000000E+00 0. -1.
         13    1    5    5    0    0 -0.62705827815E+01 -0.65893002917E+01  0.99366517534E+01  0.13471307836E+02  0.00000000000E+00 0. -1.
        -14    1    5    5    0    0  0.42700156569E+02  0.29395956903E+02  0.76064976795E+03  0.76241425428E+03  0.00000000000E+00 0.  1.
          5    1    4    4  501    0  0.35699703792E+02  0.45930381800E+02 -0.48963981134E+02  0.76151248654E+02  0.41800000000E+01 0.  1.
         -5    1    4    4    0  501 -0.68256201170E+02 -0.23900914670E+02 -0.75090288249E+02  0.10433688950E+03  0.41800000000E+01 0.  1.
</event>
<event>
11    1  0.8864208E-009  0.1492124E+03  0.7561462E-02  0.1097686E+00
         22   -1    0    0    0    0  0.00000000000E+00  0.00000000000E+00  0.14571969573E+03  0.14571969573E+03  0.00000000000E+00 0. -1.
         22   -1    0    0    0    0 -0.00000000000E+00 -0.00000000000E+00 -0.60354883167E+03  0.60354883167E+03  0.00000000000E+00 0. -1.
        -24    2    1    2    0    0 -0.50485203171E+02  0.63007876411E+02 -0.34517913699E+03  0.36277353810E+03  0.77053585902E+02 0.  0.
         25    2    1    2    0    0  0.83474557326E+02 -0.35964102667E+02 -0.20489895854E+03  0.25669658119E+03  0.12509249851E+03 0.  0.
         24    2    1    2    0    0 -0.32989354155E+02 -0.27043773744E+02  0.92248959595E+02  0.12979840811E+03  0.80734707628E+02 0.  0.
        -11    1    5    5    0    0  0.26461258195E+02 -0.15298305571E+02  0.34444971132E+02  0.46050975830E+02  0.00000000000E+00 0.  1.
         12    1    5    5    0    0 -0.59450612350E+02 -0.11745468173E+02  0.57803988462E+02  0.83747432280E+02  0.00000000000E+00 0. -1.
         11    1    3    3    0    0 -0.62336472913E+02  0.69367768067E+02 -0.25346038158E+03  0.27007385681E+03  0.00000000000E+00 0. -1.
        -12    1    3    3    0    0  0.11851269743E+02 -0.63598916560E+01 -0.91718755413E+02  0.92699681288E+02  0.00000000000E+00 0.  1.
          5    1    4    4  501    0  0.10118924386E+03 -0.53458664169E+02 -0.20074314777E+03  0.23111117590E+03  0.41800000000E+01 0. -1.
         -5    1    4    4    0  501 -0.17714686531E+02  0.17494561502E+02 -0.41558107686E+01  0.25585405296E+02  0.41800000000E+01 0. -1.
</event>
<event>
11    1  0.8864208E-009  0.1619509E+03  0.7561462E-02  0.1085257E+00
         22   -1    0    0    0    0  0.00000000000E+00  0.00000000000E+00  0.15524000424E+04  0.15524000424E+04  0.00000000000E+00 0. -1.
         22   -1    0    0    0    0 -0.00000000000E+00 -0.00000000000E+00 -0.19854259847E+03  0.19854259847E+03  0.00000000000E+00 0. -1.
        -24    2    1    2    0    0  0.67049085191E+02 -0.86710472935E+02 -0.11603555075E+03  0.17905099464E+03  0.81121659885E+02 0.  0.
         25    2    1    2    0    0 -0.64638373903E+02  0.48985264484E+02  0.63029441274E+02  0.16185939889E+03  0.12509228203E+03 0.  0.
         24    2    1    2    0    0 -0.24107112881E+01  0.37725208451E+02  0.14068635534E+04  0.14100322474E+04  0.86584512261E+02 0.  0.
        -11    1    5    5    0    0  0.13337085058E+02 -0.25084773850E+02  0.54470336287E+03  0.54544374342E+03  0.00000000000E+00 0.  1.
         12    1    5    5    0    0 -0.15747796346E+02  0.62809982301E+02  0.86216019056E+03  0.86458850394E+03  0.00000000000E+00 0. -1.
         13    1    3    3    0    0  0.37181501914E+02 -0.66581375998E+02 -0.12065905491E+03  0.14273805115E+03  0.00000000000E+00 0. -1.
        -14    1    3    3    0    0  0.29867583277E+02 -0.20129096936E+02  0.46235041591E+01  0.36312943491E+02  0.00000000000E+00 0.  1.
          5    1    4    4  501    0 -0.35592866815E+02 -0.11835961061E+02  0.83217627282E+02  0.91376080200E+02  0.41800000000E+01 0. -1.
         -5    1    4    4    0  501 -0.29045507088E+02  0.60821225545E+02 -0.20188186008E+02  0.70483318687E+02  0.41800000000E+01 0. -1.
</event>
<event>
11    1  0.8864208E-009  0.1451582E+03  0.7561462E-02  0.1101931E+00
         22   -1    0    0    0    0  0.00000000000E+00  0.00000000000E+00  0.12390397863E+04  0.12390397863E+04  0.00000000000E+00 0. -1.
         22   -1    0    0    0    0 -0.00000000000E+00 -0.00000000000E+00 -0.48547936792E+03  0.48547936792E+03  0.00000000000E+00 0. -1.
         24    2    1    2    0    0  0.71747020444E+02  0.10653679606E+02 -0.42726265541E+03  0.44071642730E+03  0.80102788674E+02 0.  0.
         25    2    1    2    0    0 -0.92858092305E+02 -0.15070861105E+02  0.72852441086E+02  0.17263680411E+03  0.12508489837E+03 0.  0.
        -24    2    1    2    0    0  0.21111071861E+02  0.44171814985E+01  0.11079706327E+04  0.11111659228E+04  0.81397765560E+02 0.  0.
        -13    1    3    3    0    0 -0.16430155609E+01  0.16385136286E+02 -0.22276520007E+03  0.22337302110E+03  0.00000000000E+00 0.  1.
         14    1    3    3    0    0  0.73390036005E+02 -0.57314566794E+01 -0.20449745534E+03  0.21734340621E+03  0.00000000000E+00 0. -1.
         11    1    5    5    0    0 -0.27774172440E+02  0.81841516682E+01  0.22812339761E+03  0.22995362474E+03  0.00000000000E+00 0. -1.
        -12    1    5    5    0    0  0.48885244301E+02 -0.37669701697E+01  0.87984723507E+03  0.88121229805E+03  0.00000000000E+00 0.  1.
          5    1    4    4  501    0 -0.10247324106E+03 -0.42955297297E+02  0.85510065661E+02  0.14026890756E+03  0.41800000000E+01 0. -1.
         -5    1    4    4    0  501  0.96151487540E+01  0.27884436192E+02 -0.12657624575E+02  0.32367896552E+02  0.41800000000E+01 0. -1.
</event>
<event>
11    1  0.8864208E-009  0.1432696E+03  0.7561462E-02  0.1103961E+00
         22   -1    0    0    0    0  0.00000000000E+00  0.00000000000E+00  0.36098283725E+04  0.36098283725E+04  0.00000000000E+00 0.  1.
         22   -1    0    0    0    0 -0.00000000000E+00 -0.00000000000E+00 -0.21444545035E+03  0.21444545035E+03  0.00000000000E+00 0. -1.
        -24    2    1    2    0    0  0.32557535327E+02 -0.62172014325E+02 -0.19166657898E+03  0.21914886149E+03  0.79779656079E+02 0.  0.
         25    2    1    2    0    0 -0.27354888740E+02  0.49801696997E+02  0.54675311676E+03  0.56374951107E+03  0.12508413803E+03 0.  0.
         24    2    1    2    0    0 -0.52026465874E+01  0.12370317329E+02  0.30402963844E+04  0.30413754503E+04  0.79890127852E+02 0.  0.
        -11    1    5    5    0    0  0.28104772162E+02 -0.15021626007E+02  0.18941807376E+04  0.18944487837E+04  0.00000000000E+00 0.  1.
         12    1    5    5    0    0 -0.33307418750E+02  0.27391943336E+02  0.11461156469E+04  0.11469266667E+04  0.00000000000E+00 0. -1.
         11    1    3    3    0    0 -0.55716136852E+01 -0.38574433432E+01 -0.11635178357E+03  0.11654896090E+03  0.00000000000E+00 0. -1.
        -12    1    3    3    0    0  0.38129149013E+02 -0.58314570982E+02 -0.75314795415E+02  0.10259990059E+03  0.00000000000E+00 0.  1.
          5    1    4    4  501    0 -0.47938194465E+02 -0.27494724708E+02  0.27046305731E+03  0.27608290086E+03  0.41800000000E+01 0. -1.
         -5    1    4    4    0  501  0.20583305725E+02  0.77296421704E+02  0.27629005944E+03  0.28766661021E+03  0.41800000000E+01 0. -1.
</event>
<event>
11    1  0.8864208E-009  0.1548474E+03  0.7561462E-02  0.1092026E+00
         22   -1    0    0    0    0  0.00000000000E+00  0.00000000000E+00  0.98083112309E+03  0.98083112309E+03  0.00000000000E+00 0. -1.
         22   -1    0    0    0    0 -0.00000000000E+00 -0.00000000000E+00 -0.14101817412E+04  0.14101817412E+04  0.00000000000E+00 0.  1.
        -24    2    1    2    0    0 -0.84889979618E+02  0.26081121565E+02 -0.12329688756E+04  0.12387932051E+04  0.80683475317E+02 0.  0.
         25    2    1    2    0    0  0.15580199789E+03  0.28922345168E+02 -0.11061570470E+03  0.23020542302E+03  0.12509171861E+03 0.  0.
         24    2    1    2    0    0 -0.70912018275E+02 -0.55003466733E+02  0.91423396223E+03  0.92201423615E+03  0.78946933314E+02 0.  0.
        -13    1    5    5    0    0 -0.38755366927E+02  0.63111909003E+01  0.54028234609E+03  0.54170732236E+03  0.00000000000E+00 0.  1.
         14    1    5    5    0    0 -0.32156651348E+02 -0.61314657633E+02  0.37395161614E+03  0.38030691379E+03  0.00000000000E+00 0. -1.
         11    1    3    3    0    0 -0.51564209245E+02  0.76986658112E+01 -0.26519312416E+03  0.27026936606E+03  0.00000000000E+00 0. -1.
        -12    1    3    3    0    0 -0.33325770373E+02  0.18382455753E+02 -0.96777575149E+03  0.96852383905E+03  0.00000000000E+00 0.  1.
          5    1    4    4  501    0  0.46724990099E+02  0.98549643502E+01 -0.10934225814E+03  0.11938821900E+03  0.41800000000E+01 0.  1.
         -5    1    4    4    0  501  0.10907700779E+03  0.19067380818E+02 -0.12734465639E+01  0.11081720402E+03  0.41800000000E+01 0.  1.
</event>
<event>
11    1  0.8864208E-009  0.2224374E+03  0.7561462E-02  0.1039701E+00
         22   -1    0    0    0    0  0.00000000000E+00  0.00000000000E+00  0.11543744784E+04  0.11543744784E+04  0.00000000000E+00 0.  1.
         22   -1    0    0    0    0 -0.00000000000E+00 -0.00000000000E+00 -0.40953189106E+03  0.40953189106E+03  0.00000000000E+00 0. -1.
        -24    2    1    2    0    0  0.53089932568E+02 -0.17941464071E+03 -0.29413958389E+03  0.35777735224E+03  0.80488413596E+02 0.  0.
         25    2    1    2    0    0 -0.12548600156E+03  0.13528496802E+03  0.75188054793E+02  0.23526641663E+03  0.12509310153E+03 0.  0.
         24    2    1    2    0    0  0.72396068990E+02  0.44129672688E+02  0.96379411644E+03  0.97086260060E+03  0.80538633809E+02 0.  0.
        -13    1    5    5    0    0  0.90145317645E+02  0.33045173419E+02  0.79404792026E+03  0.79983139564E+03  0.00000000000E+00 0.  1.
         14    1    5    5    0    0 -0.17749248655E+02  0.11084499269E+02  0.16974619618E+03  0.17103120496E+03  0.00000000000E+00 0. -1.
         13    1    3    3    0    0  0.65957585145E+02 -0.11029606976E+03 -0.15085805396E+03  0.19817612996E+03  0.00000000000E+00 0. -1.
        -14    1    3    3    0    0 -0.12867652577E+02 -0.69118570954E+02 -0.14328152993E+03  0.15960122228E+03  0.00000000000E+00 0.  1.
          5    1    4    4  501    0 -0.59765141161E+02  0.32013766784E+02  0.89052994032E+02  0.11200295312E+03  0.41800000000E+01 0.  1.
         -5    1    4    4    0  501 -0.65720860397E+02  0.10327120124E+03 -0.13864939239E+02  0.12326346351E+03  0.41800000000E+01 0.  1.
</event>
<event>
11    1  0.8864208E-009  0.1502532E+03  0.7561462E-02  0.1096620E+00
         22   -1    0    0    0    0  0.00000000000E+00  0.00000000000E+00  0.20851430924E+03  0.20851430924E+03  0.00000000000E+00 0. -1.
         22   -1    0    0    0    0 -0.00000000000E+00 -0.00000000000E+00 -0.20166521606E+04  0.20166521606E+04  0.00000000000E+00 0. -1.
        -24    2    1    2    0    0 -0.65808081753E+02  0.52382497759E+02 -0.18824507989E+04  0.18861827561E+04  0.83604720876E+02 0.  0.
         25    2    1    2    0    0 -0.25987348461E+02 -0.20446780535E+02 -0.70249725448E+02  0.14725132189E+03  0.12511800334E+03 0.  0.
         24    2    1    2    0    0  0.91795430213E+02 -0.31935717224E+02  0.14456267293E+03  0.19173239193E+03  0.80104011565E+02 0.  0.
        -11    1    5    5    0    0  0.40753629440E+02 -0.56020030584E+02  0.73824207193E+02  0.10123791635E+03  0.00000000000E+00 0.  1.
         12    1    5    5    0    0  0.51041800773E+02  0.24084313360E+02  0.70738465732E+02  0.90494475579E+02  0.00000000000E+00 0. -1.
         11    1    3    3    0    0 -0.85966672427E+02  0.43175241053E+02 -0.15737403163E+04  0.15766778216E+04  0.00000000000E+00 0. -1.
        -12    1    3    3    0    0  0.20158590675E+02  0.92072567061E+01 -0.30871048262E+03  0.30950493443E+03  0.00000000000E+00 0.  1.
          5    1    4    4  501    0 -0.41870097271E+02  0.34928210601E+02 -0.70836092884E+02  0.89489157982E+02  0.41800000000E+01 0. -1.
         -5    1    4    4    0  501  0.15882748810E+02 -0.55374991136E+02  0.58636743640E+00  0.57762163912E+02  0.41800000000E+01 0. -1.
</event>
<event>
11    1  0.8864208E-009  0.1999255E+03  0.7561462E-02  0.1054576E+00
         22   -1    0    0    0    0  0.00000000000E+00  0.00000000000E+00  0.83389312537E+03  0.83389312537E+03  0.00000000000E+00 0. -1.
         22   -1    0    0    0    0 -0.00000000000E+00 -0.00000000000E+00 -0.18969877647E+04  0.18969877647E+04  0.00000000000E+00 0. -1.
         24    2    1    2    0    0  0.12984114130E+03  0.81363995656E+02 -0.16217457238E+04  0.16309194679E+04  0.79751467182E+02 0.  0.
         25    2    1    2    0    0 -0.94411934574E+02 -0.20957418288E+03 -0.19759303383E+03  0.32791128678E+03  0.12509138045E+03 0.  0.
        -24    2    1    2    0    0 -0.35429206730E+02  0.12821018723E+03  0.75624411825E+03  0.77205013538E+03  0.80393807893E+02 0.  0.
        -13    1    3    3    0    0  0.59065224999E+02  0.57380638159E+02 -0.50442941859E+03  0.51110691326E+03  0.00000000000E+00 0.  1.
         14    1    3    3    0    0  0.70775916304E+02  0.23983357497E+02 -0.11173163052E+04  0.11198125547E+04  0.00000000000E+00 0. -1.
         11    1    5    5    0    0  0.24325945133E+01  0.72673260333E+02  0.22225628134E+03  0.23384861530E+03  0.00000000000E+00 0. -1.
        -12    1    5    5    0    0 -0.37861801243E+02  0.55536926895E+02  0.53398783691E+03  0.53820152007E+03  0.00000000000E+00 0.  1.
          5    1    4    4  501    0  0.25796683288E+02 -0.10481074198E+02 -0.30502454195E+02  0.41511370695E+02  0.41800000000E+01 0.  1.
         -5    1    4    4    0  501 -0.12020861786E+03 -0.19909310868E+03 -0.16709057963E+03  0.28639991609E+03  0.41800000000E+01 0.  1.
</event>
<event>
11    1  0.8864208E-009  0.1401063E+03  0.7561462E-02  0.1107440E+00
         22   -1    0    0    0    0  0.00000000000E+00  0.00000000000E+00  0.55544165939E+03  0.55544165939E+03  0.00000000000E+00 0. -1.
         22   -1    0    0    0    0 -0.00000000000E+00 -0.00000000000E+00 -0.70850367178E+03  0.70850367178E+03  0.00000000000E+00 0.  1.
        -24    2    1    2    0    0  0.36627245662E+02 -0.23373712867E+02 -0.67488347404E+03  0.68108264248E+03  0.80733987769E+02 0.  0.
         25    2    1    2    0    0 -0.75933579835E+02 -0.21354184012E+02  0.24079944034E+03  0.28258426646E+03  0.12509031722E+03 0.  0.
         24    2    1    2    0    0  0.39306334173E+02  0.44727896878E+02  0.28102202131E+03  0.30027842222E+03  0.87453883425E+02 0.  0.
        -11    1    5    5    0    0 -0.10215470510E+02  0.23561755844E+02  0.16949343453E+02  0.30769992196E+02  0.00000000000E+00 0.  1.
         12    1    5    5    0    0  0.49521804683E+02  0.21166141034E+02  0.26407267786E+03  0.26950843003E+03  0.00000000000E+00 0. -1.
         13    1    3    3    0    0  0.36517308607E+01  0.19792075918E+01  0.70662383409E+00  0.42132787960E+01  0.00000000000E+00 0. -1.
        -14    1    3    3    0    0  0.32975514802E+02 -0.25352920458E+02 -0.67559009787E+03  0.67686936368E+03  0.00000000000E+00 0.  1.
          5    1    4    4  501    0 -0.34828592081E+02 -0.56339842636E+02  0.21012893710E+03  0.22036072994E+03  0.41800000000E+01 0.  1.
         -5    1    4    4    0  501 -0.41104987754E+02  0.34985658625E+02  0.30670503240E+02  0.62223536517E+02  0.41800000000E+01 0.  1.
</event>
<event>
11    1  0.8864208E-009  0.1318729E+03  0.7561462E-02  0.1116989E+00
         22   -1    0    0    0    0  0.00000000000E+00  0.00000000000E+00  0.63432650462E+03  0.63432650462E+03  0.00000000000E+00 0.  1.
         22   -1    0    0    0    0 -0.00000000000E+00 -0.00000000000E+00 -0.16079050005E+04  0.16079050005E+04  0.00000000000E+00 0.  1.
         24    2    1    2    0    0  0.11854842819E+01 -0.28187401487E+02 -0.13435944596E+04  0.13462884772E+04  0.80315981382E+02 0.  0.
         25    2    1    2    0    0  0.80236556513E+01 -0.12915262656E+02 -0.24423553411E+03  0.27482502883E+03  0.12508643926E+03 0.  0.
        -24    2    1    2    0    0 -0.92091399331E+01  0.41102664143E+02  0.61425149783E+03  0.62111799914E+03  0.81904999861E+02 0.  0.
        -11    1    3    3    0    0  0.17509061493E+02 -0.49183999863E+02 -0.11017114470E+04  0.11029477529E+04  0.00000000000E+00 0.  1.
         12    1    3    3    0    0 -0.16323577211E+02  0.20996598376E+02 -0.24188301260E+03  0.24334072429E+03  0.00000000000E+00 0. -1.
         11    1    5    5    0    0 -0.43089058070E+02  0.63735467219E+01  0.29794233088E+03  0.30110948433E+03  0.00000000000E+00 0. -1.
        -12    1    5    5    0    0  0.33879918137E+02  0.34729117421E+02  0.31630916696E+03  0.32000851481E+03  0.00000000000E+00 0.  1.
          5    1    4    4  501    0 -0.17484154437E+02 -0.20556999856E+01 -0.24606447502E+03  0.24672883866E+03  0.41800000000E+01 0.  1.
         -5    1    4    4    0  501  0.25507810089E+02 -0.10859562670E+02  0.18289409131E+01  0.28096190165E+02  0.41800000000E+01 0.  1.
</event>
<event>
11    1  0.8864208E-009  0.2157602E+03  0.7561462E-02  0.1043906E+00
         22   -1    0    0    0    0  0.00000000000E+00  0.00000000000E+00  0.38054757939E+03  0.38054757939E+03  0.00000000000E+00 0.  1.
         22   -1    0    0    0    0 -0.00000000000E+00 -0.00000000000E+00 -0.24379182654E+03  0.24379182654E+03  0.00000000000E+00 0. -1.
         24    2    1    2    0    0  0.22471773153E+02  0.14616297218E+02 -0.10821509393E+03  0.13624257362E+03  0.78312933663E+02 0.  0.
         25    2    1    2    0    0  0.42124862801E+02 -0.17583502785E+03  0.77137885958E+02  0.23299973437E+03  0.12508461809E+03 0.  0.
        -24    2    1    2    0    0 -0.64596635954E+02  0.16121873063E+03  0.16783296082E+03  0.25509709795E+03  0.82112253408E+02 0.  0.
        -13    1    3    3    0    0  0.36056235434E+02  0.48230545001E+01 -0.11593029163E+02  0.38179998606E+02  0.00000000000E+00 0.  1.
         14    1    3    3    0    0 -0.13584462280E+02  0.97932427182E+01 -0.96622064766E+02  0.98062575012E+02  0.00000000000E+00 0. -1.
         11    1    5    5    0    0 -0.72067695289E+01 -0.95457634210E+01  0.10456905555E+02  0.15887290522E+02  0.00000000000E+00 0. -1.
        -12    1    5    5    0    0 -0.57389866426E+02  0.17076449405E+03  0.15737605527E+03  0.23920980742E+03  0.00000000000E+00 0.  1.
          5    1    4    4  501    0  0.14548274674E+02 -0.15787256857E+03  0.10963402334E+02  0.15897505714E+03  0.41800000000E+01 0. -1.
         -5    1    4    4    0  501  0.27576588127E+02 -0.17962459277E+02  0.66174483623E+02  0.74024677229E+02  0.41800000000E+01 0. -1.
</event>
<event>
11    1  0.8864208E-009  0.1550295E+03  0.7561462E-02  0.1091848E+00
         22   -1    0    0    0    0  0.00000000000E+00  0.00000000000E+00  0.15192093947E+03  0.15192093947E+03  0.00000000000E+00 0.  1.
         22   -1    0    0    0    0 -0.00000000000E+00 -0.00000000000E+00 -0.64223600795E+03  0.64223600795E+03  0.00000000000E+00 0. -1.
        -24    2    1    2    0    0 -0.85803713637E+01  0.94830973158E+01 -0.45676265828E+03  0.46385198078E+03  0.79768303018E+02 0.  0.
         25    2    1    2    0    0 -0.13809595891E+02 -0.96848775947E+02 -0.10376427118E+03  0.18969743033E+03  0.12509077008E+03 0.  0.
         24    2    1    2    0    0  0.22389967254E+02  0.87365678631E+02  0.70211860986E+02  0.14060753630E+03  0.81894452837E+02 0.  0.
        -13    1    5    5    0    0  0.53048058302E+02  0.49244921387E+02  0.35463277138E+02  0.80602746835E+02  0.00000000000E+00 0.  1.
         14    1    5    5    0    0 -0.30658091047E+02  0.38120757244E+02  0.34748583848E+02  0.60004789467E+02  0.00000000000E+00 0. -1.
         11    1    3    3    0    0  0.31897057606E+02 -0.85468017523E+00 -0.10856278992E+03  0.11315490319E+03  0.00000000000E+00 0. -1.
        -12    1    3    3    0    0 -0.40477428969E+02  0.10337777491E+02 -0.34819986837E+03  0.35069707759E+03  0.00000000000E+00 0.  1.
          5    1    4    4  501    0 -0.39894228463E+02  0.13163210898E+02 -0.46795851113E+02  0.63024944801E+02  0.41800000000E+01 0.  1.
         -5    1    4    4    0  501  0.26084632572E+02 -0.11001198684E+03 -0.56968420066E+02  0.12667248553E+03  0.41800000000E+01 0.  1.
</event>
<event>
11    1  0.8864208E-009  0.1710755E+03  0.7561462E-02  0.1077099E+00
         22   -1    0    0    0    0  0.00000000000E+00  0.00000000000E+00  0.11396176161E+04  0.11396176161E+04  0.00000000000E+00 0.  1.
         22   -1    0    0    0    0 -0.00000000000E+00 -0.00000000000E+00 -0.18820888040E+03  0.18820888040E+03  0.00000000000E+00 0.  1.
         24    2    1    2    0    0 -0.38644926896E+02  0.80962516879E+02 -0.13927391196E+03  0.18286085228E+03  0.77411299110E+02 0.  0.
         25    2    1    2    0    0  0.32424953343E+02 -0.17478537032E+03  0.58616441142E+03  0.62516999287E+03  0.12508996559E+03 0.  0.
        -24    2    1    2    0    0  0.62199735530E+01  0.93822853442E+02  0.50451823621E+03  0.51979565132E+03  0.82507287939E+02 0.  0.
        -13    1    3    3    0    0 -0.32255459420E+02  0.96463651488E+02 -0.11856437910E+03  0.15621511679E+03  0.00000000000E+00 0.  1.
         14    1    3    3    0    0 -0.63894674756E+01 -0.15501134609E+02 -0.20709532857E+02  0.26645735493E+02  0.00000000000E+00 0. -1.
         13    1    5    5    0    0  0.11716425107E+02 -0.12440380211E+02  0.45434892974E+02  0.48542426563E+02  0.00000000000E+00 0. -1.
        -14    1    5    5    0    0 -0.54964515544E+01  0.10626323365E+03  0.45908334324E+03  0.47125322476E+03  0.00000000000E+00 0.  1.
          5    1    4    4  501    0  0.24996299260E+01  0.18995154313E+02  0.79218143421E+02  0.81609133584E+02  0.41800000000E+01 0. -1.
         -5    1    4    4    0  501  0.29925323417E+02 -0.19378052463E+03  0.50694626800E+03  0.54356085928E+03  0.41800000000E+01 0. -1.
</event>
<event>
11    1  0.8864208E-009  0.1343515E+03  0.7561462E-02  0.1114035E+00
         22   -1    0    0    0    0  0.00000000000E+00  0.00000000000E+00  0.11007740692E+03  0.11007740692E+03  0.00000000000E+00 0.  1.
         22   -1    0    0    0    0 -0.00000000000E+00 -0.00000000000E+00 -0.18249987800E+04  0.18249987800E+04  0.00000000000E+00 0. -1.
        -24    2    1    2    0    0 -0.36253558445E+02  0.30129532194E+02 -0.16523924807E+04  0.16549214108E+04  0.78369996645E+02 0.  0.
         25    2    1    2    0    0  0.14251154051E+02  0.21813419282E+02 -0.11142474784E+03  0.16953344394E+03  0.12508874262E+03 0.  0.
         24    2    1    2    0    0  0.22002404394E+02 -0.51942951476E+02  0.48895855496E+02  0.11062133215E+03  0.81633929436E+02 0.  0.
        -13    1    5    5    0    0 -0.27243313934E+01 -0.13972171819E+02  0.61871433178E+02  0.63487934368E+02  0.00000000000E+00 0.  1.
         14    1    5    5    0    0  0.24726735788E+02 -0.37970779657E+02 -0.12975577681E+02  0.47133397783E+02  0.00000000000E+00 0. -1.
         11    1    3    3    0    0  0.41717970713E+00 -0.19171438328E+02 -0.83603713037E+03  0.83625701877E+03  0.00000000000E+00 0. -1.
        -12    1    3    3    0    0 -0.36670738152E+02  0.49300970522E+02 -0.81635535033E+03  0.81866439201E+03  0.00000000000E+00 0.  1.
          5    1    4    4  501    0  0.49132295945E+02  0.47184783469E+02 -0.10570535998E+03  0.12582321655E+03  0.41800000000E+01 0.  1.
         -5    1    4    4    0  501 -0.34881141894E+02 -0.25371364187E+02 -0.57193878576E+01  0.43710227384E+02  0.41800000000E+01 0.  1.
</event>
<event>
11    1  0.8864208E-009  0.1854783E+03  0.7561462E-02  0.1065296E+00
         22   -1    0    0    0    0  0.00000000000E+00  0.00000000000E+00  0.17039386853E+04  0.17039386853E+04  0.00000000000E+00 0.  1.
         22   -1    0    0    0    0 -0.00000000000E+00 -0.00000000000E+00 -0.36906131158E+03  0.36906131158E+03  0.00000000000E+00 0.  1.
        -24    2    1    2    0    0 -0.17815608328E+02  0.23754004570E+02 -0.32873910911E+03  0.33954095559E+03  0.79605339234E+02 0.  0.
         25    2    1    2    0    0 -0.24670299832E+02  0.11013284515E+03  0.20184914923E+03  0.26292085524E+03  0.12508568982E+03 0.  0.
         24    2    1    2    0    0  0.42485908161E+02 -0.13388684972E+03  0.14617673336E+04  0.14705381860E+04  0.77382673497E+02 0.  0.
        -11    1    5    5    0    0  0.28725342547E+02 -0.49632780803E+02  0.28700729428E+03  0.29268027813E+03  0.00000000000E+00 0.  1.
         12    1    5    5    0    0  0.13760565613E+02 -0.84254068922E+02  0.11747600393E+04  0.11778579079E+04  0.00000000000E+00 0. -1.
         13    1    3    3    0    0 -0.34142279208E+01  0.46697568009E+02 -0.11614128915E+03  0.12522427423E+03  0.00000000000E+00 0. -1.
        -14    1    3    3    0    0 -0.14401380408E+02 -0.22943563439E+02 -0.21259781995E+03  0.21431668136E+03  0.00000000000E+00 0.  1.
          5    1    4    4  501    0 -0.39059811436E+02  0.12454888679E+03  0.11628023171E+03  0.17486182761E+03  0.41800000000E+01 0. -1.
         -5    1    4    4    0  501  0.14389511604E+02 -0.14416041632E+02  0.85568917525E+02  0.88059027629E+02  0.41800000000E+01 0. -1.
</event>
<event>
11    1  0.8864208E-009  0.1461145E+03  0.7561462E-02  0.1100916E+00
         22   -1    0    0    0    0  0.00000000000E+00  0.00000000000E+00  0.18657737386E+03  0.18657737386E+03  0.00000000000E+00 0. -1.
         22   -1    0    0    0    0 -0.00000000000E+00 -0.00000000000E+00 -0.16420651326E+04  0.16420651326E+04  0.00000000000E+00 0.  1.
        -24    2    1    2    0    0  0.33372022616E+02  0.14685872488E+02 -0.13976849934E+04  0.14004199432E+04  0.79519241952E+02 0.  0.
         25    2    1    2    0    0 -0.83326983156E+01 -0.85655884981E+02 -0.19896217635E+03  0.25027817232E+03  0.12508737517E+03 0.  0.
         24    2    1    2    0    0 -0.25039324300E+02  0.70970012493E+02  0.14115941100E+03  0.17794439093E+03  0.77939184714E+02 0.  0.
        -11    1    5    5    0    0 -0.72028094923E+01 -0.12114546996E+02  0.11194145618E+01  0.14138451204E+02  0.00000000000E+00 0.  1.
         12    1    5    5    0    0 -0.17836514808E+02  0.83084559489E+02  0.14003999644E+03  0.16380593973E+03  0.00000000000E+00 0. -1.
         13    1    3    3    0    0  0.26921115808E+02  0.25725199712E+02 -0.25898476512E+03  0.26164793319E+03  0.00000000000E+00 0. -1.
        -14    1    3    3    0    0  0.64509068082E+01 -0.11039327224E+02 -0.11387002283E+04  0.11387720100E+04  0.00000000000E+00 0.  1.
          5    1    4    4  501    0  0.36130286614E+02 -0.16449903868E+02 -0.14830317158E+03  0.15358157458E+03  0.41800000000E+01 0.  1.
         -5    1    4    4    0  501 -0.44462984929E+02 -0.69205981113E+02 -0.50659004765E+02  0.96696597740E+02  0.41800000000E+01 0.  1.
</event>
<event>
11    1  0.8864208E-009  0.1734892E+03  0.7561462E-02  0.1075035E+00
         22   -1    0    0    0    0  0.00000000000E+00  0.00000000000E+00  0.14326206350E+03  0.14326206350E+03  0.00000000000E+00 0. -1.
         22   -1    0    0    0    0 -0.00000000000E+00 -0.00000000000E+00 -0.68443578371E+03  0.68443578371E+03  0.00000000000E+00 0.  1.
         24    2    1    2    0    0  0.81428002235E+02  0.81347592812E+02 -0.45309830666E+03  0.47389290872E+03  0.77643177644E+02 0.  0.
         25    2    1    2    0    0 -0.94106288063E+02 -0.10700355051E+03 -0.15520720084E+03  0.24503861570E+03  0.12509554235E+03 0.  0.
        -24    2    1    2    0    0  0.12678285828E+02  0.25655957701E+02  0.67131787280E+02  0.10876632279E+03  0.80650288360E+02 0.  0.
        -13    1    3    3    0    0  0.80364350258E+02  0.93104761167E+02 -0.36869788098E+03  0.38867087977E+03  0.00000000000E+00 0.  1.
         14    1    3    3    0    0  0.10636519769E+01 -0.11757168355E+02 -0.84400425677E+02  0.85222028946E+02  0.00000000000E+00 0. -1.
         11    1    5    5    0    0  0.37261763286E+02 -0.28722674351E+01  0.59620551369E+02  0.70365467873E+02  0.00000000000E+00 0. -1.
        -12    1    5    5    0    0 -0.24583477459E+02  0.28528225136E+02  0.75112359113E+01  0.38400854916E+02  0.00000000000E+00 0.  1.
          5    1    4    4  501    0 -0.90045853593E+02 -0.37948152643E+02 -0.30640265013E+02  0.10249203032E+03  0.41800000000E+01 0. -1.
         -5    1    4    4    0  501 -0.40604344705E+01 -0.69055397870E+02 -0.12456693583E+03  0.14254658538E+03  0.41800000000E+01 0. -1.
</event>
<event>
11    1  0.8864208E-009  0.2229169E+03  0.7561462E-02  0.1039405E+00
         22   -1    0    0    0    0  0.00000000000E+00  0.00000000000E+00  0.22389353014E+04  0.22389353014E+04  0.00000000000E+00 0.  1.
         22   -1    0    0    0    0 -0.00000000000E+00 -0.00000000000E+00 -0.11030072800E+04  0.11030072800E+04  0.00000000000E+00 0.  1.
        -24    2    1    2    0    0 -0.74733434468E+02 -0.19804231768E+02 -0.10242630674E+04  0.10306276803E+04  0.84269153951E+02 0.  0.
         25    2    1    2    0    0  0.25371270359E+03  0.38006351254E+01  0.21299076711E+03  0.35411525280E+03  0.12509182468E+03 0.  0.
         24    2    1    2    0    0 -0.17897926912E+03  0.16003596642E+02  0.19472003217E+04  0.19571996483E+04  0.82168585952E+02 0.  0.
        -13    1    5    5    0    0 -0.16536234465E+03  0.81850056391E+01  0.19048580827E+04  0.19120397523E+04  0.00000000000E+00 0.  1.
         14    1    5    5    0    0 -0.13616924464E+02  0.78185910032E+01  0.42342239094E+02  0.45159896021E+02  0.00000000000E+00 0. -1.
         13    1    3    3    0    0  0.48037288923E+01 -0.16687396677E+02 -0.50506686278E+03  0.50536529451E+03  0.00000000000E+00 0. -1.
        -14    1    3    3    0    0 -0.79537163360E+02 -0.31168350909E+01 -0.51919620463E+03  0.52526238578E+03  0.00000000000E+00 0.  1.
          5    1    4    4  501    0  0.16131491751E+03 -0.55053428210E+02  0.15331908182E+03  0.22929805019E+03  0.41800000000E+01 0. -1.
         -5    1    4    4    0  501  0.92397786074E+02  0.58854063336E+02  0.59671685293E+02  0.12481720261E+03  0.41800000000E+01 0. -1.
</event>
<event>
11    1  0.8864208E-009  0.2076250E+03  0.7561462E-02  0.1049259E+00
         22   -1    0    0    0    0  0.00000000000E+00  0.00000000000E+00  0.81822272305E+03  0.81822272305E+03  0.00000000000E+00 0.  1.
         22   -1    0    0    0    0 -0.00000000000E+00 -0.00000000000E+00 -0.27780338618E+03  0.27780338618E+03  0.00000000000E+00 0. -1.
        -24    2    1    2    0    0 -0.46326409065E+02 -0.15018965554E+03 -0.13737840017E+03  0.22448632223E+03  0.82572484681E+02 0.  0.
         25    2    1    2    0    0  0.12178234928E+03  0.16493108663E+03  0.65244765214E+02  0.24887219014E+03  0.12508910306E+03 0.  0.
         24    2    1    2    0    0 -0.75455940215E+02 -0.14741431090E+02  0.61255297183E+03  0.62266759686E+03  0.81134975091E+02 0.  0.
        -11    1    5    5    0    0 -0.66538564934E+02  0.24947662643E+02  0.38196466077E+03  0.38851868497E+03  0.00000000000E+00 0.  1.
         12    1    5    5    0    0 -0.89173752810E+01 -0.39689093733E+02  0.23058831105E+03  0.23414891189E+03  0.00000000000E+00 0. -1.
         13    1    3    3    0    0 -0.45332149840E+02 -0.11659704631E+03 -0.14344891536E+03  0.19033514215E+03  0.00000000000E+00 0. -1.
        -14    1    3    3    0    0 -0.99425922440E+00 -0.33592609231E+02  0.60705151923E+01  0.34151180083E+02  0.00000000000E+00 0.  1.
          5    1    4    4  501    0  0.13096703643E+03  0.12272253566E+03  0.87926511315E+02  0.19990430006E+03  0.41800000000E+01 0.  1.
         -5    1    4    4    0  501 -0.91846871472E+01  0.42208550972E+02 -0.22681746101E+02  0.48967890084E+02  0.41800000000E+01 0.  1.
</event>
<event>
11    1  0.8864208E-009  0.4097563E+03  0.7561462E-02  0.9621402E-01
         22   -1    0    0    0    0  0.00000000000E+00  0.00000000000E+00  0.60853430242E+03  0.60853430242E+03  0.00000000000E+00 0. -1.
         22   -1    0    0    0    0 -0.00000000000E+00 -0.00000000000E+00 -0.97383877652E+03  0.97383877652E+03  0.00000000000E+00 0. -1.
         24    2    1    2    0    0  0.19048979773E+03  0.17232026675E+03 -0.63134313986E+03  0.68637759281E+03  0.80866570939E+02 0.  0.
         25    2    1    2    0    0 -0.28988527074E+03 -0.44566371620E+03  0.22849876619E+03  0.59203791965E+03  0.12509034345E+03 0.  0.
        -24    2    1    2    0    0  0.99395473002E+02  0.27334344945E+03  0.37539899566E+02  0.30395756648E+03  0.79905298655E+02 0.  0.
        -13    1    3    3    0    0  0.22990636332E+01  0.32549332063E+02 -0.11040697735E+03  0.11512795212E+03  0.00000000000E+00 0.  1.
         14    1    3    3    0    0  0.18819073410E+03  0.13977093468E+03 -0.52093616251E+03  0.57124964070E+03  0.00000000000E+00 0. -1.
         13    1    5    5    0    0  0.32814284635E+00  0.10818374068E+03  0.25652678573E+01  0.10821464792E+03  0.00000000000E+00 0. -1.
        -14    1    5    5    0    0  0.99067330156E+02  0.16515970877E+03  0.34974631709E+02  0.19574291857E+03  0.00000000000E+00 0.  1.
          5    1    4    4  501    0 -0.13969595648E+03 -0.26941494349E+03  0.18774095191E+03  0.35688024526E+03  0.41800000000E+01 0. -1.
         -5    1    4    4    0  501 -0.15018931426E+03 -0.17624877271E+03  0.40757814280E+02  0.23515767439E+03  0.41800000000E+01 0. -1.
</event>
<event>
11    1  0.8864208E-009  0.1781054E+03  0.7561462E-02  0.1071186E+00
         22   -1    0    0    0    0  0.00000000000E+00  0.00000000000E+00  0.11903354675E+04  0.11903354675E+04  0.00000000000E+00 0. -1.
         22   -1    0    0    0    0 -0.00000000000E+00 -0.00000000000E+00 -0.31892054160E+03  0.31892054160E+03  0.00000000000E+00 0. -1.
         24    2    1    2    0    0 -0.55367038392E+02  0.45834385419E+02 -0.26801923936E+03  0.28885618325E+03  0.80232674819E+02 0.  0.
         25    2    1    2    0    0  0.15285455717E+03 -0.10692984064E+03  0.33906373087E+03  0.40670616849E+03  0.12508871825E+03 0.  0.
        -24    2    1    2    0    0 -0.97487518775E+02  0.61095455217E+02  0.80037043435E+03  0.81369365732E+03  0.90928899728E+02 0.  0.
        -11    1    3    3    0    0  0.92648176099E+01  0.16050838642E+02 -0.97082563310E+01  0.20921675541E+02  0.00000000000E+00 0.  1.
         12    1    3    3    0    0 -0.64631856002E+02  0.29783546778E+02 -0.25831098303E+03  0.26793450771E+03  0.00000000000E+00 0. -1.
         13    1    5    5    0    0 -0.10384408623E+03  0.53343244073E+02  0.79221383136E+03  0.80076953646E+03  0.00000000000E+00 0. -1.
        -14    1    5    5    0    0  0.63565674526E+01  0.77522111440E+01  0.81566029938E+01  0.12924120852E+02  0.00000000000E+00 0.  1.
          5    1    4    4  501    0  0.15753130375E+03 -0.61598917865E+02  0.30794244679E+03  0.35136385881E+03  0.41800000000E+01 0.  1.
         -5    1    4    4    0  501 -0.46767465858E+01 -0.45330922771E+02  0.31121284077E+02  0.55342309678E+02  0.41800000000E+01 0.  1.
</event>
<event>
11    1  0.8864208E-009  0.1392159E+03  0.7561462E-02  0.1108437E+00
         22   -1    0    0    0    0  0.00000000000E+00  0.00000000000E+00  0.10775006160E+03  0.10775006160E+03  0.00000000000E+00 0.  1.
         22   -1    0    0    0    0 -0.00000000000E+00 -0.00000000000E+00 -0.50541403824E+03  0.50541403824E+03  0.00000000000E+00 0. -1.
        -24    2    1    2    0    0  0.23387938619E+02  0.11720153401E+02 -0.18051931308E+03  0.20071000745E+03  0.83743220774E+02 0.  0.
         25    2    1    2    0    0 -0.68728629778E+02  0.27592772862E+02 -0.26388914036E+03  0.30128451326E+03  0.12509953583E+03 0.  0.
         24    2    1    2    0    0  0.45340691159E+02 -0.39312926263E+02  0.46744476804E+02  0.11116957913E+03  0.81069999181E+02 0.  0.
        -13    1    5    5    0    0  0.65050576849E+02 -0.46335863678E+02  0.38755122796E+02  0.88772458308E+02  0.00000000000E+00 0.  1.
         14    1    5    5    0    0 -0.19709885690E+02  0.70229374152E+01  0.79893540078E+01  0.22397120826E+02  0.00000000000E+00 0. -1.
         11    1    3    3    0    0  0.79093382933E+01  0.35948743050E+02 -0.16286239200E+03  0.16697014250E+03  0.00000000000E+00 0. -1.
        -12    1    3    3    0    0  0.15478600326E+02 -0.24228589649E+02 -0.17656921079E+02  0.33739864943E+02  0.00000000000E+00 0.  1.
          5    1    4    4  501    0 -0.12785275252E+02  0.26584157294E+01  0.12260305788E+02  0.18393420984E+02  0.41800000000E+01 0.  1.
         -5    1    4    4    0  501 -0.55943354525E+02  0.24934357132E+02 -0.27614944615E+03  0.28289109228E+03  0.41800000000E+01 0.  1.
</event>
<event>
11    1  0.8864208E-009  0.1570697E+03  0.7561462E-02  0.1089866E+00
         22   -1    0    0    0    0  0.00000000000E+00  0.00000000000E+00  0.27266496592E+03  0.27266496592E+03  0.00000000000E+00 0.  1.
         22   -1    0    0    0    0 -0.00000000000E+00 -0.00000000000E+00 -0.60204053001E+03  0.60204053001E+03  0.00000000000E+00 0.  1.
        -24    2    1    2    0    0 -0.53215636927E+02 -0.79898575904E+02 -0.44821369164E+03  0.46533717745E+03  0.80171621541E+02 0.  0.
         25    2    1    2    0    0  0.93074704689E+02  0.42659109737E+02 -0.89099900105E+02  0.18457438372E+03  0.12508481375E+03 0.  0.
         24    2    1    2    0    0 -0.39859067762E+02  0.37239466167E+02  0.20793802765E+03  0.22479393476E+03  0.65715802042E+02 0.  0.
        -13    1    5    5    0    0 -0.49466664398E+02  0.29100210276E+02  0.20350782972E+03  0.21144552462E+03  0.00000000000E+00 0.  1.
         14    1    5    5    0    0  0.96075966362E+01  0.81392558915E+01  0.44301979348E+01  0.13348410143E+02  0.00000000000E+00 0. -1.
         13    1    3    3    0    0  0.17014667346E+02 -0.12975512909E+02 -0.15553532454E+03  0.15700031854E+03  0.00000000000E+00 0. -1.
        -14    1    3    3    0    0 -0.70230304273E+02 -0.66923062995E+02 -0.29267836710E+03  0.30833685891E+03  0.00000000000E+00 0.  1.
          5    1    4    4  501    0  0.35149947739E+02  0.47199916421E+02 -0.10822563995E+03  0.12326237252E+03  0.41800000000E+01 0.  1.
         -5    1    4    4    0  501  0.57924756950E+02 -0.45408066839E+01  0.19125739844E+02  0.61312011202E+02  0.41800000000E+01 0.  1.
</event>
<event>
11    1  0.8864208E-009  0.2413547E+03  0.7561462E-02  0.1028608E+00
         22   -1    0    0    0    0  0.00000000000E+00  0.00000000000E+00  0.90104685195E+03  0.90104685195E+03  0.00000000000E+00 0.  1.
         22   -1    0    0    0    0 -0.00000000000E+00 -0.00000000000E+00 -0.43496751353E+03  0.43496751353E+03  0.00000000000E+00 0.  1.
        -24    2    1    2    0    0  0.41259377937E+02 -0.43837832236E+02 -0.21121982760E+03  0.23362295005E+03  0.79635264908E+02 0.  0.
         25    2    1    2    0    0 -0.23347406160E+03 -0.26525456751E+02 -0.10772373260E+03  0.28716880730E+03  0.12509110291E+03 0.  0.
         24    2    1    2    0    0  0.19221468366E+03  0.70363288987E+02  0.78502289861E+03  0.81522260813E+03  0.80183990902E+02 0.  0.
        -11    1    5    5    0    0  0.80318666525E+02  0.69047850784E+02  0.43692104905E+03  0.44957613036E+03  0.00000000000E+00 0.  1.
         12    1    5    5    0    0  0.11189601714E+03  0.13154382030E+01  0.34810184956E+03  0.36564647776E+03  0.00000000000E+00 0. -1.
         11    1    3    3    0    0  0.88401065935E+01 -0.45585643272E+02 -0.18814872545E+03  0.19379406917E+03  0.00000000000E+00 0. -1.
        -12    1    3    3    0    0  0.32419271344E+02  0.17478110357E+01 -0.23071102149E+02  0.39828880881E+02  0.00000000000E+00 0.  1.
          5    1    4    4  501    0 -0.13181977209E+03 -0.27905959795E+02  0.55320800861E+01  0.13491949902E+03  0.41800000000E+01 0. -1.
         -5    1    4    4    0  501 -0.10165428951E+03  0.13805030438E+01 -0.11325581269E+03  0.15224930828E+03  0.41800000000E+01 0. -1.
</event>
<event>
11    1  0.8864208E-009  0.1579630E+03  0.7561462E-02  0.1089009E+00
         22   -1    0    0    0    0  0.00000000000E+00  0.00000000000E+00  0.98482789861E+02  0.98482789861E+02  0.00000000000E+00 0. -1.
         22   -1    0    0    0    0 -0.00000000000E+00 -0.00000000000E+00 -0.71065963977E+03  0.71065963977E+03  0.00000000000E+00 0.  1.
         24    2    1    2    0    0 -0.56124129139E+02  0.12597586180E+02 -0.46485914684E+03  0.47641147473E+03  0.86978444465E+02 0.  0.
         25    2    1    2    0    0  0.88765417182E+02  0.73591908826E+02 -0.11935681756E+03  0.20781860924E+03  0.12508979223E+03 0.  0.
        -24    2    1    2    0    0 -0.32641288043E+02 -0.86189495006E+02 -0.27960885513E+02  0.12491234566E+03  0.79543700223E+02 0.  0.
        -13    1    3    3    0    0 -0.28079435190E+02 -0.69285640958E+01 -0.41476168495E+03  0.41576882397E+03  0.00000000000E+00 0.  1.
         14    1    3    3    0    0 -0.28044693949E+02  0.19526150276E+02 -0.50097461891E+02  0.60642650761E+02  0.00000000000E+00 0. -1.
         11    1    5    5    0    0 -0.17033941066E+02 -0.68755976590E+02  0.18221274398E+02  0.73140647426E+02  0.00000000000E+00 0. -1.
        -12    1    5    5    0    0 -0.15607346977E+02 -0.17433518416E+02 -0.46182159911E+02  0.51771698234E+02  0.00000000000E+00 0.  1.
          5    1    4    4  501    0  0.11133350033E+03  0.73934219157E+02 -0.64711454186E+02  0.14854784334E+03  0.41800000000E+01 0.  1.
         -5    1    4    4    0  501 -0.22568083146E+02 -0.34231033096E+00 -0.54645363370E+02  0.59270765906E+02  0.41800000000E+01 0.  1.
</event>
<event>
11    1  0.8864208E-009  0.1273925E+03  0.7561462E-02  0.1122515E+00
         22   -1    0    0    0    0  0.00000000000E+00  0.00000000000E+00  0.33839972056E+03  0.33839972056E+03  0.00000000000E+00 0.  1.
         22   -1    0    0    0    0 -0.00000000000E+00 -0.00000000000E+00 -0.10683706150E+04  0.10683706150E+04  0.00000000000E+00 0. -1.
         24    2    1    2    0    0  0.18344463559E+02 -0.16932271643E+02 -0.90629694493E+03  0.91037375006E+03  0.82358917144E+02 0.  0.
         25    2    1    2    0    0  0.68236929611E+00  0.19838668300E+02 -0.12887151338E+03  0.18069114697E+03  0.12508950893E+03 0.  0.
        -24    2    1    2    0    0 -0.19026832855E+02 -0.29063966563E+01  0.30519756390E+03  0.31570543850E+03  0.78446818811E+02 0.  0.
        -13    1    3    3    0    0 -0.18251560405E+02  0.61090459012E+01 -0.60846230827E+02  0.63817738168E+02  0.00000000000E+00 0.  1.
         14    1    3    3    0    0  0.36596023964E+02 -0.23041317545E+02 -0.84545071411E+03  0.84655601189E+03  0.00000000000E+00 0. -1.
         13    1    5    5    0    0 -0.26479683246E+02 -0.27317000541E+01  0.28841322265E+02  0.39248664691E+02  0.00000000000E+00 0. -1.
        -14    1    5    5    0    0  0.74528503908E+01 -0.17469660218E+00  0.27635624163E+03  0.27645677381E+03  0.00000000000E+00 0.  1.
          5    1    4    4  501    0 -0.33161648359E+01  0.24963219106E+02 -0.15312398135E+03  0.15523719052E+03  0.41800000000E+01 0. -1.
         -5    1    4    4    0  501  0.39985341320E+01 -0.51245508062E+01  0.24252467970E+02  0.25453956447E+02  0.41800000000E+01 0. -1.
</event>
<event>
11    1  0.1134344E-008  0.1643086E+03  0.7561462E-02  0.1083094E+00
         22   -1    0    0    0    0  0.00000000000E+00  0.00000000000E+00  0.22848124581E+04  0.22848124581E+04  0.00000000000E+00 0. -1.
         22   -1    0    0    0    0 -0.00000000000E+00 -0.00000000000E+00 -0.26905621068E+03  0.26905621068E+03  0.00000000000E+00 0. -1.
        -24    2    1    2    0    0 -0.33991085986E+02 -0.96003298102E+01 -0.14091369989E+03  0.16631722721E+03  0.80976471833E+02 0.  0.
         25    2    1    2    0    0  0.13507662803E+03 -0.22322939609E+02 -0.37571476026E+02  0.18922019602E+03  0.12509459500E+03 0.  0.
         24    2    1    2    0    0 -0.10108554204E+03  0.31923269419E+02  0.21942414233E+04  0.21983312455E+04  0.82021090992E+02 0.  0.
        -13    1    5    5    0    0 -0.14870954234E+02  0.38291885532E+01  0.53235802973E+02  0.55406305444E+02  0.00000000000E+00 0.  1.
         14    1    5    5    0    0 -0.86214587807E+02  0.28094080866E+02  0.21410056203E+04  0.21429249401E+04  0.00000000000E+00 0. -1.
         13    1    3    3    0    0 -0.17138541272E+02  0.33458990516E+02 -0.90022522475E+02  0.97556589711E+02  0.00000000000E+00 0. -1.
        -14    1    3    3    0    0 -0.16852544715E+02 -0.43059320327E+02 -0.50891177417E+02  0.68760637498E+02  0.00000000000E+00 0.  1.
          5    1    4    4  501    0  0.47657828416E+02  0.48279121176E+02  0.68618523273E+01  0.68313245921E+02  0.41800000000E+01 0.  1.
         -5    1    4    4    0  501  0.87418799611E+02 -0.70602060785E+02 -0.44433328354E+02  0.12090695009E+03  0.41800000000E+01 0.  1.
</event>
<event>
11    1  0.8864208E-009  0.1400156E+03  0.7561462E-02  0.1107541E+00
         22   -1    0    0    0    0  0.00000000000E+00  0.00000000000E+00  0.12875046551E+04  0.12875046551E+04  0.00000000000E+00 0.  1.
         22   -1    0    0    0    0 -0.00000000000E+00 -0.00000000000E+00 -0.13637175858E+03  0.13637175858E+03  0.00000000000E+00 0. -1.
         24    2    1    2    0    0 -0.49167196070E+02  0.34141340751E+02 -0.55136263328E+02  0.11600714866E+03  0.82671680088E+02 0.  0.
         25    2    1    2    0    0  0.31114312236E+02 -0.79568937757E+02  0.68649069851E+02  0.16631051031E+03  0.12508866762E+03 0.  0.
        -24    2    1    2    0    0  0.18052883834E+02  0.45427597006E+02  0.11376200900E+04  0.11415587547E+04  0.81162479679E+02 0.  0.
        -11    1    3    3    0    0 -0.48876228244E+02 -0.15862630133E+02 -0.21273630986E+02  0.55615430390E+02  0.00000000000E+00 0.  1.
         12    1    3    3    0    0 -0.29096782583E+00  0.50003970884E+02 -0.33862632342E+02  0.60391718270E+02  0.00000000000E+00 0. -1.
         11    1    5    5    0    0 -0.18869649196E+02 -0.12755362686E+02  0.17510341891E+03  0.17657851017E+03  0.00000000000E+00 0. -1.
        -12    1    5    5    0    0  0.36922533029E+02  0.58182959692E+02  0.96251667107E+03  0.96498024453E+03  0.00000000000E+00 0.  1.
          5    1    4    4  501    0 -0.19258988483E+02 -0.57531998887E+02 -0.18161478996E+02  0.63467718193E+02  0.41800000000E+01 0.  1.
         -5    1    4    4    0  501  0.50373300719E+02 -0.22036938870E+02  0.86810548847E+02  0.10284279212E+03  0.41800000000E+01 0.  1.
</event>
<event>
11    1  0.8864208E-009  0.1356671E+03  0.7561462E-02  0.1112496E+00
         22   -1    0    0    0    0  0.00000000000E+00  0.00000000000E+00  0.65206944892E+03  0.65206944892E+03  0.00000000000E+00 0. -1.
         22   -1    0    0    0    0 -0.00000000000E+00 -0.00000000000E+00 -0.91106366560E+03  0.91106366560E+03  0.00000000000E+00 0.  1.
        -24    2    1    2    0    0  0.52434711662E+02 -0.19221920431E+02 -0.81909204010E+03  0.82499565028E+03  0.81161392393E+02 0.  0.
         25    2    1    2    0    0  0.30039589925E+01  0.88884163098E+01 -0.38788879882E+02  0.13130278822E+03  0.12509123581E+03 0.  0.
         24    2    1    2    0    0 -0.55438670654E+02  0.10333504122E+02  0.59888670330E+03  0.60683467602E+03  0.80017580058E+02 0.  0.
        -11    1    5    5    0    0 -0.13140129542E+02  0.40493914042E+02  0.19317823485E+03  0.19781367621E+03  0.00000000000E+00 0.  1.
         12    1    5    5    0    0 -0.42298541112E+02 -0.30160409921E+02  0.40570846845E+03  0.40902099980E+03  0.00000000000E+00 0. -1.
         13    1    3    3    0    0 -0.19198766602E+02 -0.13038816601E+02 -0.30769297108E+03  0.30856695842E+03  0.00000000000E+00 0. -1.
        -14    1    3    3    0    0  0.71633478264E+02 -0.61831038301E+01 -0.51139906902E+03  0.51642869186E+03  0.00000000000E+00 0.  1.
          5    1    4    4  501    0 -0.30369714717E+02  0.18784063665E+02  0.34644822304E+02  0.49928916795E+02  0.41800000000E+01 0. -1.
         -5    1    4    4    0  501  0.33373673709E+02 -0.98956473556E+01 -0.73433702187E+02  0.81373871423E+02  0.41800000000E+01 0. -1.
</event>
<event>
11    1  0.8864208E-009  0.1442650E+03  0.7561462E-02  0.1102887E+00
         22   -1    0    0    0    0  0.00000000000E+00  0.00000000000E+00  0.27673070926E+03  0.27673070926E+03  0.00000000000E+00 0.  1.
         22   -1    0    0    0    0 -0.00000000000E+00 -0.00000000000E+00 -0.24844037044E+03  0.24844037044E+03  0.00000000000E+00 0.  1.
        -24    2    1    2    0    0 -0.49008396030E+02  0.58977882729E+02 -0.17363297035E+03  0.20581951575E+03  0.79580469585E+02 0.  0.
         25    2    1    2    0    0  0.16239033966E+02 -0.42866595856E+02  0.47741136915E+02  0.14151867486E+03  0.12508824052E+03 0.  0.
         24    2    1    2    0    0  0.32769362064E+02 -0.16111286873E+02  0.15418217225E+03  0.17783288909E+03  0.80740259777E+02 0.  0.
        -13    1    5    5    0    0  0.51836042398E+01 -0.56625531696E+01  0.14735500026E+03  0.14755483849E+03  0.00000000000E+00 0.  1.
         14    1    5    5    0    0  0.27585757824E+02 -0.10448733703E+02  0.68271719890E+01  0.30278050599E+02  0.00000000000E+00 0. -1.
         13    1    3    3    0    0 -0.51449916673E+02  0.21235188925E+02 -0.44500881223E+02  0.71262582075E+02  0.00000000000E+00 0. -1.
        -14    1    3    3    0    0  0.24415206429E+01  0.37742693804E+02 -0.12913208912E+03  0.13455693367E+03  0.00000000000E+00 0.  1.
          5    1    4    4  501    0  0.64721227359E+02 -0.42766949123E+02  0.69072653595E+01  0.77993794130E+02  0.41800000000E+01 0. -1.
         -5    1    4    4    0  501 -0.48482193393E+02 -0.99646733484E-01  0.40833871555E+02  0.63524880731E+02  0.41800000000E+01 0. -1.
</event>
<event>
11    1  0.8864208E-009  0.1366424E+03  0.7561462E-02  0.1111367E+00
         22   -1    0    0    0    0  0.00000000000E+00  0.00000000000E+00  0.23621371492E+03  0.23621371492E+03  0.00000000000E+00 0. -1.
         22   -1    0    0    0    0 -0.00000000000E+00 -0.00000000000E+00 -0.11842791571E+04  0.11842791571E+04  0.00000000000E+00 0.  1.
        -24    2    1    2    0    0  0.16475918557E+02 -0.51785821746E+02 -0.10595001930E+04  0.10637816655E+04  0.78342488644E+02 0.  0.
         25    2    1    2    0    0 -0.45203834369E+02  0.57544943068E+02 -0.67075742721E+02  0.15969354539E+03  0.12509223023E+03 0.  0.
         24    2    1    2    0    0  0.28727915811E+02 -0.57591213220E+01  0.17851049357E+03  0.19701766116E+03  0.78048074075E+02 0.  0.
        -13    1    5    5    0    0 -0.11578889115E+02 -0.13200969387E+02  0.43381655009E+01  0.18087452718E+02  0.00000000000E+00 0.  1.
         14    1    5    5    0    0  0.40306804927E+02  0.74418480654E+01  0.17417232807E+03  0.17893020844E+03  0.00000000000E+00 0. -1.
         11    1    3    3    0    0  0.25022833053E+02  0.13948995720E+02 -0.27628540710E+03  0.27776670577E+03  0.00000000000E+00 0. -1.
        -12    1    3    3    0    0 -0.85469144958E+01 -0.65734817466E+02 -0.78321478593E+03  0.78601495970E+03  0.00000000000E+00 0.  1.
          5    1    4    4  501    0 -0.65971892247E+02  0.82105034147E+02 -0.28300819907E+02  0.10914181603E+03  0.41800000000E+01 0. -1.
         -5    1    4    4    0  501  0.20768057879E+02 -0.24560091079E+02 -0.38774922814E+02  0.50551729358E+02  0.41800000000E+01 0. -1.
</event>
<event>
11    1  0.8864208E-009  0.2021975E+03  0.7561462E-02  0.1052980E+00
         22   -1    0    0    0    0  0.00000000000E+00  0.00000000000E+00  0.36091087754E+03  0.36091087754E+03  0.00000000000E+00 0.  1.
         22   -1    0    0    0    0 -0.00000000000E+00 -0.00000000000E+00 -0.21112141981E+04  0.21112141981E+04  0.00000000000E+00 0.  1.
         24    2    1    2    0    0 -0.49881582625E+02 -0.14447580289E+03 -0.14673916982E+04  0.14774573199E+04  0.79248383985E+02 0.  0.
         25    2    1    2    0    0  0.21218143523E+02  0.18477137858E+03 -0.61208589611E+03  0.65183390827E+03  0.12509047846E+03 0.  0.
        -24    2    1    2    0    0  0.28663439103E+02 -0.40295575691E+02  0.32917427375E+03  0.34283384744E+03  0.82061064370E+02 0.  0.
        -11    1    3    3    0    0  0.15567650135E+02 -0.66399397837E+02 -0.70438965513E+03  0.70768355782E+03  0.00000000000E+00 0.  1.
         12    1    3    3    0    0 -0.65449232760E+02 -0.78076405055E+02 -0.76300204309E+03  0.76977376212E+03  0.00000000000E+00 0. -1.
         13    1    5    5    0    0  0.79039010751E+01 -0.19190467125E+02  0.11391471774E+02  0.23675120060E+02  0.00000000000E+00 0. -1.
        -14    1    5    5    0    0  0.20759538028E+02 -0.21105108566E+02  0.31778280198E+03  0.31915872738E+03  0.00000000000E+00 0.  1.
          5    1    4    4  501    0  0.12356545516E+02  0.75933622446E+02 -0.44873396811E+03  0.45530017106E+03  0.41800000000E+01 0.  1.
         -5    1    4    4    0  501  0.88615980062E+01  0.10883775614E+03 -0.16335192800E+03  0.19653373721E+03  0.41800000000E+01 0.  1.
</event>
<event>
11    1  0.8864208E-009  0.1349323E+03  0.7561462E-02  0.1113353E+00
         22   -1    0    0    0    0  0.00000000000E+00  0.00000000000E+00  0.11362801286E+04  0.11362801286E+04  0.00000000000E+00 0. -1.
         22   -1    0    0    0    0 -0.00000000000E+00 -0.00000000000E+00 -0.58967352461E+03  0.58967352461E+03  0.00000000000E+00 0. -1.
         24    2    1    2    0    0  0.10717302241E+02  0.49258498069E+02 -0.56793914269E+03  0.57560995939E+03  0.78934753769E+02 0.  0.
         25    2    1    2    0    0  0.27564636153E+02 -0.75046192211E+02  0.34703016658E+03  0.37745051821E+03  0.12508883664E+03 0.  0.
        -24    2    1    2    0    0 -0.38281938394E+02  0.25787694141E+02  0.76751558007E+03  0.77289317557E+03  0.78442228518E+02 0.  0.
        -11    1    3    3    0    0 -0.34387410458E+01 -0.13579006595E+02 -0.23383499934E+02  0.27258070901E+02  0.00000000000E+00 0.  1.
         12    1    3    3    0    0  0.14156043286E+02  0.62837504665E+02 -0.54455564276E+03  0.54835188849E+03  0.00000000000E+00 0. -1.
         11    1    5    5    0    0 -0.52740329712E+02  0.28724693825E+02  0.73166386655E+03  0.73412442000E+03  0.00000000000E+00 0. -1.
        -12    1    5    5    0    0  0.14458391318E+02 -0.29369996832E+01  0.35851713511E+02  0.38768755569E+02  0.00000000000E+00 0.  1.
          5    1    4    4  501    0  0.19359685581E+02  0.28308643668E+02  0.15879342420E+03  0.16250846348E+03  0.41800000000E+01 0. -1.
         -5    1    4    4    0  501  0.82049505721E+01 -0.10335483588E+03  0.18823674237E+03  0.21494205473E+03  0.41800000000E+01 0. -1.
</event>
<event>
11    1  0.9764401E-009  0.1618910E+03  0.7561462E-02  0.1085312E+00
         22   -1    0    0    0    0  0.00000000000E+00  0.00000000000E+00  0.69143618980E+03  0.69143618980E+03  0.00000000000E+00 0.  1.
         22   -1    0    0    0    0 -0.00000000000E+00 -0.00000000000E+00 -0.45399545902E+03  0.45399545902E+03  0.00000000000E+00 0.  1.
         24    2    1    2    0    0 -0.53760854176E+02 -0.62095792560E+01 -0.23158713575E+03  0.25143979149E+03  0.81612370265E+02 0.  0.
         25    2    1    2    0    0  0.14665332776E+03 -0.34416151411E+02 -0.15977444136E+03  0.25272122403E+03  0.12509386452E+03 0.  0.
        -24    2    1    2    0    0 -0.92892473585E+02  0.40625730667E+02  0.62880230790E+03  0.64127063331E+03  0.74540063654E+02 0.  0.
        -11    1    3    3    0    0 -0.21792431034E+02 -0.20177014772E+02 -0.20611523545E+03  0.20824387689E+03  0.00000000000E+00 0.  1.
         12    1    3    3    0    0 -0.31968423142E+02  0.13967435516E+02 -0.25471900299E+02  0.43195914598E+02  0.00000000000E+00 0. -1.
         11    1    5    5    0    0 -0.13629073015E+02 -0.15909335542E+02  0.48109653652E+02  0.52472824997E+02  0.00000000000E+00 0. -1.
        -12    1    5    5    0    0 -0.79263400570E+02  0.56535066210E+02  0.58069265424E+03  0.58879780831E+03  0.00000000000E+00 0.  1.
          5    1    4    4  501    0 -0.21559585976E+02 -0.14115079946E+02 -0.17419584361E+02  0.31384160792E+02  0.41800000000E+01 0. -1.
         -5    1    4    4    0  501  0.16821291374E+03 -0.20301071466E+02 -0.14235485700E+03  0.22133706324E+03  0.41800000000E+01 0. -1.
</event>
<event>
11    1  0.8864208E-009  0.6516675E+03  0.7561462E-02  0.9106727E-01
         22   -1    0    0    0    0  0.00000000000E+00  0.00000000000E+00  0.64687773520E+03  0.64687773520E+03  0.00000000000E+00 0.  1.
         22   -1    0    0    0    0 -0.00000000000E+00 -0.00000000000E+00 -0.28926068775E+04  0.28926068775E+04  0.00000000000E+00 0. -1.
         24    2    1    2    0    0  0.15924204161E+03  0.16301680415E+03 -0.10423810954E+04  0.10700228250E+04  0.80361631612E+02 0.  0.
         25    2    1    2    0    0 -0.48692019985E+03 -0.68598488091E+03 -0.15423315654E+04  0.17612779871E+04  0.12508777873E+03 0.  0.
        -24    2    1    2    0    0  0.32767815823E+03  0.52296807676E+03  0.33898351849E+03  0.70818380054E+03  0.75801615020E+02 0.  0.
        -13    1    3    3    0    0 -0.88920013152E+01  0.14887883176E+02 -0.87547064832E+02  0.89247998933E+02  0.00000000000E+00 0.  1.
         14    1    3    3    0    0  0.16813404293E+03  0.14812892097E+03 -0.95483403053E+03  0.98077482608E+03  0.00000000000E+00 0. -1.
         13    1    5    5    0    0  0.14614928732E+03  0.20813928815E+03  0.10025830800E+03  0.27337393032E+03  0.00000000000E+00 0. -1.
        -14    1    5    5    0    0  0.18152887092E+03  0.31482878862E+03  0.23872521049E+03  0.43480987022E+03  0.00000000000E+00 0.  1.
          5    1    4    4  501    0 -0.13799435148E+03 -0.12850755732E+03 -0.27515554405E+03  0.33359358380E+03  0.41800000000E+01 0. -1.
         -5    1    4    4    0  501 -0.34892584837E+03 -0.55747732360E+03 -0.12671760213E+04  0.14276844033E+04  0.41800000000E+01 0. -1.
</event>
<event>
11    1  0.8864208E-009  0.1296193E+03  0.7561462E-02  0.1119738E+00
         22   -1    0    0    0    0  0.00000000000E+00  0.00000000000E+00  0.37845267300E+03  0.37845267300E+03  0.00000000000E+00 0.  1.
         22   -1    0    0    0    0 -0.00000000000E+00 -0.00000000000E+00 -0.66673798480E+03  0.66673798480E+03  0.00000000000E+00 0. -1.
         24    2    1    2    0    0 -0.79282219430E+01 -0.34920440902E+02 -0.45045934450E+03  0.45944401309E+03  0.83023407667E+02 0.  0.
         25    2    1    2    0    0 -0.42937650888E+02  0.29176393416E+02 -0.18414873898E+03  0.22859029515E+03  0.12509141127E+03 0.  0.
        -24    2    1    2    0    0  0.50865872831E+02  0.57440474860E+01  0.34632277168E+03  0.35715634955E+03  0.70716792518E+02 0.  0.
        -11    1    3    3    0    0 -0.11585738071E+02  0.24920349591E+02 -0.92401812409E+02  0.96402012878E+02  0.00000000000E+00 0.  1.
         12    1    3    3    0    0  0.36575161276E+01 -0.59840790493E+02 -0.35805753209E+03  0.36304200021E+03  0.00000000000E+00 0. -1.
         11    1    5    5    0    0 -0.62128054739E+01  0.17482416854E+02  0.17934887158E+03  0.18030599432E+03  0.00000000000E+00 0. -1.
        -12    1    5    5    0    0  0.57078678305E+02 -0.11738369368E+02  0.16697390009E+03  0.17685035523E+03  0.00000000000E+00 0.  1.
          5    1    4    4  501    0 -0.19541638208E+02  0.72550481718E+02 -0.15198058961E+03  0.16959074279E+03  0.41800000000E+01 0.  1.
         -5    1    4    4    0  501 -0.23396012679E+02 -0.43374088302E+02 -0.32168149367E+02  0.58999552363E+02  0.41800000000E+01 0.  1.
</event>
<event>
11    1  0.8864208E-009  0.1380736E+03  0.7561462E-02  0.1109729E+00
         22   -1    0    0    0    0  0.00000000000E+00  0.00000000000E+00  0.93222759143E+02  0.93222759143E+02  0.00000000000E+00 0.  1.
         22   -1    0    0    0    0 -0.00000000000E+00 -0.00000000000E+00 -0.19467824230E+04  0.19467824230E+04  0.00000000000E+00 0. -1.
         24    2    1    2    0    0  0.20356978909E+02  0.19724849054E+02 -0.17078214904E+04  0.17101765843E+04  0.85124790874E+02 0.  0.
         25    2    1    2    0    0 -0.22780165422E+02  0.41439406645E+02 -0.17902235370E+03  0.22347073745E+03  0.12511597424E+03 0.  0.
        -24    2    1    2    0    0  0.24231865135E+01 -0.61164255699E+02  0.33284180265E+02  0.10635786041E+03  0.80356828009E+02 0.  0.
        -11    1    3    3    0    0  0.19586867061E+02  0.52965057754E+02 -0.10727763059E+04  0.10742615814E+04  0.00000000000E+00 0.  1.
         12    1    3    3    0    0  0.77011184828E+00 -0.33240208700E+02 -0.63504518453E+03  0.63591500292E+03  0.00000000000E+00 0. -1.
         13    1    5    5    0    0 -0.25442547469E+02  0.11809787560E+01 -0.78309690373E+01  0.26646613454E+02  0.00000000000E+00 0. -1.
        -14    1    5    5    0    0  0.27865733982E+02 -0.62345234455E+02  0.41115149302E+02  0.79711246959E+02  0.00000000000E+00 0.  1.
          5    1    4    4  501    0  0.31352296572E+01 -0.39047457522E+02 -0.10072498057E+03  0.10815510951E+03  0.41800000000E+01 0. -1.
         -5    1    4    4    0  501 -0.25915395080E+02  0.80486864168E+02 -0.78297373134E+02  0.11531562793E+03  0.41800000000E+01 0. -1.
</event>
<event>
11    1  0.8864208E-009  0.1648959E+03  0.7561462E-02  0.1082561E+00
         22   -1    0    0    0    0  0.00000000000E+00  0.00000000000E+00  0.47273113626E+03  0.47273113626E+03  0.00000000000E+00 0. -1.
         22   -1    0    0    0    0 -0.00000000000E+00 -0.00000000000E+00 -0.15395225399E+04  0.15395225399E+04  0.00000000000E+00 0.  1.
         24    2    1    2    0    0 -0.80360206303E+02  0.74220143841E+02 -0.13091149855E+04  0.13159800464E+04  0.77814167368E+02 0.  0.
         25    2    1    2    0    0  0.60409464670E+02 -0.70158597997E+02 -0.19601267083E+03  0.25027849572E+03  0.12508727352E+03 0.  0.
        -24    2    1    2    0    0  0.19950741633E+02 -0.40615458438E+01  0.43833625272E+03  0.44599513405E+03  0.79739958013E+02 0.  0.
        -11    1    3    3    0    0 -0.81866479117E+02  0.83923426558E+02 -0.12776643489E+04  0.12830321314E+04  0.00000000000E+00 0.  1.
         12    1    3    3    0    0  0.15062728143E+01 -0.97032827162E+01 -0.31450636665E+02  0.32947914955E+02  0.00000000000E+00 0. -1.
         11    1    5    5    0    0  0.39303760499E+02  0.14056944008E+02  0.37525593402E+03  0.37757038984E+03  0.00000000000E+00 0. -1.
        -12    1    5    5    0    0 -0.19353018866E+02 -0.18118489852E+02  0.63080318696E+02  0.68424744212E+02  0.00000000000E+00 0.  1.
          5    1    4    4  501    0 -0.33243484496E+02 -0.43333284162E+02 -0.96460586332E+02  0.11092799418E+03  0.41800000000E+01 0. -1.
         -5    1    4    4    0  501  0.93652949166E+02 -0.26825313835E+02 -0.99552084502E+02  0.13935050154E+03  0.41800000000E+01 0. -1.
</event>
<event>
11    1  0.8864208E-009  0.1565948E+03  0.7561462E-02  0.1090324E+00
         22   -1    0    0    0    0  0.00000000000E+00  0.00000000000E+00  0.14345470512E+04  0.14345470512E+04  0.00000000000E+00 0.  1.
         22   -1    0    0    0    0 -0.00000000000E+00 -0.00000000000E+00 -0.23829098421E+03  0.23829098421E+03  0.00000000000E+00 0. -1.
         24    2    1    2    0    0 -0.75751343818E+02 -0.51709659792E+02 -0.19301480330E+03  0.22817599146E+03  0.79983834484E+02 0.  0.
         25    2    1    2    0    0  0.99384494335E+02  0.12977620043E+03  0.41048071257E+03  0.45919541028E+03  0.12508744749E+03 0.  0.
        -24    2    1    2    0    0 -0.23633150517E+02 -0.78066540634E+02  0.97879015772E+03  0.98546663368E+03  0.80382850577E+02 0.  0.
        -13    1    3    3    0    0 -0.48573060904E+02 -0.61647925965E+02 -0.82226369423E+02  0.11367051003E+03  0.00000000000E+00 0.  1.
         14    1    3    3    0    0 -0.27178282914E+02  0.99382661729E+01 -0.11078843388E+03  0.11450548143E+03  0.00000000000E+00 0. -1.
         13    1    5    5    0    0 -0.66764591519E+01 -0.59678503987E+02  0.28654700960E+03  0.29277173302E+03  0.00000000000E+00 0. -1.
        -14    1    5    5    0    0 -0.16956691365E+02 -0.18388036647E+02  0.69224314813E+03  0.69269490066E+03  0.00000000000E+00 0.  1.
          5    1    4    4  501    0  0.12605617916E+03  0.10424343175E+03  0.36810939410E+03  0.40283849343E+03  0.41800000000E+01 0. -1.
         -5    1    4    4    0  501 -0.26671684824E+02  0.25532768673E+02  0.42371318467E+02  0.56356916844E+02  0.41800000000E+01 0. -1.
</event>
<event>
11    1  0.8864208E-009  0.1834172E+03  0.7561462E-02  0.1066912E+00
         22   -1    0    0    0    0  0.00000000000E+00  0.00000000000E+00  0.19818010847E+03  0.19818010847E+03  0.00000000000E+00 0. -1.
         22   -1    0    0    0    0 -0.00000000000E+00 -0.00000000000E+00 -0.42415660403E+04  0.42415660403E+04  0.00000000000E+00 0. -1.
         24    2    1    2    0    0 -0.12934540503E+03  0.32737408079E+02 -0.39931093506E+04  0.39961289644E+04  0.79513789526E+02 0.  0.
         25    2    1    2    0    0  0.14668516379E+03 -0.48575569454E+02 -0.19378837033E+03  0.27762798868E+03  0.12508894595E+03 0.  0.
        -24    2    1    2    0    0 -0.17339758764E+02  0.15838161375E+02  0.14351178908E+03  0.16598919570E+03  0.80032898837E+02 0.  0.
        -11    1    3    3    0    0 -0.43551716631E+02  0.15043375547E+02 -0.55679453716E+03  0.55869778215E+03  0.00000000000E+00 0.  1.
         12    1    3    3    0    0 -0.85793688396E+02  0.17694032532E+02 -0.34363148134E+04  0.34374311822E+04  0.00000000000E+00 0. -1.
         13    1    5    5    0    0 -0.23815767736E+01  0.10363094690E+01  0.14487781425E+03  0.14490109353E+03  0.00000000000E+00 0. -1.
        -14    1    5    5    0    0 -0.14958181990E+02  0.14801851906E+02 -0.13660251741E+01  0.21088102169E+02  0.00000000000E+00 0.  1.
          5    1    4    4  501    0  0.13566463981E+03 -0.10199367993E+02 -0.82127340100E+02  0.15896947504E+03  0.41800000000E+01 0.  1.
         -5    1    4    4    0  501  0.11020523982E+02 -0.38376201461E+02 -0.11166103023E+03  0.11865851364E+03  0.41800000000E+01 0.  1.
</event>
<event>
11    1  0.8864208E-009  0.1441809E+03  0.7561462E-02  0.1102978E+00
         22   -1    0    0    0    0  0.00000000000E+00  0.00000000000E+00  0.45439097468E+03  0.45439097468E+03  0.00000000000E+00 0.  1.
         22   -1    0    0    0    0 -0.00000000000E+00 -0.00000000000E+00 -0.54571804928E+03  0.54571804928E+03  0.00000000000E+00 0.  1.
         24    2    1    2    0    0 -0.12142010483E+02  0.59248628792E+02 -0.47695598339E+03  0.48754141601E+03  0.80943151623E+02 0.  0.
         25    2    1    2    0    0  0.72246340106E+02 -0.87640395600E+02  0.75246509644E+02  0.18495930315E+03  0.12509010356E+03 0.  0.
        -24    2    1    2    0    0 -0.60104329623E+02  0.28391766809E+02  0.31038239915E+03  0.32760830481E+03  0.81063831724E+02 0.  0.
        -13    1    3    3    0    0  0.42556197822E+01  0.62673474407E+02 -0.45781856460E+03  0.46210811807E+03  0.00000000000E+00 0.  1.
         14    1    3    3    0    0 -0.16397630266E+02 -0.34248456157E+01 -0.19137418791E+02  0.25433297934E+02  0.00000000000E+00 0. -1.
         11    1    5    5    0    0 -0.14628666780E+01 -0.25189923854E+02  0.82974508679E+02  0.86726243625E+02  0.00000000000E+00 0. -1.
        -12    1    5    5    0    0 -0.58641462945E+02  0.53581690663E+02  0.22740789047E+03  0.24088206118E+03  0.00000000000E+00 0.  1.
          5    1    4    4  501    0  0.45048739610E+02 -0.75112653450E+02  0.10883754345E+03  0.13976545679E+03  0.41800000000E+01 0. -1.
         -5    1    4    4    0  501  0.27197600496E+02 -0.12527742151E+02 -0.33591033806E+02  0.45193846354E+02  0.41800000000E+01 0. -1.
</event>
<event>
11    1  0.8864208E-009  0.2042709E+03  0.7561462E-02  0.1051544E+00
         22   -1    0    0    0    0  0.00000000000E+00  0.00000000000E+00  0.68322273499E+03  0.68322273499E+03  0.00000000000E+00 0.  1.
         22   -1    0    0    0    0 -0.00000000000E+00 -0.00000000000E+00 -0.12930054730E+04  0.12930054730E+04  0.00000000000E+00 0. -1.
        -24    2    1    2    0    0  0.10323096006E+02 -0.62178311440E+01 -0.11627930806E+04  0.11656860724E+04  0.81185240712E+02 0.  0.
         25    2    1    2    0    0 -0.16300940693E+03  0.54818917552E+02 -0.16760989349E+02  0.21332489568E+03  0.12509756146E+03 0.  0.
         24    2    1    2    0    0  0.15268631092E+03 -0.48601086408E+02  0.56977133198E+03  0.59721723989E+03  0.79711264793E+02 0.  0.
        -11    1    5    5    0    0  0.49682457293E+02 -0.19986394484E+00  0.30503288766E+03  0.30905250211E+03  0.00000000000E+00 0.  1.
         12    1    5    5    0    0  0.10300385363E+03 -0.48401222463E+02  0.26473844432E+03  0.28816473778E+03  0.00000000000E+00 0. -1.
         13    1    3    3    0    0  0.37077707847E+02  0.11771078274E+02 -0.91199248659E+03  0.91282178452E+03  0.00000000000E+00 0. -1.
        -14    1    3    3    0    0 -0.26754611842E+02 -0.17988909418E+02 -0.25080059406E+03  0.25286428790E+03  0.00000000000E+00 0.  1.
          5    1    4    4  501    0 -0.10410663684E+03  0.40716227629E+02 -0.70516747704E+02  0.13223496941E+03  0.41800000000E+01 0.  1.
         -5    1    4    4    0  501 -0.58902770084E+02  0.14102689922E+02  0.53755758355E+02  0.81089926273E+02  0.41800000000E+01 0.  1.
</event>
<event>
11    1  0.8864208E-009  0.1632805E+03  0.7561462E-02  0.1084032E+00
         22   -1    0    0    0    0  0.00000000000E+00  0.00000000000E+00  0.25038751097E+04  0.25038751097E+04  0.00000000000E+00 0.  1.
         22   -1    0    0    0    0 -0.00000000000E+00 -0.00000000000E+00 -0.80887327470E+03  0.80887327470E+03  0.00000000000E+00 0.  1.
        -24    2    1    2    0    0  0.52575247735E+01  0.44033240983E+02 -0.71498048349E+03  0.72088705555E+03  0.80712373358E+02 0.  0.
         25    2    1    2    0    0 -0.65780411683E+01 -0.14808844377E+03  0.16361032817E+02  0.19465558239E+03  0.12509857935E+03 0.  0.
         24    2    1    2    0    0  0.13205163948E+01  0.10405520279E+03  0.23936212857E+04  0.23972057465E+04  0.79644853003E+02 0.  0.
        -13    1    5    5    0    0 -0.25791230868E+01  0.26024889680E+02  0.14854197033E+04  0.14856499055E+04  0.00000000000E+00 0.  1.
         14    1    5    5    0    0  0.38996394815E+01  0.78030313110E+02  0.90820158241E+03  0.91155584099E+03  0.00000000000E+00 0. -1.
         11    1    3    3    0    0 -0.14691881026E+02 -0.12998102940E+02 -0.59990676771E+02  0.63116426923E+02  0.00000000000E+00 0. -1.
        -12    1    3    3    0    0  0.19949405799E+02  0.57031343923E+02 -0.65498980672E+03  0.65777062863E+03  0.00000000000E+00 0.  1.
          5    1    4    4  501    0  0.37617897237E+02 -0.41162599074E+02  0.49018831629E+02  0.74362517503E+02  0.41800000000E+01 0.  1.
         -5    1    4    4    0  501 -0.44195938406E+02 -0.10692584470E+03 -0.32657798811E+02  0.12029306489E+03  0.41800000000E+01 0.  1.
</event>
<event>
11    1  0.8864208E-009  0.1458268E+03  0.7561462E-02  0.1101221E+00
         22   -1    0    0    0    0  0.00000000000E+00  0.00000000000E+00  0.12423194759E+04  0.12423194759E+04  0.00000000000E+00 0.  1.
         22   -1    0    0    0    0 -0.00000000000E+00 -0.00000000000E+00 -0.13642532370E+04  0.13642532370E+04  0.00000000000E+00 0. -1.
         24    2    1    2    0    0  0.71832662191E+02 -0.19017447511E+02 -0.12802106844E+04  0.12848650414E+04  0.80107324571E+02 0.  0.
         25    2    1    2    0    0 -0.11088753863E+03 -0.41228662906E+02  0.14380435998E+02  0.17280897375E+03  0.12514110276E+03 0.  0.
        -24    2    1    2    0    0  0.39054876442E+02  0.60246110417E+02  0.11438964874E+04  0.11488986978E+04  0.79461730831E+02 0.  0.
        -13    1    3    3    0    0 -0.78055448765E+01  0.12489871314E+02 -0.65345247170E+02  0.66984511224E+02  0.00000000000E+00 0.  1.
         14    1    3    3    0    0  0.79638207067E+02 -0.31507318825E+02 -0.12148654373E+04  0.12178805302E+04  0.00000000000E+00 0. -1.
         13    1    5    5    0    0 -0.50734157354E+01  0.33525669491E+02  0.15536250266E+03  0.15901955004E+03  0.00000000000E+00 0. -1.
        -14    1    5    5    0    0  0.44128292178E+02  0.26720440926E+02  0.98853398472E+03  0.98987914771E+03  0.00000000000E+00 0.  1.
          5    1    4    4  501    0 -0.34814741405E+01 -0.47286180850E+02  0.39966728956E+02  0.62152356230E+02  0.41800000000E+01 0.  1.
         -5    1    4    4    0  501 -0.10740606449E+03  0.60575179439E+01 -0.25586292957E+02  0.11065661752E+03  0.41800000000E+01 0.  1.
</event>
<event>
11    1  0.8864208E-009  0.1658260E+03  0.7561462E-02  0.1081722E+00
         22   -1    0    0    0    0  0.00000000000E+00  0.00000000000E+00  0.16310326786E+04  0.16310326786E+04  0.00000000000E+00 0.  1.
         22   -1    0    0    0    0 -0.00000000000E+00 -0.00000000000E+00 -0.27168446638E+03  0.27168446638E+03  0.00000000000E+00 0.  1.
        -24    2    1    2    0    0  0.43289903540E+02 -0.85183621027E+02 -0.14559115833E+03  0.19408559957E+03  0.85686460624E+02 0.  0.
         25    2    1    2    0    0 -0.77395971496E+02  0.15157133414E+03  0.11797628935E+02  0.21154046570E+03  0.12508468669E+03 0.  0.
         24    2    1    2    0    0  0.34106067956E+02 -0.66387713109E+02  0.14931417417E+04  0.14970910798E+04  0.78986632214E+02 0.  0.
        -13    1    5    5    0    0  0.36352469542E+02 -0.80013909910E+02  0.10297157222E+04  0.10334593346E+04  0.00000000000E+00 0.  1.
         14    1    5    5    0    0 -0.22464015860E+01  0.13626196801E+02  0.46342601951E+03  0.46363174516E+03  0.00000000000E+00 0. -1.
         11    1    3    3    0    0  0.54697851916E+02 -0.95261413597E+02 -0.13981298373E+03  0.17780399980E+03  0.00000000000E+00 0. -1.
        -12    1    3    3    0    0 -0.11407948376E+02  0.10077792570E+02 -0.57781746006E+01  0.16281599766E+02  0.00000000000E+00 0.  1.
          5    1    4    4  501    0 -0.82228994544E+02  0.14892421604E+03 -0.26853987624E+02  0.17227489289E+03  0.41800000000E+01 0.  1.
         -5    1    4    4    0  501  0.48330230478E+01  0.26471180936E+01  0.38651616559E+02  0.39265572817E+02  0.41800000000E+01 0.  1.
</event>
<event>
11    1  0.8864208E-009  0.2143632E+03  0.7561462E-02  0.1044807E+00
         22   -1    0    0    0    0  0.00000000000E+00  0.00000000000E+00  0.33802250233E+03  0.33802250233E+03  0.00000000000E+00 0.  1.
         22   -1    0    0    0    0 -0.00000000000E+00 -0.00000000000E+00 -0.98237275172E+03  0.98237275172E+03  0.00000000000E+00 0.  1.
        -24    2    1    2    0    0  0.11984872157E+03 -0.58119234627E+02 -0.68241659424E+03  0.69981397607E+03  0.79408006620E+02 0.  0.
         25    2    1    2    0    0 -0.25247510764E+03 -0.42412856944E+02 -0.17807057983E+03  0.33600570486E+03  0.12509265322E+03 0.  0.
         24    2    1    2    0    0  0.13262638607E+03  0.10053209157E+03  0.21613692468E+03  0.28457557311E+03  0.81065571508E+02 0.  0.
        -13    1    5    5    0    0  0.10903474018E+03  0.10704412572E+03  0.15026846818E+03  0.21430733059E+03  0.00000000000E+00 0.  1.
         14    1    5    5    0    0  0.23591645892E+02 -0.65120341511E+01  0.65868456500E+02  0.70268242517E+02  0.00000000000E+00 0. -1.
         13    1    3    3    0    0  0.90541863372E+01  0.97013974956E+01 -0.15686100563E+02  0.20546268626E+02  0.00000000000E+00 0. -1.
        -14    1    3    3    0    0  0.11079453523E+03 -0.67820632123E+02 -0.66673049368E+03  0.67926770744E+03  0.00000000000E+00 0.  1.
          5    1    4    4  501    0 -0.92399883057E+02  0.42852358460E+02 -0.47345395338E+02  0.11239716133E+03  0.41800000000E+01 0. -1.
         -5    1    4    4    0  501 -0.16007522458E+03 -0.85265215404E+02 -0.13072518449E+03  0.22360854354E+03  0.41800000000E+01 0. -1.
</event>
<event>
11    1  0.8864208E-009  0.1750894E+03  0.7561462E-02  0.1073686E+00
         22   -1    0    0    0    0  0.00000000000E+00  0.00000000000E+00  0.58163597336E+03  0.58163597336E+03  0.00000000000E+00 0. -1.
         22   -1    0    0    0    0 -0.00000000000E+00 -0.00000000000E+00 -0.26158351105E+04  0.26158351105E+04  0.00000000000E+00 0. -1.
        -24    2    1    2    0    0  0.85270712619E+02  0.10458316868E+02 -0.25320268807E+04  0.25347294116E+04  0.79451840722E+02 0.  0.
         25    2    1    2    0    0 -0.17361951292E+03 -0.78584319048E+02  0.11402169265E+03  0.25488829027E+03  0.12509142118E+03 0.  0.
         24    2    1    2    0    0  0.88348800306E+02  0.68126002180E+02  0.38380605083E+03  0.40785338199E+03  0.81182718955E+02 0.  0.
        -13    1    5    5    0    0  0.38980306019E+01 -0.91794765480E+01  0.11822925326E+03  0.11864912034E+03  0.00000000000E+00 0.  1.
         14    1    5    5    0    0  0.84450769704E+02  0.77305478728E+02  0.26557679757E+03  0.28920426165E+03  0.00000000000E+00 0. -1.
         13    1    3    3    0    0  0.38393429971E+02  0.28478299642E+02 -0.55206453629E+03  0.55413023852E+03  0.00000000000E+00 0. -1.
        -14    1    3    3    0    0  0.46877282648E+02 -0.18019982774E+02 -0.19799623444E+04  0.19805991731E+04  0.00000000000E+00 0.  1.
          5    1    4    4  501    0 -0.93418304981E+02 -0.97282921396E+02  0.10684762729E+03  0.17211866360E+03  0.41800000000E+01 0.  1.
         -5    1    4    4    0  501 -0.80201207944E+02  0.18698602348E+02  0.71740653575E+01  0.82769626670E+02  0.41800000000E+01 0.  1.
</event>
<event>
11    1  0.8864208E-009  0.1490381E+03  0.7561462E-02  0.1097866E+00
         22   -1    0    0    0    0  0.00000000000E+00  0.00000000000E+00  0.21748285338E+03  0.21748285338E+03  0.00000000000E+00 0. -1.
         22   -1    0    0    0    0 -0.00000000000E+00 -0.00000000000E+00 -0.35157757375E+04  0.35157757375E+04  0.00000000000E+00 0. -1.
        -24    2    1    2    0    0 -0.38589049621E+02  0.72068403737E+02 -0.31699802785E+04  0.31720561242E+04  0.80511609314E+02 0.  0.
         25    2    1    2    0    0 -0.12176039239E+02 -0.83510591486E+02 -0.31621260498E+03  0.35037573566E+03  0.12510183760E+03 0.  0.
         24    2    1    2    0    0  0.50765088860E+02  0.11442187748E+02  0.18789999940E+03  0.21082673101E+03  0.80208994663E+02 0.  0.
        -13    1    5    5    0    0  0.12128132523E+01  0.17840767953E+01 -0.81242811451E+01  0.84058188251E+01  0.00000000000E+00 0.  1.
         14    1    5    5    0    0  0.49552275608E+02  0.96581109531E+01  0.19602428055E+03  0.20242091218E+03  0.00000000000E+00 0. -1.
         11    1    3    3    0    0  0.13159575716E+02  0.59412827903E+02 -0.18524686067E+04  0.18534678302E+04  0.00000000000E+00 0. -1.
        -12    1    3    3    0    0 -0.51748625337E+02  0.12655575834E+02 -0.13175116718E+04  0.13185882940E+04  0.00000000000E+00 0.  1.
          5    1    4    4  501    0  0.45508435721E+02 -0.75563322191E+02 -0.22890533484E+03  0.24534864601E+03  0.41800000000E+01 0. -1.
         -5    1    4    4    0  501 -0.57684474961E+02 -0.79472692943E+01 -0.87307270142E+02  0.10502708965E+03  0.41800000000E+01 0. -1.
</event>
<event>
11    1  0.8864208E-009  0.1542234E+03  0.7561462E-02  0.1092640E+00
         22   -1    0    0    0    0  0.00000000000E+00  0.00000000000E+00  0.52657744335E+03  0.52657744335E+03  0.00000000000E+00 0.  1.
         22   -1    0    0    0    0 -0.00000000000E+00 -0.00000000000E+00 -0.46376607957E+03  0.46376607957E+03  0.00000000000E+00 0. -1.
         24    2    1    2    0    0 -0.16537727077E+02 -0.26190783504E+01 -0.42288816175E+03  0.43076126878E+03  0.80252833884E+02 0.  0.
         25    2    1    2    0    0 -0.78367401472E+02 -0.13683505757E+02  0.21020454396E+03  0.25722013522E+03  0.12509020631E+03 0.  0.
        -24    2    1    2    0    0  0.94905128549E+02  0.16302584107E+02  0.27549498156E+03  0.30236211892E+03  0.79073436889E+02 0.  0.
        -13    1    3    3    0    0  0.28188360595E+02 -0.18622403311E+02 -0.14879494744E+03  0.15258215480E+03  0.00000000000E+00 0.  1.
         14    1    3    3    0    0 -0.44726087672E+02  0.16003324960E+02 -0.27409321430E+03  0.27817911398E+03  0.00000000000E+00 0. -1.
         13    1    5    5    0    0 -0.36414667043E+01  0.24376852573E+02  0.72323282913E+02  0.76407777565E+02  0.00000000000E+00 0. -1.
        -14    1    5    5    0    0  0.98546595254E+02 -0.80742684663E+01  0.20317169865E+03  0.22595434136E+03  0.00000000000E+00 0.  1.
          5    1    4    4  501    0  0.11027683384E+01  0.46027093186E+02  0.90037092339E+02  0.10121195484E+03  0.41800000000E+01 0.  1.
         -5    1    4    4    0  501 -0.79470169811E+02 -0.59710598943E+02  0.12016745163E+03  0.15600818038E+03  0.41800000000E+01 0.  1.
</event>
<event>
11    1  0.8864208E-009  0.1329376E+03  0.7561462E-02  0.1115711E+00
         22   -1    0    0    0    0  0.00000000000E+00  0.00000000000E+00  0.68432057470E+03  0.68432057470E+03  0.00000000000E+00 0.  1.
         22   -1    0    0    0    0 -0.00000000000E+00 -0.00000000000E+00 -0.10936166058E+04  0.10936166058E+04  0.00000000000E+00 0.  1.
         24    2    1    2    0    0 -0.26056646963E+02  0.38239581039E+02 -0.10397260956E+04  0.10451618044E+04  0.95872984451E+02 0.  0.
         25    2    1    2    0    0 -0.11024014549E+02 -0.14392382882E+02  0.36122790307E+02  0.13145647355E+03  0.12508908377E+03 0.  0.
        -24    2    1    2    0    0  0.37080661512E+02 -0.23847198157E+02  0.59430727418E+03  0.60131890254E+03  0.80247256014E+02 0.  0.
        -11    1    3    3    0    0 -0.41003990294E+01  0.22658038482E+02 -0.97211049524E+03  0.97238316261E+03  0.00000000000E+00 0.  1.
         12    1    3    3    0    0 -0.21956247934E+02  0.15581542557E+02 -0.67615600366E+02  0.72778641816E+02  0.00000000000E+00 0. -1.
         13    1    5    5    0    0 -0.48272185122E+01  0.25786264726E+02  0.19632700210E+03  0.19807202034E+03  0.00000000000E+00 0. -1.
        -14    1    5    5    0    0  0.41907880024E+02 -0.49633462883E+02  0.39798027208E+03  0.40324688220E+03  0.00000000000E+00 0.  1.
          5    1    4    4  501    0 -0.43100704057E+02 -0.57400491053E+02  0.27362373825E+02  0.76932821115E+02  0.41800000000E+01 0. -1.
         -5    1    4    4    0  501  0.32076689508E+02  0.43008108171E+02  0.87604164815E+01  0.54523652438E+02  0.41800000000E+01 0. -1.
</event>
<event>
11    1  0.8864208E-009  0.1530474E+03  0.7561462E-02  0.1093805E+00
         22   -1    0    0    0    0  0.00000000000E+00  0.00000000000E+00  0.33597442062E+03  0.33597442062E+03  0.00000000000E+00 0. -1.
         22   -1    0    0    0    0 -0.00000000000E+00 -0.00000000000E+00 -0.37158038848E+03  0.37158038848E+03  0.00000000000E+00 0.  1.
        -24    2    1    2    0    0  0.28823643887E+02 -0.65616552981E+02 -0.27317639813E+03  0.29379084119E+03  0.80940591775E+02 0.  0.
         25    2    1    2    0    0  0.63104808442E+02  0.68754737437E+02  0.10417889263E+02  0.15642073924E+03  0.12509789958E+03 0.  0.
         24    2    1    2    0    0 -0.91928452329E+02 -0.31381844568E+01  0.22715254101E+03  0.25734322868E+03  0.78527523257E+02 0.  0.
        -11    1    5    5    0    0  0.90106788512E+01 -0.15972514946E+02  0.46839876113E+02  0.50301963792E+02  0.00000000000E+00 0.  1.
         12    1    5    5    0    0 -0.10093913118E+03  0.12834330489E+02  0.18031266490E+03  0.20704126488E+03  0.00000000000E+00 0. -1.
         11    1    3    3    0    0  0.49839438142E+02 -0.58571498280E+02 -0.14926463096E+03  0.16791223916E+03  0.00000000000E+00 0. -1.
        -12    1    3    3    0    0 -0.21015794254E+02 -0.70450547009E+01 -0.12391176717E+03  0.12587860202E+03  0.00000000000E+00 0.  1.
          5    1    4    4  501    0  0.41492531973E+02 -0.16874409524E+02  0.42964004525E+02  0.62207346761E+02  0.41800000000E+01 0.  1.
         -5    1    4    4    0  501  0.21612276469E+02  0.85629146961E+02 -0.32546115262E+02  0.94213392477E+02  0.41800000000E+01 0.  1.
</event>
<event>
11    1  0.8864208E-009  0.1463412E+03  0.7561462E-02  0.1100677E+00
         22   -1    0    0    0    0  0.00000000000E+00  0.00000000000E+00  0.14162303522E+03  0.14162303522E+03  0.00000000000E+00 0. -1.
         22   -1    0    0    0    0 -0.00000000000E+00 -0.00000000000E+00 -0.30170417383E+04  0.30170417383E+04  0.00000000000E+00 0.  1.
         24    2    1    2    0    0  0.47896443760E+02  0.21499021660E+02 -0.24447438099E+04  0.24465814862E+04  0.78945519109E+02 0.  0.
         25    2    1    2    0    0 -0.10648209402E+03  0.25127539018E+02 -0.53386062193E+03  0.55912797139E+03  0.12508834948E+03 0.  0.
        -24    2    1    2    0    0  0.58585650263E+02 -0.46626560678E+02  0.10318572879E+03  0.15295531596E+03  0.84508694677E+02 0.  0.
        -11    1    3    3    0    0  0.38797090133E+02  0.40304718965E+02 -0.22545063653E+04  0.22552003538E+04  0.00000000000E+00 0.  1.
         12    1    3    3    0    0  0.90993536273E+01 -0.18805697305E+02 -0.19023744463E+03  0.19138113237E+03  0.00000000000E+00 0. -1.
         13    1    5    5    0    0  0.13935942906E+02 -0.63559050115E+02  0.62444088135E+02  0.90184408293E+02  0.00000000000E+00 0. -1.
        -14    1    5    5    0    0  0.44649707358E+02  0.16932489436E+02  0.40741640653E+02  0.62770907662E+02  0.00000000000E+00 0.  1.
          5    1    4    4  501    0 -0.10971846048E+03  0.10266184718E+02 -0.23220924096E+03  0.25706446489E+03  0.41800000000E+01 0.  1.
         -5    1    4    4    0  501  0.32363664587E+01  0.14861354300E+02 -0.30165138097E+03  0.30206350651E+03  0.41800000000E+01 0.  1.
</event>
<event>
11    1  0.8864208E-009  0.1596854E+03  0.7561462E-02  0.1087374E+00
         22   -1    0    0    0    0  0.00000000000E+00  0.00000000000E+00  0.21035542510E+04  0.21035542510E+04  0.00000000000E+00 0.  1.
         22   -1    0    0    0    0 -0.00000000000E+00 -0.00000000000E+00 -0.11528889978E+03  0.11528889978E+03  0.00000000000E+00 0.  1.
        -24    2    1    2    0    0 -0.27991823127E+01  0.10114358150E+03 -0.60625785051E+02  0.14322728099E+03  0.81244745716E+02 0.  0.
         25    2    1    2    0    0 -0.46495961661E+02 -0.76450298282E+02  0.48595224475E+03  0.50970934955E+03  0.12509002472E+03 0.  0.
         24    2    1    2    0    0  0.49295143974E+02 -0.24693283218E+02  0.15629388915E+04  0.15659065202E+04  0.79028362218E+02 0.  0.
        -13    1    5    5    0    0  0.20033336336E+02  0.25025912193E+02  0.86260758641E+03  0.86320303462E+03  0.00000000000E+00 0.  1.
         14    1    5    5    0    0  0.29261807637E+02 -0.49719195411E+02  0.70033130512E+03  0.70270348562E+03  0.00000000000E+00 0. -1.
         13    1    3    3    0    0  0.17135527120E+02 -0.11469783392E+01  0.74795601239E+01  0.18731942468E+02  0.00000000000E+00 0. -1.
        -14    1    3    3    0    0 -0.19934709432E+02  0.10229055984E+03 -0.68105345175E+02  0.12449533852E+03  0.00000000000E+00 0.  1.
          5    1    4    4  501    0  0.34260257162E+02 -0.69059089921E+01  0.22605131193E+03  0.22877527144E+03  0.41800000000E+01 0. -1.
         -5    1    4    4    0  501 -0.80756218822E+02 -0.69544389289E+02  0.25990093283E+03  0.28093407811E+03  0.41800000000E+01 0. -1.
</event>
<event>
11    1  0.8864208E-009  0.1590068E+03  0.7561462E-02  0.1088015E+00
         22   -1    0    0    0    0  0.00000000000E+00  0.00000000000E+00  0.19130965144E+04  0.19130965144E+04  0.00000000000E+00 0. -1.
         22   -1    0    0    0    0 -0.00000000000E+00 -0.00000000000E+00 -0.44146433882E+03  0.44146433882E+03  0.00000000000E+00 0. -1.
        -24    2    1    2    0    0 -0.67352794352E+01 -0.79430479323E+01 -0.41326772377E+03  0.42127446529E+03  0.81077170655E+02 0.  0.
         25    2    1    2    0    0  0.98503625787E+02 -0.25831961628E+02  0.27793428848E+03  0.32134976750E+03  0.12509176561E+03 0.  0.
         24    2    1    2    0    0 -0.91768346352E+02  0.33775009560E+02  0.16069656108E+04  0.16119366204E+04  0.80243461352E+02 0.  0.
        -13    1    5    5    0    0  0.14541011472E+02  0.28229426928E+00  0.14465590732E+03  0.14538518572E+03  0.00000000000E+00 0.  1.
         14    1    5    5    0    0 -0.10630935782E+03  0.33492715291E+02  0.14623097035E+04  0.14665514347E+04  0.00000000000E+00 0. -1.
         13    1    3    3    0    0  0.26936327712E+02 -0.26152561228E+01 -0.33259852823E+03  0.33369774692E+03  0.00000000000E+00 0. -1.
        -14    1    3    3    0    0 -0.33671607147E+02 -0.53277918095E+01 -0.80669195536E+02  0.87576718378E+02  0.00000000000E+00 0.  1.
          5    1    4    4  501    0  0.12327880245E+03 -0.42360806751E+02  0.23754845624E+03  0.27099601942E+03  0.41800000000E+01 0. -1.
         -5    1    4    4    0  501 -0.24775176660E+02  0.16528845123E+02  0.40385832238E+02  0.50353748075E+02  0.41800000000E+01 0. -1.
</event>
<event>
11    1  0.8864208E-009  0.1438085E+03  0.7561462E-02  0.1103379E+00
         22   -1    0    0    0    0  0.00000000000E+00  0.00000000000E+00  0.20437882337E+04  0.20437882337E+04  0.00000000000E+00 0.  1.
         22   -1    0    0    0    0 -0.00000000000E+00 -0.00000000000E+00 -0.99918302036E+03  0.99918302036E+03  0.00000000000E+00 0.  1.
        -24    2    1    2    0    0  0.63254686749E+02  0.19846380348E+02 -0.97273097791E+03  0.97825024174E+03  0.79830732546E+02 0.  0.
         25    2    1    2    0    0 -0.24122405764E+02  0.43406200023E+02  0.18340009083E+03  0.22748353773E+03  0.12508868038E+03 0.  0.
         24    2    1    2    0    0 -0.39132280985E+02 -0.63252580371E+02  0.18339361004E+04  0.18372374746E+04  0.81164605923E+02 0.  0.
        -11    1    5    5    0    0 -0.18087774670E+02  0.16181126352E+02  0.65007730950E+03  0.65053017206E+03  0.00000000000E+00 0.  1.
         12    1    5    5    0    0 -0.21044506316E+02 -0.79433706723E+02  0.11838587909E+04  0.11867073025E+04  0.00000000000E+00 0. -1.
         13    1    3    3    0    0  0.41791139262E+02 -0.28318259259E+02 -0.52645286282E+03  0.52886769603E+03  0.00000000000E+00 0. -1.
        -14    1    3    3    0    0  0.21463547487E+02  0.48164639607E+02 -0.44627811509E+03  0.44938254571E+03  0.00000000000E+00 0.  1.
          5    1    4    4  501    0 -0.55559437632E+02  0.20261747988E+02  0.25088396090E+02  0.64376156766E+02  0.41800000000E+01 0. -1.
         -5    1    4    4    0  501  0.31437031869E+02  0.23144452035E+02  0.15831169474E+03  0.16310738096E+03  0.41800000000E+01 0. -1.
</event>
<event>
11    1  0.8864208E-009  0.1271111E+03  0.7561462E-02  0.1122870E+00
         22   -1    0    0    0    0  0.00000000000E+00  0.00000000000E+00  0.24169607172E+02  0.24169607172E+02  0.00000000000E+00 0.  1.
         22   -1    0    0    0    0 -0.00000000000E+00 -0.00000000000E+00 -0.10530317100E+04  0.10530317100E+04  0.00000000000E+00 0.  1.
        -24    2    1    2    0    0  0.94115061413E+01  0.11449018659E+02 -0.52617190779E+03  0.53198207621E+03  0.76996080382E+02 0.  0.
         25    2    1    2    0    0 -0.12480714155E+02 -0.28994413567E+02 -0.32631216057E+03  0.35089314658E+03  0.12509967999E+03 0.  0.
         24    2    1    2    0    0  0.30692080138E+01  0.17545394907E+02 -0.17637803449E+03  0.19432609440E+03  0.79599993687E+02 0.  0.
        -11    1    5    5    0    0 -0.34104958469E+02  0.33392833167E+01 -0.42147242720E+02  0.54320245527E+02  0.00000000000E+00 0.  1.
         12    1    5    5    0    0  0.37174166482E+02  0.14206111591E+02 -0.13423079177E+03  0.14000584887E+03  0.00000000000E+00 0. -1.
         11    1    3    3    0    0  0.34055386494E+02 -0.19175348206E+02 -0.25661948442E+03  0.25957854902E+03  0.00000000000E+00 0. -1.
        -12    1    3    3    0    0 -0.24643880353E+02  0.30624366865E+02 -0.26955242337E+03  0.27240352719E+03  0.00000000000E+00 0.  1.
          5    1    4    4  501    0  0.11586872530E+02  0.17192592166E+02 -0.74802619943E+00  0.21163005070E+02  0.41800000000E+01 0.  1.
         -5    1    4    4    0  501 -0.24067586685E+02 -0.46187005733E+02 -0.32556413437E+03  0.32973014151E+03  0.41800000000E+01 0.  1.
</event>
<event>
11    1  0.8864208E-009  0.1326119E+03  0.7561462E-02  0.1116101E+00
         22   -1    0    0    0    0  0.00000000000E+00  0.00000000000E+00  0.82934866936E+03  0.82934866936E+03  0.00000000000E+00 0.  1.
         22   -1    0    0    0    0 -0.00000000000E+00 -0.00000000000E+00 -0.18421244754E+03  0.18421244754E+03  0.00000000000E+00 0. -1.
        -24    2    1    2    0    0 -0.62796079744E+01 -0.30742713042E+02 -0.13804486444E+03  0.16243303624E+03  0.79646461215E+02 0.  0.
         25    2    1    2    0    0  0.48172501838E+02  0.16306855052E+02  0.11710075944E+03  0.17873634951E+03  0.12509033264E+03 0.  0.
         24    2    1    2    0    0 -0.41892893864E+02  0.14435857990E+02  0.66608032682E+03  0.67239173114E+03  0.80524715327E+02 0.  0.
        -11    1    5    5    0    0  0.19341964230E+02 -0.12729240743E+02  0.23490839933E+03  0.23604681998E+03  0.00000000000E+00 0.  1.
         12    1    5    5    0    0 -0.61234858094E+02  0.27165098733E+02  0.43117192749E+03  0.43634491116E+03  0.00000000000E+00 0. -1.
         11    1    3    3    0    0 -0.22085524835E+02 -0.17210850016E+02 -0.13881591119E+03  0.14161158486E+03  0.00000000000E+00 0. -1.
        -12    1    3    3    0    0  0.15805916860E+02 -0.13531863027E+02  0.77104675399E+00  0.20821451387E+02  0.00000000000E+00 0.  1.
          5    1    4    4  501    0  0.51297599895E+02  0.20526175921E+02 -0.57455667564E+01  0.55706836118E+02  0.41800000000E+01 0. -1.
         -5    1    4    4    0  501 -0.31250980572E+01 -0.42193208691E+01  0.12284632619E+03  0.12302951339E+03  0.41800000000E+01 0. -1.
</event>
<event>
11    1  0.8864208E-009  0.1633496E+03  0.7561462E-02  0.1083969E+00
         22   -1    0    0    0    0  0.00000000000E+00  0.00000000000E+00  0.15547022008E+03  0.15547022008E+03  0.00000000000E+00 0.  1.
         22   -1    0    0    0    0 -0.00000000000E+00 -0.00000000000E+00 -0.10635618941E+04  0.10635618941E+04  0.00000000000E+00 0.  1.
         24    2    1    2    0    0  0.11823935937E+02 -0.14150321901E+02 -0.87318496726E+03  0.87702067270E+03  0.79832551111E+02 0.  0.
         25    2    1    2    0    0 -0.38643589983E+02  0.11197552147E+03 -0.97856062291E+02  0.19812963347E+03  0.12509076015E+03 0.  0.
        -24    2    1    2    0    0  0.26819654046E+02 -0.97825199573E+02  0.62949355553E+02  0.14388180800E+03  0.80313696182E+02 0.  0.
        -11    1    3    3    0    0 -0.10479041697E+02 -0.23793032688E+02 -0.78824451989E+03  0.78867315275E+03  0.00000000000E+00 0.  1.
         12    1    3    3    0    0  0.22302977634E+02  0.96427107862E+01 -0.84940447368E+02  0.88347519953E+02  0.00000000000E+00 0. -1.
         13    1    5    5    0    0  0.27777020604E+01  0.12379427502E+02  0.18955061491E+02  0.22809213273E+02  0.00000000000E+00 0. -1.
        -14    1    5    5    0    0  0.24041951985E+02 -0.11020462708E+03  0.43994294062E+02  0.12107259473E+03  0.00000000000E+00 0.  1.
          5    1    4    4  501    0 -0.47484236817E+02  0.13537253073E+03 -0.67574370148E+02  0.15863241385E+03  0.41800000000E+01 0. -1.
         -5    1    4    4    0  501  0.88406468341E+01 -0.23397009256E+02 -0.30281692143E+02  0.39497219619E+02  0.41800000000E+01 0. -1.
</event>
<event>
11    1  0.8864208E-009  0.1054288E+04  0.7561462E-02  0.8629027E-01
         22   -1    0    0    0    0  0.00000000000E+00  0.00000000000E+00  0.15636093352E+03  0.15636093352E+03  0.00000000000E+00 0.  1.
         22   -1    0    0    0    0 -0.00000000000E+00 -0.00000000000E+00 -0.17771748211E+04  0.17771748211E+04  0.00000000000E+00 0.  1.
        -24    2    1    2    0    0 -0.10348049143E+03 -0.26571379472E+02 -0.33897784009E+03  0.36455559329E+03  0.81120615203E+02 0.  0.
         25    2    1    2    0    0  0.43665928983E+03  0.19217302198E+03 -0.51611207117E+03  0.71387748426E+03  0.12509031443E+03 0.  0.
         24    2    1    2    0    0 -0.33317879840E+03 -0.16560164251E+03 -0.76572397629E+03  0.85510267703E+03  0.80220724846E+02 0.  0.
        -11    1    5    5    0    0 -0.14512048853E+03 -0.56229030914E+02 -0.40474573529E+03  0.43363668011E+03  0.00000000000E+00 0.  1.
         12    1    5    5    0    0 -0.18805830987E+03 -0.10937261159E+03 -0.36097824100E+03  0.42146599691E+03  0.00000000000E+00 0. -1.
         13    1    3    3    0    0 -0.53661971805E+02  0.49194805547E+01 -0.26265404378E+03  0.26812488736E+03  0.00000000000E+00 0. -1.
        -14    1    3    3    0    0 -0.49818519622E+02 -0.31490860027E+02 -0.76323796311E+02  0.96430705928E+02  0.00000000000E+00 0.  1.
          5    1    4    4  501    0 -0.43723078214E+01  0.17576869249E+02 -0.24163937145E+02  0.30486581747E+02  0.41800000000E+01 0.  1.
         -5    1    4    4    0  501  0.44103159765E+03  0.17459615273E+03 -0.49194813402E+03  0.68339090252E+03  0.41800000000E+01 0.  1.
</event>
<event>
11    1  0.8864208E-009  0.1965752E+03  0.7561462E-02  0.1056972E+00
         22   -1    0    0    0    0  0.00000000000E+00  0.00000000000E+00  0.21309954487E+03  0.21309954487E+03  0.00000000000E+00 0.  1.
         22   -1    0    0    0    0 -0.00000000000E+00 -0.00000000000E+00 -0.64571560211E+03  0.64571560211E+03  0.00000000000E+00 0. -1.
        -24    2    1    2    0    0  0.10977459228E+03 -0.92191598021E+02 -0.42905320943E+03  0.45979126321E+03  0.82289715896E+02 0.  0.
         25    2    1    2    0    0 -0.16588431247E+03  0.98211628824E+02 -0.10942656938E+03  0.25452816826E+03  0.12508910900E+03 0.  0.
         24    2    1    2    0    0  0.56109720194E+02 -0.60200308021E+01  0.10586372157E+03  0.14449571552E+03  0.80544042539E+02 0.  0.
        -11    1    5    5    0    0  0.70322362743E+02  0.16012442214E+02  0.78249734030E+02  0.10641735706E+03  0.00000000000E+00 0.  1.
         12    1    5    5    0    0 -0.14212642550E+02 -0.22032473016E+02  0.27613987537E+02  0.38078358461E+02  0.00000000000E+00 0. -1.
         11    1    3    3    0    0  0.10848915381E+03 -0.46224576904E+02 -0.28042298468E+03  0.30420989192E+03  0.00000000000E+00 0. -1.
        -12    1    3    3    0    0  0.12854384721E+01 -0.45967021118E+02 -0.14863022475E+03  0.15558137129E+03  0.00000000000E+00 0.  1.
          5    1    4    4  501    0 -0.86423029525E+02  0.10362529910E+03 -0.11097634170E+03  0.17475801401E+03  0.41800000000E+01 0. -1.
         -5    1    4    4    0  501 -0.79461282950E+02 -0.54136702732E+01  0.15497723210E+01  0.79770154244E+02  0.41800000000E+01 0. -1.
</event>
<event>
11    1  0.8864208E-009  0.4862876E+03  0.7561462E-02  0.9424695E-01
         22   -1    0    0    0    0  0.00000000000E+00  0.00000000000E+00  0.14205569016E+04  0.14205569016E+04  0.00000000000E+00 0.  1.
         22   -1    0    0    0    0 -0.00000000000E+00 -0.00000000000E+00 -0.21584424747E+03  0.21584424747E+03  0.00000000000E+00 0.  1.
        -24    2    1    2    0    0 -0.22675841149E+02 -0.22515695780E+02  0.96610331636E+01  0.87540239741E+02  0.80924703792E+02 0.  0.
         25    2    1    2    0    0  0.46566241010E+03  0.14179319549E+03  0.48953031148E+03  0.70159367531E+03  0.12508784474E+03 0.  0.
         24    2    1    2    0    0 -0.44298656895E+03 -0.11927749971E+03  0.70552130947E+03  0.84726723399E+03  0.98169371374E+02 0.  0.
        -13    1    5    5    0    0 -0.38664638811E+03 -0.13123398170E+03  0.58161426593E+03  0.71062855397E+03  0.00000000000E+00 0.  1.
         14    1    5    5    0    0 -0.56340180847E+02  0.11956481991E+02  0.12390704354E+03  0.13663868002E+03  0.00000000000E+00 0. -1.
         13    1    3    3    0    0  0.25849166455E+02 -0.16373414072E+02 -0.13472627617E+02  0.33433213870E+02  0.00000000000E+00 0. -1.
        -14    1    3    3    0    0 -0.48525007603E+02 -0.61422817075E+01  0.23133660781E+02  0.54107025871E+02  0.00000000000E+00 0.  1.
          5    1    4    4  501    0  0.36963951604E+03  0.10936615342E+03  0.45045138823E+03  0.59288974767E+03  0.41800000000E+01 0.  1.
         -5    1    4    4    0  501  0.96022894065E+02  0.32427042071E+02  0.39078923251E+02  0.10870392764E+03  0.41800000000E+01 0.  1.
</event>
<event>
11    1  0.8864208E-009  0.1633690E+03  0.7561462E-02  0.1083951E+00
         22   -1    0    0    0    0  0.00000000000E+00  0.00000000000E+00  0.23035259023E+04  0.23035259023E+04  0.00000000000E+00 0.  1.
         22   -1    0    0    0    0 -0.00000000000E+00 -0.00000000000E+00 -0.11109669196E+04  0.11109669196E+04  0.00000000000E+00 0.  1.
        -24    2    1    2    0    0  0.10015211784E+03 -0.32608493824E+02 -0.10956367650E+04  0.11028498849E+04  0.69023092646E+02 0.  0.
         25    2    1    2    0    0 -0.84330218304E+02 -0.47992228443E+02  0.63532133554E+03  0.65474448805E+03  0.12506920298E+03 0.  0.
         24    2    1    2    0    0 -0.15821899539E+02  0.80600722267E+02  0.16528744121E+04  0.16568984490E+04  0.81066880907E+02 0.  0.
        -11    1    5    5    0    0 -0.14060523412E+02  0.83479874700E+02  0.16507307204E+04  0.16529000270E+04  0.00000000000E+00 0.  1.
         12    1    5    5    0    0 -0.17613761272E+01 -0.28791524329E+01  0.21436916404E+01  0.39984219941E+01  0.00000000000E+00 0. -1.
         13    1    3    3    0    0  0.57419219433E+02 -0.43941965366E+02 -0.45697082558E+03  0.46265559384E+03  0.00000000000E+00 0. -1.
        -14    1    3    3    0    0  0.42732898410E+02  0.11333471542E+02 -0.63866593938E+03  0.64019429106E+03  0.00000000000E+00 0.  1.
          5    1    4    4  501    0 -0.10991586897E+03 -0.25713120975E+02  0.35992525652E+03  0.37723510643E+03  0.41800000000E+01 0. -1.
         -5    1    4    4    0  501  0.25585650669E+02 -0.22279107468E+02  0.27539607902E+03  0.27750938162E+03  0.41800000000E+01 0. -1.
</event>
<event>
11    1  0.8864208E-009  0.1879062E+03  0.7561462E-02  0.1063421E+00
         22   -1    0    0    0    0  0.00000000000E+00  0.00000000000E+00  0.70096799751E+02  0.70096799751E+02  0.00000000000E+00 0. -1.
         22   -1    0    0    0    0 -0.00000000000E+00 -0.00000000000E+00 -0.11299944739E+04  0.11299944739E+04  0.00000000000E+00 0.  1.
         24    2    1    2    0    0  0.71951667454E+02  0.15638909464E+02 -0.53751594794E+03  0.54857612129E+03  0.81183425785E+02 0.  0.
         25    2    1    2    0    0  0.54013241797E+02  0.80715364462E+02 -0.40789967451E+03  0.43756403412E+03  0.12509092352E+03 0.  0.
        -24    2    1    2    0    0 -0.12596490925E+03 -0.96354273926E+02 -0.11448205174E+03  0.21395111827E+03  0.86704304237E+02 0.  0.
        -11    1    3    3    0    0  0.40295923825E+02  0.12758752907E+02 -0.48740308808E+03  0.48923237579E+03  0.00000000000E+00 0.  1.
         12    1    3    3    0    0  0.31655743629E+02  0.28801565573E+01 -0.50112859855E+02  0.59343745495E+02  0.00000000000E+00 0. -1.
         11    1    5    5    0    0 -0.32914315543E+01  0.14389056831E+02 -0.44889322987E+01  0.15428188207E+02  0.00000000000E+00 0. -1.
        -12    1    5    5    0    0 -0.12267347770E+03 -0.11074333076E+03 -0.10999311944E+03  0.19852293007E+03  0.00000000000E+00 0.  1.
          5    1    4    4  501    0 -0.10324913595E+02  0.40631177923E+01 -0.25188824111E+03  0.25216714928E+03  0.41800000000E+01 0. -1.
         -5    1    4    4    0  501  0.64338155392E+02  0.76652246669E+02 -0.15601143340E+03  0.18539688484E+03  0.41800000000E+01 0. -1.
</event>
<event>
11    1  0.8864208E-009  0.1480548E+03  0.7561462E-02  0.1098883E+00
         22   -1    0    0    0    0  0.00000000000E+00  0.00000000000E+00  0.97217208792E+03  0.97217208792E+03  0.00000000000E+00 0. -1.
         22   -1    0    0    0    0 -0.00000000000E+00 -0.00000000000E+00 -0.19931160238E+03  0.19931160238E+03  0.00000000000E+00 0. -1.
        -24    2    1    2    0    0 -0.16553255956E+02 -0.59325478236E+02 -0.14102568497E+03  0.17529817316E+03  0.83950479710E+02 0.  0.
         25    2    1    2    0    0  0.41343742275E+02 -0.21312147349E+02  0.83299121389E+02  0.15731359375E+03  0.12508121563E+03 0.  0.
         24    2    1    2    0    0 -0.24790486319E+02  0.80637625585E+02  0.83058704911E+03  0.83887192339E+03  0.81940605466E+02 0.  0.
        -13    1    5    5    0    0 -0.38114783564E+02  0.27921196333E+02  0.18281395491E+03  0.18882074050E+03  0.00000000000E+00 0.  1.
         14    1    5    5    0    0  0.13324297245E+02  0.52716429252E+02  0.64777309420E+03  0.65005118289E+03  0.00000000000E+00 0. -1.
         11    1    3    3    0    0 -0.15916213046E+02  0.19555727250E+02 -0.35760388112E+02  0.43755658650E+02  0.00000000000E+00 0. -1.
        -12    1    3    3    0    0 -0.63704291038E+00 -0.78881205486E+02 -0.10526529686E+03  0.13154251451E+03  0.00000000000E+00 0.  1.
          5    1    4    4  501    0  0.39507105212E+02  0.41907872585E+01  0.11184402377E+03  0.11876418699E+03  0.41800000000E+01 0. -1.
         -5    1    4    4    0  501  0.18366370632E+01 -0.25502934608E+02 -0.28544902377E+02  0.38549406753E+02  0.41800000000E+01 0. -1.
</event>
<event>
11    1  0.8864208E-009  0.1704962E+03  0.7561462E-02  0.1077601E+00
         22   -1    0    0    0    0  0.00000000000E+00  0.00000000000E+00  0.17006458547E+03  0.17006458547E+03  0.00000000000E+00 0. -1.
         22   -1    0    0    0    0 -0.00000000000E+00 -0.00000000000E+00 -0.13820061140E+04  0.13820061140E+04  0.00000000000E+00 0. -1.
         24    2    1    2    0    0 -0.42946388722E+02  0.10627594760E+03 -0.12035587056E+04  0.12117074874E+04  0.80885770105E+02 0.  0.
         25    2    1    2    0    0  0.78293378260E+02 -0.11070561719E+03 -0.10117296042E+03  0.21040265188E+03  0.12509085195E+03 0.  0.
        -24    2    1    2    0    0 -0.35346989539E+02  0.44296695811E+01  0.92790137473E+02  0.12996056024E+03  0.83729958577E+02 0.  0.
        -11    1    3    3    0    0 -0.43810368810E+02  0.30892354889E+02 -0.28058204629E+03  0.28565708587E+03  0.00000000000E+00 0.  1.
         12    1    3    3    0    0  0.86398008834E+00  0.75383592715E+02 -0.92297665929E+03  0.92605040150E+03  0.00000000000E+00 0. -1.
         11    1    5    5    0    0 -0.44096040951E+02 -0.29704334241E+01  0.10457036763E+03  0.11352641141E+03  0.00000000000E+00 0. -1.
        -12    1    5    5    0    0  0.87490514130E+01  0.74001030052E+01 -0.11780230156E+02  0.16434148826E+02  0.00000000000E+00 0.  1.
          5    1    4    4  501    0  0.90565933676E+01  0.24877256612E+02  0.13127059974E+01  0.26834592917E+02  0.41800000000E+01 0.  1.
         -5    1    4    4    0  501  0.69236784893E+02 -0.13558287380E+03 -0.10248566642E+03  0.18356805896E+03  0.41800000000E+01 0.  1.
</event>
<event>
11    1  0.8864208E-009  0.1823773E+03  0.7561462E-02  0.1067736E+00
         22   -1    0    0    0    0  0.00000000000E+00  0.00000000000E+00  0.24339525511E+04  0.24339525511E+04  0.00000000000E+00 0. -1.
         22   -1    0    0    0    0 -0.00000000000E+00 -0.00000000000E+00 -0.36626901164E+03  0.36626901164E+03  0.00000000000E+00 0. -1.
        -24    2    1    2    0    0 -0.90707523648E+02  0.73886670627E+02 -0.17538493366E+03  0.22562166980E+03  0.80362727577E+02 0.  0.
         25    2    1    2    0    0  0.15824764447E+03 -0.86907056148E+02 -0.91279811550E+02  0.23785411495E+03  0.12508965830E+03 0.  0.
         24    2    1    2    0    0 -0.67540120822E+02  0.13020385522E+02  0.23343482847E+04  0.23367457780E+04  0.80422126749E+02 0.  0.
        -11    1    5    5    0    0  0.15284671019E+02 -0.66791392644E+01  0.19783736456E+03  0.19853930313E+03  0.00000000000E+00 0.  1.
         12    1    5    5    0    0 -0.82824791841E+02  0.19699524786E+02  0.21365109201E+04  0.21382064748E+04  0.00000000000E+00 0. -1.
         13    1    3    3    0    0 -0.94108869412E+02  0.86587384312E+02 -0.16560986412E+03  0.20923785871E+03  0.00000000000E+00 0. -1.
        -14    1    3    3    0    0  0.34013457635E+01 -0.12700713686E+02 -0.97750695386E+01  0.16383811083E+02  0.00000000000E+00 0.  1.
          5    1    4    4  501    0  0.48302157477E+02 -0.95613125646E+02 -0.61276821377E+02  0.12347991517E+03  0.41800000000E+01 0. -1.
         -5    1    4    4    0  501  0.10994548699E+03  0.87060694981E+01 -0.30002990173E+02  0.11437419978E+03  0.41800000000E+01 0. -1.
</event>
<event>
11    1  0.8864208E-009  0.1751887E+03  0.7561462E-02  0.1073603E+00
         22   -1    0    0    0    0  0.00000000000E+00  0.00000000000E+00  0.40110457606E+03  0.40110457606E+03  0.00000000000E+00 0.  1.
         22   -1    0    0    0    0 -0.00000000000E+00 -0.00000000000E+00 -0.33226125408E+04  0.33226125408E+04  0.00000000000E+00 0.  1.
         24    2    1    2    0    0  0.72776862537E+02 -0.97073035239E+02 -0.30943404845E+04  0.30977675271E+04  0.80628606858E+02 0.  0.
         25    2    1    2    0    0 -0.14863977601E+03  0.92627325935E+02 -0.16497713948E+03  0.27118008690E+03  0.12509028123E+03 0.  0.
        -24    2    1    2    0    0  0.75862913475E+02  0.44457093048E+01  0.33780965917E+03  0.35476950289E+03  0.77272817872E+02 0.  0.
        -13    1    3    3    0    0  0.22166149377E+02 -0.75502338019E+01 -0.14637697403E+04  0.14639570338E+04  0.00000000000E+00 0.  1.
         14    1    3    3    0    0  0.50610713160E+02 -0.89522801437E+02 -0.16305707442E+04  0.16338104933E+04  0.00000000000E+00 0. -1.
         11    1    5    5    0    0  0.59209094048E+02  0.33499631429E+02  0.16045202876E+03  0.17427792647E+03  0.00000000000E+00 0. -1.
        -12    1    5    5    0    0  0.16653819427E+02 -0.29053922124E+02  0.17735763041E+03  0.18049157642E+03  0.00000000000E+00 0.  1.
          5    1    4    4  501    0 -0.37590016132E+02 -0.29479229095E+02 -0.54135461274E+02  0.72319809376E+02  0.41800000000E+01 0. -1.
         -5    1    4    4    0  501 -0.11104975988E+03  0.12210655503E+03 -0.11084167821E+03  0.19886027753E+03  0.41800000000E+01 0. -1.
</event>
<event>
11    1  0.8864208E-009  0.1424876E+03  0.7561462E-02  0.1104812E+00
         22   -1    0    0    0    0  0.00000000000E+00  0.00000000000E+00  0.14891252347E+03  0.14891252347E+03  0.00000000000E+00 0. -1.
         22   -1    0    0    0    0 -0.00000000000E+00 -0.00000000000E+00 -0.27665551714E+04  0.27665551714E+04  0.00000000000E+00 0.  1.
         24    2    1    2    0    0  0.17865016849E+02 -0.18587777827E+02 -0.23517893414E+04  0.23537245563E+04  0.91877723432E+02 0.  0.
         25    2    1    2    0    0 -0.27969908131E+02 -0.49687610911E+02 -0.38111806471E+03  0.40515219591E+03  0.12508456407E+03 0.  0.
        -24    2    1    2    0    0  0.10104891283E+02  0.68275388737E+02  0.11526475821E+03  0.15659094267E+03  0.80443280063E+02 0.  0.
        -13    1    3    3    0    0 -0.45168577670E+01 -0.92298841743E+01 -0.21987795111E+04  0.21988035226E+04  0.00000000000E+00 0.  1.
         14    1    3    3    0    0  0.22381874616E+02 -0.93578936524E+01 -0.15300983034E+03  0.15492103364E+03  0.00000000000E+00 0. -1.
         11    1    5    5    0    0  0.23194689246E+02  0.15392280409E+02  0.94123390769E+02  0.98153596955E+02  0.00000000000E+00 0. -1.
        -12    1    5    5    0    0 -0.13089797963E+02  0.52883108329E+02  0.21141367437E+02  0.58437345716E+02  0.00000000000E+00 0.  1.
          5    1    4    4  501    0 -0.74160236171E+02 -0.41749264265E+02 -0.18838729682E+03  0.20676070154E+03  0.41800000000E+01 0. -1.
         -5    1    4    4    0  501  0.46190328040E+02 -0.79383466453E+01 -0.19273076788E+03  0.19839149437E+03  0.41800000000E+01 0. -1.
</event>
<event>
11    1  0.8864208E-009  0.1451277E+03  0.7561462E-02  0.1101964E+00
         22   -1    0    0    0    0  0.00000000000E+00  0.00000000000E+00  0.12502230904E+04  0.12502230904E+04  0.00000000000E+00 0. -1.
         22   -1    0    0    0    0 -0.00000000000E+00 -0.00000000000E+00 -0.99080302112E+03  0.99080302112E+03  0.00000000000E+00 0.  1.
        -24    2    1    2    0    0 -0.74166053810E+02  0.27548773010E+01 -0.94689725217E+03  0.95326771960E+03  0.81220355760E+02 0.  0.
         25    2    1    2    0    0  0.47363449240E+02  0.57820820199E+02  0.10076333706E+03  0.17716662909E+03  0.12509284870E+03 0.  0.
         24    2    1    2    0    0  0.26802604570E+02 -0.60575697500E+02  0.11055539844E+04  0.11105917629E+04  0.82320450332E+02 0.  0.
        -13    1    5    5    0    0  0.21753637997E+00 -0.10654554943E+02  0.14104230815E+02  0.17677561766E+02  0.00000000000E+00 0.  1.
         14    1    5    5    0    0  0.26585068190E+02 -0.49921142557E+02  0.10914497536E+04  0.10929142011E+04  0.00000000000E+00 0. -1.
         13    1    3    3    0    0 -0.53141097356E+02  0.28017116573E+01 -0.23054120259E+03  0.23660319505E+03  0.00000000000E+00 0. -1.
        -14    1    3    3    0    0 -0.21024956454E+02 -0.46834356324E-01 -0.71635604957E+03  0.71666452455E+03  0.00000000000E+00 0.  1.
          5    1    4    4  501    0 -0.29312224555E+02  0.61888999239E+02  0.42692040836E+02  0.80805553559E+02  0.41800000000E+01 0.  1.
         -5    1    4    4    0  501  0.76675673795E+02 -0.40681790397E+01  0.58071296219E+02  0.96361075530E+02  0.41800000000E+01 0.  1.
</event>
<event>
11    1  0.8864208E-009  0.1438767E+03  0.7561462E-02  0.1103305E+00
         22   -1    0    0    0    0  0.00000000000E+00  0.00000000000E+00  0.11163872953E+04  0.11163872953E+04  0.00000000000E+00 0. -1.
         22   -1    0    0    0    0 -0.00000000000E+00 -0.00000000000E+00 -0.33062256654E+03  0.33062256654E+03  0.00000000000E+00 0.  1.
        -24    2    1    2    0    0 -0.52365069172E+02  0.42930074426E+02 -0.24236623391E+03  0.26415658423E+03  0.80325698854E+02 0.  0.
         25    2    1    2    0    0  0.10901000005E+03 -0.21605518473E+02  0.18601786281E+02  0.16835487751E+03  0.12508940718E+03 0.  0.
         24    2    1    2    0    0 -0.56644930879E+02 -0.21324555953E+02  0.10095291764E+04  0.10144984001E+04  0.79965373409E+02 0.  0.
        -13    1    5    5    0    0 -0.30150625694E+02 -0.35884977765E+02  0.24925760573E+03  0.25362599605E+03  0.00000000000E+00 0.  1.
         14    1    5    5    0    0 -0.26494305185E+02  0.14560421811E+02  0.76027157067E+03  0.76087240406E+03  0.00000000000E+00 0. -1.
         13    1    3    3    0    0 -0.10620839056E+01 -0.21304157973E+02 -0.70228516602E+02  0.73396455727E+02  0.00000000000E+00 0. -1.
        -14    1    3    3    0    0 -0.51302985267E+02  0.64234232399E+02 -0.17213771730E+03  0.19076012851E+03  0.00000000000E+00 0.  1.
          5    1    4    4  501    0  0.70284842495E+02 -0.71036448865E+02 -0.73356558289E+01  0.10028669103E+03  0.41800000000E+01 0.  1.
         -5    1    4    4    0  501  0.38725157556E+02  0.49430930392E+02  0.25937442110E+02  0.68068186478E+02  0.41800000000E+01 0.  1.
</event>
<event>
11    1  0.8864208E-009  0.2039420E+03  0.7561462E-02  0.1051771E+00
         22   -1    0    0    0    0  0.00000000000E+00  0.00000000000E+00  0.16523645115E+04  0.16523645115E+04  0.00000000000E+00 0.  1.
         22   -1    0    0    0    0 -0.00000000000E+00 -0.00000000000E+00 -0.15778743022E+03  0.15778743022E+03  0.00000000000E+00 0. -1.
         24    2    1    2    0    0 -0.28036999479E+02 -0.17256023488E+02 -0.88568291912E+02  0.12395297924E+03  0.80225650778E+02 0.  0.
         25    2    1    2    0    0  0.24265862537E+02  0.17640449301E+03  0.21279932566E+03  0.30436604305E+03  0.12509099856E+03 0.  0.
        -24    2    1    2    0    0  0.37711369423E+01 -0.15914846952E+03  0.13703460475E+04  0.13818329194E+04  0.79192615924E+02 0.  0.
        -11    1    3    3    0    0 -0.44744841461E+02  0.16017132316E+02 -0.36411101385E+02  0.59870006423E+02  0.00000000000E+00 0.  1.
         12    1    3    3    0    0  0.16707841982E+02 -0.33273155804E+02 -0.52157190526E+02  0.64082972812E+02  0.00000000000E+00 0. -1.
         13    1    5    5    0    0  0.26430552452E+02 -0.89352612910E+02  0.51637318705E+03  0.52471299949E+03  0.00000000000E+00 0. -1.
        -14    1    5    5    0    0 -0.22659415510E+02 -0.69795856612E+02  0.85397286048E+03  0.85711991994E+03  0.00000000000E+00 0.  1.
          5    1    4    4  501    0 -0.12594189507E+02  0.34784749598E+02  0.13200285005E+03  0.13715253273E+03  0.41800000000E+01 0.  1.
         -5    1    4    4    0  501  0.36860052044E+02  0.14161974341E+03  0.80796475614E+02  0.16721351032E+03  0.41800000000E+01 0.  1.
</event>
<event>
11    1  0.8864208E-009  0.1255392E+03  0.7561462E-02  0.1124875E+00
         22   -1    0    0    0    0  0.00000000000E+00  0.00000000000E+00  0.33966833441E+03  0.33966833441E+03  0.00000000000E+00 0.  1.
         22   -1    0    0    0    0 -0.00000000000E+00 -0.00000000000E+00 -0.25914503176E+04  0.25914503176E+04  0.00000000000E+00 0.  1.
        -24    2    1    2    0    0 -0.20341044244E+01  0.10430718527E+02 -0.25187332452E+04  0.25200362707E+04  0.80328749576E+02 0.  0.
         25    2    1    2    0    0 -0.40248748680E+01 -0.84498999647E+01 -0.68188436522E+01  0.12562627315E+03  0.12509142037E+03 0.  0.
         24    2    1    2    0    0  0.60589792923E+01 -0.19808185627E+01  0.27377010563E+03  0.28545610814E+03  0.80588361855E+02 0.  0.
        -13    1    5    5    0    0  0.11632844537E+02  0.30512499660E+02  0.21980602662E+03  0.22221841743E+03  0.00000000000E+00 0.  1.
         14    1    5    5    0    0 -0.55738652450E+01 -0.32493318223E+02  0.53964079010E+02  0.63237690709E+02  0.00000000000E+00 0. -1.
         13    1    3    3    0    0 -0.17417431893E+02  0.23802865206E+02 -0.35982831898E+03  0.36103512636E+03  0.00000000000E+00 0. -1.
        -14    1    3    3    0    0  0.15383327469E+02 -0.13372146678E+02 -0.21589049262E+04  0.21590011444E+04  0.00000000000E+00 0.  1.
          5    1    4    4  501    0 -0.25288257612E+02 -0.53191834061E+02 -0.34841635609E+02  0.68558581926E+02  0.41800000000E+01 0.  1.
         -5    1    4    4    0  501  0.21263382744E+02  0.44741934096E+02  0.28022791956E+02  0.57067691222E+02  0.41800000000E+01 0.  1.
</event>
<event>
11    1  0.8864208E-009  0.1576014E+03  0.7561462E-02  0.1089355E+00
         22   -1    0    0    0    0  0.00000000000E+00  0.00000000000E+00  0.18545667617E+04  0.18545667617E+04  0.00000000000E+00 0. -1.
         22   -1    0    0    0    0 -0.00000000000E+00 -0.00000000000E+00 -0.13093477413E+03  0.13093477413E+03  0.00000000000E+00 0.  1.
         24    2    1    2    0    0 -0.48381626821E+02  0.83879010551E+02 -0.91982658705E+02  0.15610050343E+03  0.80808956464E+02 0.  0.
         25    2    1    2    0    0  0.15424798068E+02 -0.63841270458E+02  0.10866321096E+04  0.10957784673E+04  0.12508987012E+03 0.  0.
        -24    2    1    2    0    0  0.32956828753E+02 -0.20037740093E+02  0.72898253671E+03  0.73362256512E+03  0.72793307603E+02 0.  0.
        -13    1    3    3    0    0 -0.73654934714E+01  0.76724981452E+02 -0.83450324213E+02  0.11359986745E+03  0.00000000000E+00 0.  1.
         14    1    3    3    0    0 -0.41016133350E+02  0.71540290997E+01 -0.85323344922E+01  0.42500635986E+02  0.00000000000E+00 0. -1.
         11    1    5    5    0    0  0.76778429208E+01  0.96864129865E+01  0.56221898877E+03  0.56235484101E+03  0.00000000000E+00 0. -1.
        -12    1    5    5    0    0  0.25278985832E+02 -0.29724153080E+02  0.16676354794E+03  0.17126772411E+03  0.00000000000E+00 0.  1.
          5    1    4    4  501    0  0.51418877774E+02 -0.64361667802E+02  0.97339716987E+03  0.97688579066E+03  0.41800000000E+01 0.  1.
         -5    1    4    4    0  501 -0.35994079706E+02  0.52039734417E+00  0.11323493972E+03  0.11889267665E+03  0.41800000000E+01 0.  1.
</event>
<event>
11    1  0.1100900E-008  0.1601420E+03  0.7561462E-02  0.1086944E+00
         22   -1    0    0    0    0  0.00000000000E+00  0.00000000000E+00  0.15073762648E+04  0.15073762648E+04  0.00000000000E+00 0.  1.
         22   -1    0    0    0    0 -0.00000000000E+00 -0.00000000000E+00 -0.39481095676E+03  0.39481095676E+03  0.00000000000E+00 0.  1.
        -24    2    1    2    0    0  0.94107119549E+01  0.97132246212E+02 -0.26416190104E+03  0.29293638356E+03  0.80665854572E+02 0.  0.
         25    2    1    2    0    0 -0.90354446516E+02 -0.36349856725E+02 -0.57971392193E+02  0.16880035869E+03  0.12509052998E+03 0.  0.
         24    2    1    2    0    0  0.80943734561E+02 -0.60782389487E+02  0.14346986013E+04  0.14404504793E+04  0.79316579629E+02 0.  0.
        -13    1    5    5    0    0  0.76020827054E+02 -0.59930111440E+02  0.14309090946E+04  0.14341797730E+04  0.00000000000E+00 0.  1.
         14    1    5    5    0    0  0.49229075063E+01 -0.85227804680E+00  0.37895066712E+01  0.62707062597E+01  0.00000000000E+00 0. -1.
         11    1    3    3    0    0  0.74272067852E+01 -0.48402432131E+01  0.91773543392E+00  0.89125525703E+01  0.00000000000E+00 0. -1.
        -12    1    3    3    0    0  0.19835051697E+01  0.10197248942E+03 -0.26507963648E+03  0.28402383099E+03  0.00000000000E+00 0.  1.
          5    1    4    4  501    0 -0.12429809920E+02  0.15431818014E+02 -0.71374789947E+02  0.74192143936E+02  0.41800000000E+01 0. -1.
         -5    1    4    4    0  501 -0.77924636596E+02 -0.51781674738E+02  0.13403397753E+02  0.94608214752E+02  0.41800000000E+01 0. -1.
</event>
<event>
11    1  0.8864208E-009  0.1715898E+03  0.7561462E-02  0.1076656E+00
         22   -1    0    0    0    0  0.00000000000E+00  0.00000000000E+00  0.46391816560E+03  0.46391816560E+03  0.00000000000E+00 0.  1.
         22   -1    0    0    0    0 -0.00000000000E+00 -0.00000000000E+00 -0.22774879662E+03  0.22774879662E+03  0.00000000000E+00 0.  1.
        -24    2    1    2    0    0  0.95259318649E+02  0.57810667833E+02 -0.11939920625E+03  0.18102316298E+03  0.78082033654E+02 0.  0.
         25    2    1    2    0    0 -0.10513899036E+03 -0.10032071277E+03  0.58169590590E+02  0.20037450975E+03  0.12509112752E+03 0.  0.
         24    2    1    2    0    0  0.98796717095E+01  0.42510044940E+02  0.29739898463E+03  0.31026928948E+03  0.76916604838E+02 0.  0.
        -13    1    5    5    0    0  0.18043135735E+02  0.61452522462E+02  0.25760286043E+03  0.26544528808E+03  0.00000000000E+00 0.  1.
         14    1    5    5    0    0 -0.81634640258E+01 -0.18942477522E+02  0.39796124203E+02  0.44824001396E+02  0.00000000000E+00 0. -1.
         11    1    3    3    0    0  0.39556233672E+02 -0.16759640945E+02 -0.39319422783E+02  0.58237429501E+02  0.00000000000E+00 0. -1.
        -12    1    3    3    0    0  0.55703084977E+02  0.74570308779E+02 -0.80079783465E+02  0.12278573348E+03  0.00000000000E+00 0.  1.
          5    1    4    4  501    0 -0.73357744409E+02 -0.12221690572E+03  0.16712435369E+02  0.14357962461E+03  0.41800000000E+01 0.  1.
         -5    1    4    4    0  501 -0.31781245949E+02  0.21896192942E+02  0.41457155222E+02  0.56794885144E+02  0.41800000000E+01 0.  1.
</event>
<event>
11    1  0.8864208E-009  0.1799080E+03  0.7561462E-02  0.1069717E+00
         22   -1    0    0    0    0  0.00000000000E+00  0.00000000000E+00  0.96838242842E+02  0.96838242842E+02  0.00000000000E+00 0. -1.
         22   -1    0    0    0    0 -0.00000000000E+00 -0.00000000000E+00 -0.31645690838E+04  0.31645690838E+04  0.00000000000E+00 0.  1.
         24    2    1    2    0    0 -0.37427731511E+02 -0.12400029764E+03 -0.28219502495E+04  0.28259225894E+04  0.75222083763E+02 0.  0.
         25    2    1    2    0    0 -0.93793400212E+01  0.13408775102E+03 -0.28323955161E+03  0.33754967860E+03  0.12509054695E+03 0.  0.
        -24    2    1    2    0    0  0.46807071533E+02 -0.10087453377E+02  0.37458960155E+02  0.97935058609E+02  0.76781790470E+02 0.  0.
        -13    1    3    3    0    0 -0.54130081736E+02 -0.11730213726E+03 -0.22646445697E+04  0.22683264501E+04  0.00000000000E+00 0.  1.
         14    1    3    3    0    0  0.16702350225E+02 -0.66981603815E+01 -0.55730567981E+03  0.55759613933E+03  0.00000000000E+00 0. -1.
         13    1    5    5    0    0  0.51268897451E+02 -0.34530603382E+02  0.38919509465E+02  0.73045127372E+02  0.00000000000E+00 0. -1.
        -14    1    5    5    0    0 -0.44618259180E+01  0.24443150006E+02 -0.14605493101E+01  0.24889931237E+02  0.00000000000E+00 0.  1.
          5    1    4    4  501    0 -0.44504972737E+02  0.14032254950E+03 -0.23645681451E+03  0.27856849790E+03  0.41800000000E+01 0.  1.
         -5    1    4    4    0  501  0.35125632716E+02 -0.62347984811E+01 -0.46782737101E+02  0.58981180698E+02  0.41800000000E+01 0.  1.
</event>
<event>
11    1  0.8864208E-009  0.1593364E+03  0.7561462E-02  0.1087703E+00
         22   -1    0    0    0    0  0.00000000000E+00  0.00000000000E+00  0.46082023544E+02  0.46082023544E+02  0.00000000000E+00 0.  1.
         22   -1    0    0    0    0 -0.00000000000E+00 -0.00000000000E+00 -0.89029331796E+03  0.89029331796E+03  0.00000000000E+00 0. -1.
        -24    2    1    2    0    0 -0.60899574221E+02  0.69731006974E+02 -0.29917522546E+03  0.32391755519E+03  0.82738114304E+02 0.  0.
         25    2    1    2    0    0  0.11747167448E+02 -0.11909355935E+03 -0.39745465880E+03  0.43352023149E+03  0.12509321916E+03 0.  0.
         24    2    1    2    0    0  0.49152406773E+02  0.49362552380E+02 -0.14758141015E+03  0.17893755483E+03  0.73387704938E+02 0.  0.
        -11    1    5    5    0    0  0.56359108452E+02  0.24301507694E+02 -0.53862113847E+02  0.81658065675E+02  0.00000000000E+00 0.  1.
         12    1    5    5    0    0 -0.72067016792E+01  0.25061044686E+02 -0.93719296304E+02  0.97279489151E+02  0.00000000000E+00 0. -1.
         11    1    3    3    0    0  0.14402454480E+01  0.60197892613E+02 -0.16547289694E+03  0.17608844426E+03  0.00000000000E+00 0. -1.
        -12    1    3    3    0    0 -0.62339819669E+02  0.95331143605E+01 -0.13370232852E+03  0.14782911093E+03  0.00000000000E+00 0.  1.
          5    1    4    4  501    0 -0.13264986617E+02 -0.13582794280E+03 -0.36162492762E+03  0.38654268922E+03  0.41800000000E+01 0.  1.
         -5    1    4    4    0  501  0.25012154065E+02  0.16734383447E+02 -0.35829731190E+02  0.46977542267E+02  0.41800000000E+01 0.  1.
</event>
<event>
11    1  0.8864208E-009  0.1727255E+03  0.7561462E-02  0.1075684E+00
         22   -1    0    0    0    0  0.00000000000E+00  0.00000000000E+00  0.18814548828E+04  0.18814548828E+04  0.00000000000E+00 0.  1.
         22   -1    0    0    0    0 -0.00000000000E+00 -0.00000000000E+00 -0.97297132032E+02  0.97297132032E+02  0.00000000000E+00 0. -1.
        -24    2    1    2    0    0  0.40588032841E+02  0.22079094749E+02 -0.41579991391E+02  0.10362194115E+03  0.82907998221E+02 0.  0.
         25    2    1    2    0    0 -0.14461640780E+03  0.27207390528E+02  0.41900488755E+03  0.46137637520E+03  0.12509562860E+03 0.  0.
         24    2    1    2    0    0  0.10402837496E+03 -0.49286485277E+02  0.14067328546E+04  0.14137536985E+04  0.80939083929E+02 0.  0.
        -13    1    5    5    0    0  0.92799463198E+02 -0.68000903515E+01  0.79085322067E+03  0.79630823067E+03  0.00000000000E+00 0.  1.
         14    1    5    5    0    0  0.11228911764E+02 -0.42486394926E+02  0.61587963392E+03  0.61744546779E+03  0.00000000000E+00 0. -1.
         13    1    3    3    0    0  0.59542504580E+02  0.34198168801E+02 -0.43104097259E+02  0.81072731553E+02  0.00000000000E+00 0. -1.
        -14    1    3    3    0    0 -0.18954471739E+02 -0.12119074051E+02  0.15241058688E+01  0.22549209598E+02  0.00000000000E+00 0.  1.
          5    1    4    4  501    0 -0.16728126949E+03  0.26778162386E+02  0.37990942313E+03  0.41599126828E+03  0.41800000000E+01 0. -1.
         -5    1    4    4    0  501  0.22664861683E+02  0.42922814157E+00  0.39095464424E+02  0.45385106923E+02  0.41800000000E+01 0. -1.
</event>
<event>
11    1  0.8864208E-009  0.1368834E+03  0.7561462E-02  0.1111089E+00
         22   -1    0    0    0    0  0.00000000000E+00  0.00000000000E+00  0.52984620245E+03  0.52984620245E+03  0.00000000000E+00 0. -1.
         22   -1    0    0    0    0 -0.00000000000E+00 -0.00000000000E+00 -0.19668873372E+03  0.19668873372E+03  0.00000000000E+00 0. -1.
        -24    2    1    2    0    0 -0.18493299912E+02 -0.23261771756E+02 -0.14762707975E+03  0.17045344029E+03  0.79859304174E+02 0.  0.
         25    2    1    2    0    0 -0.39051846598E+02  0.67004923732E+01  0.10879842694E+03  0.17045405020E+03  0.12509013632E+03 0.  0.
         24    2    1    2    0    0  0.57545146510E+02  0.16561279382E+02  0.37198612155E+03  0.38562744568E+03  0.82153103269E+02 0.  0.
        -11    1    5    5    0    0  0.16359698593E+02 -0.16225861832E+01  0.69884608469E+01  0.17863681283E+02  0.00000000000E+00 0.  1.
         12    1    5    5    0    0  0.41185447917E+02  0.18183865566E+02  0.36499766070E+03  0.36776376440E+03  0.00000000000E+00 0. -1.
         11    1    3    3    0    0  0.12487021594E+02 -0.56733658209E+01 -0.12997213018E+03  0.13069379255E+03  0.00000000000E+00 0. -1.
        -12    1    3    3    0    0 -0.30980321506E+02 -0.17588405935E+02 -0.17654949577E+02  0.39759647741E+02  0.00000000000E+00 0.  1.
          5    1    4    4  501    0  0.33378576855E+02 -0.27583004009E+02  0.12822112681E+02  0.45352292959E+02  0.41800000000E+01 0. -1.
         -5    1    4    4    0  501 -0.72430423453E+02  0.34283496382E+02  0.95976314259E+02  0.12510175724E+03  0.41800000000E+01 0. -1.
</event>
<event>
11    1  0.8864208E-009  0.1822383E+03  0.7561462E-02  0.1067847E+00
         22   -1    0    0    0    0  0.00000000000E+00  0.00000000000E+00  0.30858316589E+04  0.30858316589E+04  0.00000000000E+00 0.  1.
         22   -1    0    0    0    0 -0.00000000000E+00 -0.00000000000E+00 -0.54919909421E+02  0.54919909421E+02  0.00000000000E+00 0.  1.
        -24    2    1    2    0    0 -0.35309673359E+02  0.11190861762E+03  0.15111697750E+03  0.20772086960E+03  0.80878347216E+02 0.  0.
         25    2    1    2    0    0 -0.28665096942E+02 -0.18635702616E+03  0.48819099108E+03  0.53807851558E+03  0.12508963258E+03 0.  0.
         24    2    1    2    0    0  0.63974770301E+02  0.74448408541E+02  0.23916037809E+04  0.23949521831E+04  0.79949846333E+02 0.  0.
        -11    1    5    5    0    0  0.50479220553E+02  0.48107467389E+02  0.21973918294E+04  0.21984979718E+04  0.00000000000E+00 0.  1.
         12    1    5    5    0    0  0.13495549748E+02  0.26340941152E+02  0.19421195148E+03  0.19645421131E+03  0.00000000000E+00 0. -1.
         13    1    3    3    0    0 -0.13285549733E+02  0.26231681552E+01 -0.62110574537E+01  0.14898458899E+02  0.00000000000E+00 0. -1.
        -14    1    3    3    0    0 -0.22024123626E+02  0.10928544947E+03  0.15732803495E+03  0.19282241070E+03  0.00000000000E+00 0.  1.
          5    1    4    4  501    0  0.67537166420E+01 -0.15614989885E+03  0.45400243573E+03  0.48017089421E+03  0.41800000000E+01 0. -1.
         -5    1    4    4    0  501 -0.35418813584E+02 -0.30207127308E+02  0.34188555349E+02  0.57907621370E+02  0.41800000000E+01 0. -1.
</event>
<event>
11    1  0.8864208E-009  0.1366166E+03  0.7561462E-02  0.1111396E+00
         22   -1    0    0    0    0  0.00000000000E+00  0.00000000000E+00  0.51488405629E+03  0.51488405629E+03  0.00000000000E+00 0. -1.
         22   -1    0    0    0    0 -0.00000000000E+00 -0.00000000000E+00 -0.30057420508E+03  0.30057420508E+03  0.00000000000E+00 0. -1.
         24    2    1    2    0    0  0.20337295177E+02 -0.53010637750E+02 -0.25204223694E+03  0.27093065452E+03  0.81574487839E+02 0.  0.
         25    2    1    2    0    0  0.28366851103E+02  0.39943157085E+02  0.10372876477E+03  0.16972639363E+03  0.12508900037E+03 0.  0.
        -24    2    1    2    0    0 -0.48704146280E+02  0.13067480666E+02  0.36262332337E+03  0.37480121323E+03  0.80233545773E+02 0.  0.
        -13    1    3    3    0    0 -0.15961475662E+02  0.15200904603E+02 -0.51571987272E+02  0.56084811466E+02  0.00000000000E+00 0.  1.
         14    1    3    3    0    0  0.36298770839E+02 -0.68211542353E+02 -0.20047024967E+03  0.21484584305E+03  0.00000000000E+00 0. -1.
         13    1    5    5    0    0 -0.22528161211E+02  0.11578527954E+02  0.33762993409E+03  0.33857872460E+03  0.00000000000E+00 0. -1.
        -14    1    5    5    0    0 -0.26175985069E+02  0.14889527120E+01  0.24993389276E+02  0.36222488622E+02  0.00000000000E+00 0.  1.
          5    1    4    4  501    0  0.97151388835E+01  0.83644482227E+02  0.80899406350E+02  0.11684592281E+03  0.41800000000E+01 0.  1.
         -5    1    4    4    0  501  0.18651712220E+02 -0.43701325142E+02  0.22829358425E+02  0.52880470818E+02  0.41800000000E+01 0.  1.
</event>
<event>
11    1  0.8864208E-009  0.1484171E+03  0.7561462E-02  0.1098507E+00
         22   -1    0    0    0    0  0.00000000000E+00  0.00000000000E+00  0.48848296522E+03  0.48848296522E+03  0.00000000000E+00 0.  1.
         22   -1    0    0    0    0 -0.00000000000E+00 -0.00000000000E+00 -0.87348552920E+03  0.87348552920E+03  0.00000000000E+00 0.  1.
         24    2    1    2    0    0 -0.75596392639E+02  0.24503449307E+02 -0.73818484559E+03  0.74721121365E+03  0.84216969400E+02 0.  0.
         25    2    1    2    0    0  0.97325921621E+02  0.31924321986E+02 -0.72265389418E+02  0.17709312400E+03  0.12509272843E+03 0.  0.
        -24    2    1    2    0    0 -0.21729528982E+02 -0.56427771293E+02  0.42544767104E+03  0.43766415677E+03  0.82993539092E+02 0.  0.
        -13    1    3    3    0    0 -0.60030686522E+01  0.42602636661E+01 -0.44973115336E+03  0.44979139274E+03  0.00000000000E+00 0.  1.
         14    1    3    3    0    0 -0.69593323987E+02  0.20243185641E+02 -0.28845369223E+03  0.29741982091E+03  0.00000000000E+00 0. -1.
         11    1    5    5    0    0 -0.32052024916E+02 -0.62605633939E+00  0.61849002567E+02  0.69663644509E+02  0.00000000000E+00 0. -1.
        -12    1    5    5    0    0  0.10322495934E+02 -0.55801714953E+02  0.36359866847E+03  0.36800051226E+03  0.00000000000E+00 0.  1.
          5    1    4    4  501    0  0.48497505858E+02  0.31662342996E+02  0.28765696996E+02  0.64803161667E+02  0.41800000000E+01 0.  1.
         -5    1    4    4    0  501  0.48828415764E+02  0.26197899053E+00 -0.10103108641E+03  0.11228996233E+03  0.41800000000E+01 0.  1.
</event>
<event>
11    1  0.8864208E-009  0.1088739E+04  0.7561462E-02  0.8598908E-01
         22   -1    0    0    0    0  0.00000000000E+00  0.00000000000E+00  0.94653553915E+03  0.94653553915E+03  0.00000000000E+00 0. -1.
         22   -1    0    0    0    0 -0.00000000000E+00 -0.00000000000E+00 -0.31307670705E+03  0.31307670705E+03  0.00000000000E+00 0. -1.
        -24    2    1    2    0    0 -0.99120791843E+01 -0.26917843962E+03 -0.10177226475E+03  0.29879604707E+03  0.79788484162E+02 0.  0.
         25    2    1    2    0    0 -0.43662737399E+02  0.39416322722E+03  0.67298847023E+03  0.79109576108E+03  0.12509171755E+03 0.  0.
         24    2    1    2    0    0  0.53574816583E+02 -0.12498478760E+03  0.62242626614E+02  0.16972043806E+03  0.80246024340E+02 0.  0.
        -11    1    5    5    0    0  0.57722911109E+02 -0.48537772946E+02  0.78904347397E+01  0.75829472040E+02  0.00000000000E+00 0.  1.
         12    1    5    5    0    0 -0.41480945256E+01 -0.76447014656E+02  0.54352191874E+02  0.93890966017E+02  0.00000000000E+00 0. -1.
         11    1    3    3    0    0  0.26343290480E+02 -0.18954607433E+03 -0.52764739204E+02  0.19850894426E+03  0.00000000000E+00 0. -1.
        -12    1    3    3    0    0 -0.36255369664E+02 -0.79632365290E+02 -0.49007525545E+02  0.10028710282E+03  0.00000000000E+00 0.  1.
          5    1    4    4  501    0 -0.42552293239E+02  0.33082558342E+02  0.10353933752E+03  0.11680333959E+03  0.41800000000E+01 0. -1.
         -5    1    4    4    0  501 -0.11104441602E+01  0.36108066888E+03  0.56944913271E+03  0.67429242148E+03  0.41800000000E+01 0. -1.
</event>
<event>
11    1  0.8864208E-009  0.1940293E+03  0.7561462E-02  0.1058828E+00
         22   -1    0    0    0    0  0.00000000000E+00  0.00000000000E+00  0.50265171706E+03  0.50265171706E+03  0.00000000000E+00 0. -1.
         22   -1    0    0    0    0 -0.00000000000E+00 -0.00000000000E+00 -0.41180599572E+03  0.41180599572E+03  0.00000000000E+00 0.  1.
         24    2    1    2    0    0 -0.14834015483E+03 -0.47862337186E+02 -0.29447955364E+03  0.34815212534E+03  0.10097569019E+03 0.  0.
         25    2    1    2    0    0  0.13271078692E+03 -0.43676868709E+02  0.29873980942E+02  0.18989966852E+03  0.12509839144E+03 0.  0.
        -24    2    1    2    0    0  0.15629367907E+02  0.91539205895E+02  0.35545129403E+03  0.37640591893E+03  0.81927345947E+02 0.  0.
        -13    1    3    3    0    0 -0.41652884762E+02  0.20879512920E+02 -0.14371745620E+03  0.15108151471E+03  0.00000000000E+00 0.  1.
         14    1    3    3    0    0 -0.10668727007E+03 -0.68741850105E+02 -0.15076209744E+03  0.19707061063E+03  0.00000000000E+00 0. -1.
         13    1    5    5    0    0 -0.15559943773E+02  0.68465919425E+01  0.16253549400E+03  0.16342207465E+03  0.00000000000E+00 0. -1.
        -14    1    5    5    0    0  0.31189311681E+02  0.84692613952E+02  0.19291580003E+03  0.21298384428E+03  0.00000000000E+00 0.  1.
          5    1    4    4  501    0  0.14915679831E+03 -0.30776003946E+02 -0.10271927753E+01  0.15235957609E+03  0.41800000000E+01 0.  1.
         -5    1    4    4    0  501 -0.16446011392E+02 -0.12900864764E+02  0.30901173718E+02  0.37540092428E+02  0.41800000000E+01 0.  1.
</event>
<event>
11    1  0.8864208E-009  0.1419726E+03  0.7561462E-02  0.1105375E+00
         22   -1    0    0    0    0  0.00000000000E+00  0.00000000000E+00  0.47116251232E+03  0.47116251232E+03  0.00000000000E+00 0. -1.
         22   -1    0    0    0    0 -0.00000000000E+00 -0.00000000000E+00 -0.93124350985E+03  0.93124350985E+03  0.00000000000E+00 0. -1.
         24    2    1    2    0    0  0.48917510124E+02  0.45981447898E+02 -0.88387614052E+03  0.89005943694E+03  0.80383786692E+02 0.  0.
         25    2    1    2    0    0 -0.73226628856E+02 -0.20570626723E+02  0.10368864619E+03  0.17939948584E+03  0.12509016872E+03 0.  0.
        -24    2    1    2    0    0  0.24309118732E+02 -0.25410821175E+02  0.32010649679E+03  0.33294709939E+03  0.84551514591E+02 0.  0.
        -13    1    3    3    0    0 -0.20017791256E+02  0.22159180209E+02 -0.18593315191E+03  0.18831590006E+03  0.00000000000E+00 0.  1.
         14    1    3    3    0    0  0.68935301380E+02  0.23822267689E+02 -0.69794298861E+03  0.70174353689E+03  0.00000000000E+00 0. -1.
         13    1    5    5    0    0  0.12755186514E+02 -0.29773738764E+02  0.31889699926E+03  0.32053777693E+03  0.00000000000E+00 0. -1.
        -14    1    5    5    0    0  0.11553932218E+02  0.43629175882E+01  0.12094975273E+01  0.12409322458E+02  0.00000000000E+00 0.  1.
          5    1    4    4  501    0 -0.87624188343E+02 -0.35223411723E+02  0.24740040002E+02  0.97715040272E+02  0.41800000000E+01 0.  1.
         -5    1    4    4    0  501  0.14397559486E+02  0.14652785000E+02  0.78948606192E+02  0.81684445564E+02  0.41800000000E+01 0.  1.
</event>
<event>
11    1  0.8864208E-009  0.2199080E+03  0.7561462E-02  0.1041275E+00
         22   -1    0    0    0    0  0.00000000000E+00  0.00000000000E+00  0.20116047929E+03  0.20116047929E+03  0.00000000000E+00 0. -1.
         22   -1    0    0    0    0 -0.00000000000E+00 -0.00000000000E+00 -0.15346264218E+04  0.15346264218E+04  0.00000000000E+00 0.  1.
        -24    2    1    2    0    0 -0.87735212602E+02  0.10268790248E+02 -0.12634835607E+04  0.12689515200E+04  0.77745329514E+02 0.  0.
         25    2    1    2    0    0  0.24613223021E+02  0.16943419231E+03 -0.13357629076E+03  0.25061141242E+03  0.12509875423E+03 0.  0.
         24    2    1    2    0    0  0.63121989581E+02 -0.17970298256E+03  0.63593908962E+02  0.21622396869E+03  0.80193964068E+02 0.  0.
        -11    1    5    5    0    0  0.79556758170E+02 -0.12457552876E+03  0.34610343128E+02  0.15180980202E+03  0.00000000000E+00 0.  1.
         12    1    5    5    0    0 -0.16434768589E+02 -0.55127453795E+02  0.28983565834E+02  0.64414166679E+02  0.00000000000E+00 0. -1.
         13    1    3    3    0    0 -0.36043076228E+02  0.42656962242E+02 -0.67933564120E+03  0.68162719515E+03  0.00000000000E+00 0. -1.
        -14    1    3    3    0    0 -0.51692136373E+02 -0.32388171994E+02 -0.58414791952E+03  0.58732432482E+03  0.00000000000E+00 0.  1.
          5    1    4    4  501    0  0.72873276599E+02  0.12022198594E+03 -0.10658688086E+03  0.17647117588E+03  0.41800000000E+01 0. -1.
         -5    1    4    4    0  501 -0.48260053578E+02  0.49212206373E+02 -0.26989409899E+02  0.74140236540E+02  0.41800000000E+01 0. -1.
</event>
<event>
11    1  0.8864208E-009  0.1573122E+03  0.7561462E-02  0.1089633E+00
         22   -1    0    0    0    0  0.00000000000E+00  0.00000000000E+00  0.14961238642E+04  0.14961238642E+04  0.00000000000E+00 0.  1.
         22   -1    0    0    0    0 -0.00000000000E+00 -0.00000000000E+00 -0.69699530684E+02  0.69699530684E+02  0.00000000000E+00 0. -1.
         24    2    1    2    0    0 -0.28631890913E+00 -0.92337541186E+02  0.18851954681E+02  0.12326280250E+03  0.79448214536E+02 0.  0.
         25    2    1    2    0    0 -0.32340158901E+02  0.11615985350E+03  0.48344693122E+03  0.51372065155E+03  0.12509586353E+03 0.  0.
        -24    2    1    2    0    0  0.32626477810E+02 -0.23822312318E+02  0.92412544756E+03  0.92883994079E+03  0.84284062311E+02 0.  0.
        -13    1    3    3    0    0 -0.16110884628E+02  0.31222941619E+01  0.20782966470E+02  0.26480955791E+02  0.00000000000E+00 0.  1.
         14    1    3    3    0    0  0.15824565719E+02 -0.95459835348E+02 -0.19310117892E+01  0.96781846704E+02  0.00000000000E+00 0. -1.
         11    1    5    5    0    0  0.46554328718E+02  0.13714467768E+02  0.64958020925E+03  0.65139069720E+03  0.00000000000E+00 0. -1.
        -12    1    5    5    0    0 -0.13927850908E+02 -0.37536780086E+02  0.27454523831E+03  0.27744924359E+03  0.00000000000E+00 0.  1.
          5    1    4    4  501    0 -0.40152082148E+02  0.18350525448E+02  0.31984698214E+03  0.32290632677E+03  0.41800000000E+01 0.  1.
         -5    1    4    4    0  501  0.78119232472E+01  0.97809328057E+02  0.16359994908E+03  0.19081432478E+03  0.41800000000E+01 0.  1.
</event>
<event>
11    1  0.8864208E-009  0.6733019E+03  0.7561462E-02  0.9072600E-01
         22   -1    0    0    0    0  0.00000000000E+00  0.00000000000E+00  0.13070030556E+04  0.13070030556E+04  0.00000000000E+00 0.  1.
         22   -1    0    0    0    0 -0.00000000000E+00 -0.00000000000E+00 -0.10460824190E+04  0.10460824190E+04  0.00000000000E+00 0.  1.
         24    2    1    2    0    0  0.46069588811E+03  0.40534521182E+03 -0.46349588460E+03  0.77320468005E+03  0.80446256285E+02 0.  0.
         25    2    1    2    0    0 -0.75262021211E+03 -0.33464141359E+03  0.46839106809E+02  0.83442434159E+03  0.12509204824E+03 0.  0.
        -24    2    1    2    0    0  0.29192432400E+03 -0.70703798224E+02  0.67757741445E+03  0.74545645292E+03  0.79845679905E+02 0.  0.
        -11    1    3    3    0    0  0.42497185890E+03  0.39220685228E+03 -0.41620465915E+03  0.71249815026E+03  0.00000000000E+00 0.  1.
         12    1    3    3    0    0  0.35724029214E+02  0.13138359536E+02 -0.47291225452E+02  0.60706529792E+02  0.00000000000E+00 0. -1.
         11    1    5    5    0    0  0.13364733528E+03 -0.23480189807E+00  0.23782457766E+03  0.27280431650E+03  0.00000000000E+00 0. -1.
        -12    1    5    5    0    0  0.15827698872E+03 -0.70468996326E+02  0.43975283678E+03  0.47265213642E+03  0.00000000000E+00 0.  1.
          5    1    4    4  501    0 -0.35285444626E+03 -0.22232784658E+03  0.41370441255E+02  0.41912398812E+03  0.41800000000E+01 0.  1.
         -5    1    4    4    0  501 -0.39976576586E+03 -0.11231356701E+03  0.54686655546E+01  0.41530035346E+03  0.41800000000E+01 0.  1.
</event>
<event>
11    1  0.8864208E-009  0.1373979E+03  0.7561462E-02  0.1110499E+00
         22   -1    0    0    0    0  0.00000000000E+00  0.00000000000E+00  0.21585269853E+03  0.21585269853E+03  0.00000000000E+00 0. -1.
         22   -1    0    0    0    0 -0.00000000000E+00 -0.00000000000E+00 -0.80891261889E+03  0.80891261889E+03  0.00000000000E+00 0.  1.
        -24    2    1    2    0    0  0.19862699373E+02  0.19646896305E+02 -0.59748386560E+03  0.60340094391E+03  0.79531139193E+02 0.  0.
         25    2    1    2    0    0 -0.72254591174E+02 -0.37477795534E+02 -0.16765033747E+03  0.22445218591E+03  0.12508731751E+03 0.  0.
         24    2    1    2    0    0  0.52391891801E+02  0.17830899228E+02  0.17207428272E+03  0.19691218760E+03  0.78115296573E+02 0.  0.
        -11    1    5    5    0    0 -0.16015380693E+02  0.12108895998E+02  0.13716376633E+02  0.24315772021E+02  0.00000000000E+00 0.  1.
         12    1    5    5    0    0  0.68407272494E+02  0.57220032309E+01  0.15835790608E+03  0.17259641558E+03  0.00000000000E+00 0. -1.
         11    1    3    3    0    0  0.17023141951E+02 -0.14379063426E+02 -0.48699917795E+02  0.53555829002E+02  0.00000000000E+00 0. -1.
        -12    1    3    3    0    0  0.28395574221E+01  0.34025959732E+02 -0.54878394780E+03  0.54984511491E+03  0.00000000000E+00 0.  1.
          5    1    4    4  501    0 -0.14068016449E+02  0.36644073071E+02 -0.99713376021E+01  0.40713599100E+02  0.41800000000E+01 0. -1.
         -5    1    4    4    0  501 -0.58186574725E+02 -0.74121868605E+02 -0.15767899987E+03  0.18373858681E+03  0.41800000000E+01 0. -1.
</event>
<event>
11    1  0.8864208E-009  0.1538771E+03  0.7561462E-02  0.1092982E+00
         22   -1    0    0    0    0  0.00000000000E+00  0.00000000000E+00  0.95495993572E+03  0.95495993572E+03  0.00000000000E+00 0. -1.
         22   -1    0    0    0    0 -0.00000000000E+00 -0.00000000000E+00 -0.12569640948E+04  0.12569640948E+04  0.00000000000E+00 0.  1.
        -24    2    1    2    0    0 -0.41183988330E+01  0.15570944834E+02 -0.11095788303E+04  0.11125907509E+04  0.80209618364E+02 0.  0.
         25    2    1    2    0    0  0.91581692431E+02  0.38604807855E+01 -0.99595926080E+02  0.18430659679E+03  0.12508982145E+03 0.  0.
         24    2    1    2    0    0 -0.87463293598E+02 -0.19431425620E+02  0.90717059731E+03  0.91502668279E+03  0.79296466264E+02 0.  0.
        -13    1    5    5    0    0  0.10496685567E+02  0.15876833052E+01  0.24671971335E+02  0.26859026709E+02  0.00000000000E+00 0.  1.
         14    1    5    5    0    0 -0.97959979165E+02 -0.21019108925E+02  0.88249862598E+03  0.88816765608E+03  0.00000000000E+00 0. -1.
         11    1    3    3    0    0 -0.11113422973E+02 -0.10985010984E+02 -0.44605376006E+02  0.47263286017E+02  0.00000000000E+00 0. -1.
        -12    1    3    3    0    0  0.69950241398E+01  0.26555955818E+02 -0.10649734543E+04  0.10653274649E+04  0.00000000000E+00 0.  1.
          5    1    4    4  501    0 -0.13579060487E+02  0.38313187281E+02 -0.10539716725E+02  0.42200109384E+02  0.41800000000E+01 0.  1.
         -5    1    4    4    0  501  0.10516075292E+03 -0.34452706496E+02 -0.89056209355E+02  0.14210648741E+03  0.41800000000E+01 0.  1.
</event>
<event>
11    1  0.8864208E-009  0.1355012E+03  0.7561462E-02  0.1112689E+00
         22   -1    0    0    0    0  0.00000000000E+00  0.00000000000E+00  0.86934405845E+03  0.86934405845E+03  0.00000000000E+00 0.  1.
         22   -1    0    0    0    0 -0.00000000000E+00 -0.00000000000E+00 -0.24479804217E+03  0.24479804217E+03  0.00000000000E+00 0. -1.
        -24    2    1    2    0    0 -0.38053658742E+02 -0.35631888481E+02 -0.21456278590E+03  0.23511741414E+03  0.80779309969E+02 0.  0.
         25    2    1    2    0    0  0.51539601787E+02  0.19218513484E+02  0.25421607088E+03  0.28861561341E+03  0.12508988685E+03 0.  0.
         24    2    1    2    0    0 -0.13485943045E+02  0.16413374997E+02  0.58489273130E+03  0.59040907308E+03  0.77666575246E+02 0.  0.
        -13    1    5    5    0    0 -0.82126238365E+01  0.27890315655E+02  0.57057999829E+03  0.57132027038E+03  0.00000000000E+00 0.  1.
         14    1    5    5    0    0 -0.52733192088E+01 -0.11476940658E+02  0.14312733007E+02  0.19088802699E+02  0.00000000000E+00 0. -1.
         13    1    3    3    0    0 -0.38905496964E+02 -0.60048636866E+02 -0.16565457542E+03  0.18044643206E+03  0.00000000000E+00 0. -1.
        -14    1    3    3    0    0  0.85183822236E+00  0.24416748385E+02 -0.48908210477E+02  0.54670982085E+02  0.00000000000E+00 0.  1.
          5    1    4    4  501    0  0.34014766956E+02  0.48222158650E+02  0.24664725306E+03  0.25364290016E+03  0.41800000000E+01 0.  1.
         -5    1    4    4    0  501  0.17524834831E+02 -0.29003645166E+02  0.75688178211E+01  0.34972713249E+02  0.41800000000E+01 0.  1.
</event>
<event>
11    1  0.8864208E-009  0.1402510E+03  0.7561462E-02  0.1107278E+00
         22   -1    0    0    0    0  0.00000000000E+00  0.00000000000E+00  0.15779060739E+04  0.15779060739E+04  0.00000000000E+00 0. -1.
         22   -1    0    0    0    0 -0.00000000000E+00 -0.00000000000E+00 -0.17602602472E+03  0.17602602472E+03  0.00000000000E+00 0. -1.
         24    2    1    2    0    0  0.23358990926E+02  0.53786906411E+02 -0.12993268054E+03  0.16365452309E+03  0.80384250292E+02 0.  0.
         25    2    1    2    0    0 -0.54486069901E+02  0.40548195259E+01  0.14306359505E+03  0.19774334732E+03  0.12510022304E+03 0.  0.
        -24    2    1    2    0    0  0.31127078974E+02 -0.57841725937E+02  0.13887491347E+04  0.13925342282E+04  0.78821681078E+02 0.  0.
        -11    1    3    3    0    0 -0.19867823867E+01 -0.57877066897E+01  0.87074988117E+01  0.10642621319E+02  0.00000000000E+00 0.  1.
         12    1    3    3    0    0  0.25345773313E+02  0.59574613101E+02 -0.13864017935E+03  0.15301190177E+03  0.00000000000E+00 0. -1.
         13    1    5    5    0    0 -0.68888392637E+01 -0.61340463184E+02  0.69509549085E+03  0.69783081755E+03  0.00000000000E+00 0. -1.
        -14    1    5    5    0    0  0.38015918238E+02  0.34987372477E+01  0.69365364382E+03  0.69470341066E+03  0.00000000000E+00 0.  1.
          5    1    4    4  501    0 -0.36797373642E+02  0.62247250736E+02  0.56475740645E+02  0.91846331513E+02  0.41800000000E+01 0. -1.
         -5    1    4    4    0  501 -0.17688696259E+02 -0.58192431210E+02  0.86587854406E+02  0.10589701580E+03  0.41800000000E+01 0. -1.
</event>
<event>
11    1  0.8864208E-009  0.1879150E+03  0.7561462E-02  0.1063414E+00
         22   -1    0    0    0    0  0.00000000000E+00  0.00000000000E+00  0.16092193940E+04  0.16092193940E+04  0.00000000000E+00 0. -1.
         22   -1    0    0    0    0 -0.00000000000E+00 -0.00000000000E+00 -0.66778364882E+02  0.66778364882E+02  0.00000000000E+00 0.  1.
         24    2    1    2    0    0  0.35580035844E+02  0.13788394495E+03  0.70807754989E+02  0.17678438576E+03  0.77207898928E+02 0.  0.
         25    2    1    2    0    0 -0.42811500132E+02 -0.12126505762E+03  0.67546458688E+03  0.69888337504E+03  0.12509006770E+03 0.  0.
        -24    2    1    2    0    0  0.72314642873E+01 -0.16618887328E+02  0.79616868721E+03  0.80032999804E+03  0.79467262303E+02 0.  0.
        -13    1    3    3    0    0  0.26950616013E+02  0.10359740670E+03  0.11398823564E+02  0.10765078521E+03  0.00000000000E+00 0.  1.
         14    1    3    3    0    0  0.86294198314E+01  0.34286538251E+02  0.59408931425E+02  0.69133600549E+02  0.00000000000E+00 0. -1.
         13    1    5    5    0    0  0.34695859479E+02  0.54676330680E+01  0.59952428728E+03  0.60055230307E+03  0.00000000000E+00 0. -1.
        -14    1    5    5    0    0 -0.27464395191E+02 -0.22086520396E+02  0.19664439993E+03  0.19977769497E+03  0.00000000000E+00 0.  1.
          5    1    4    4  501    0  0.42622138328E+02 -0.58987751628E+02  0.30639393672E+03  0.31494589754E+03  0.41800000000E+01 0. -1.
         -5    1    4    4    0  501 -0.85433638460E+02 -0.62277305992E+02  0.36907065016E+03  0.38393747751E+03  0.41800000000E+01 0. -1.
</event>
<event>
11    1  0.8864208E-009  0.1434348E+03  0.7561462E-02  0.1103782E+00
         22   -1    0    0    0    0  0.00000000000E+00  0.00000000000E+00  0.19140903086E+04  0.19140903086E+04  0.00000000000E+00 0. -1.
         22   -1    0    0    0    0 -0.00000000000E+00 -0.00000000000E+00 -0.13417141182E+03  0.13417141182E+03  0.00000000000E+00 0. -1.
        -24    2    1    2    0    0 -0.20378356088E+02  0.59483055962E+02 -0.81538580368E+02  0.13073395418E+03  0.80556286811E+02 0.  0.
         25    2    1    2    0    0 -0.59797716250E+01 -0.12118713722E+03  0.26339570360E+03  0.31582845310E+03  0.12509290635E+03 0.  0.
         24    2    1    2    0    0  0.26358127713E+02  0.61704081254E+02  0.15980617735E+04  0.16016993131E+04  0.84481436145E+02 0.  0.
        -11    1    5    5    0    0 -0.30417679018E+02  0.19862292873E+02  0.65280032803E+03  0.65381038088E+03  0.00000000000E+00 0.  1.
         12    1    5    5    0    0  0.56775806732E+02  0.41841788381E+02  0.94526144551E+03  0.94788893223E+03  0.00000000000E+00 0. -1.
         11    1    3    3    0    0 -0.45352797692E+02  0.51791598230E+02 -0.78524591730E+02  0.10442871929E+03  0.00000000000E+00 0. -1.
        -12    1    3    3    0    0  0.24974441603E+02  0.76914577320E+01 -0.30139886376E+01  0.26305234896E+02  0.00000000000E+00 0.  1.
          5    1    4    4  501    0 -0.47859500594E+02 -0.26350252212E+01  0.64083938775E+02  0.80135502519E+02  0.41800000000E+01 0.  1.
         -5    1    4    4    0  501  0.41879728969E+02 -0.11855211199E+03  0.19931176482E+03  0.23569295058E+03  0.41800000000E+01 0.  1.
</event>
<event>
11    1  0.8864208E-009  0.1623327E+03  0.7561462E-02  0.1084904E+00
         22   -1    0    0    0    0  0.00000000000E+00  0.00000000000E+00  0.17992889345E+03  0.17992889345E+03  0.00000000000E+00 0.  1.
         22   -1    0    0    0    0 -0.00000000000E+00 -0.00000000000E+00 -0.48969141039E+03  0.48969141039E+03  0.00000000000E+00 0.  1.
         24    2    1    2    0    0  0.95556286961E+01 -0.68139393226E+02 -0.34428477191E+03  0.36073807395E+03  0.82859319807E+02 0.  0.
         25    2    1    2    0    0  0.62177040495E+02  0.12137479952E+03  0.94201226631E+01  0.18530240522E+03  0.12510162408E+03 0.  0.
        -24    2    1    2    0    0 -0.71732669191E+02 -0.53235406292E+02  0.25102132308E+02  0.12357982466E+03  0.81622740116E+02 0.  0.
        -11    1    3    3    0    0  0.55791911799E+01 -0.54418222715E+02 -0.34190736707E+03  0.34625585626E+03  0.00000000000E+00 0.  1.
         12    1    3    3    0    0  0.39764375163E+01 -0.13721170511E+02 -0.23774048435E+01  0.14482217693E+02  0.00000000000E+00 0. -1.
         11    1    5    5    0    0  0.13814454897E+02 -0.18110760171E+02 -0.97178919819E+01  0.24764414442E+02  0.00000000000E+00 0. -1.
        -12    1    5    5    0    0 -0.85547124088E+02 -0.35124646120E+02  0.34820024290E+02  0.98815410217E+02  0.00000000000E+00 0.  1.
          5    1    4    4  501    0  0.32406467306E+02 -0.19350427104E+02  0.16100323211E+02  0.41246950916E+02  0.41800000000E+01 0.  1.
         -5    1    4    4    0  501  0.29770573189E+02  0.14072522662E+03 -0.66802005484E+01  0.14405545431E+03  0.41800000000E+01 0.  1.
</event>
<event>
11    1  0.8864208E-009  0.1438555E+03  0.7561462E-02  0.1103328E+00
         22   -1    0    0    0    0  0.00000000000E+00  0.00000000000E+00  0.31073175553E+03  0.31073175553E+03  0.00000000000E+00 0.  1.
         22   -1    0    0    0    0 -0.00000000000E+00 -0.00000000000E+00 -0.65377124171E+03  0.65377124171E+03  0.00000000000E+00 0.  1.
         24    2    1    2    0    0  0.66473498065E+02  0.79217967918E+01 -0.30453254463E+03  0.32221483902E+03  0.81245621028E+02 0.  0.
         25    2    1    2    0    0 -0.75291811329E+02 -0.26716813884E+02 -0.31854177044E+03  0.35142224684E+03  0.12508433579E+03 0.  0.
        -24    2    1    2    0    0  0.88183132639E+01  0.18795017092E+02  0.28003482889E+03  0.29086591139E+03  0.75844958320E+02 0.  0.
        -11    1    3    3    0    0  0.68604794304E+02 -0.20911504476E+02 -0.16824231705E+03  0.18289173319E+03  0.00000000000E+00 0.  1.
         12    1    3    3    0    0 -0.21312962399E+01  0.28833301268E+02 -0.13629022758E+03  0.13932310583E+03  0.00000000000E+00 0. -1.
         11    1    5    5    0    0  0.32300343806E+02  0.76026171520E+01  0.54294905670E+02  0.63632136372E+02  0.00000000000E+00 0. -1.
        -12    1    5    5    0    0 -0.23482030542E+02  0.11192399940E+02  0.22573992322E+03  0.22723377502E+03  0.00000000000E+00 0.  1.
          5    1    4    4  501    0  0.33984015807E+02 -0.18086048527E+02 -0.83859317038E+02  0.92368154338E+02  0.41800000000E+01 0.  1.
         -5    1    4    4    0  501 -0.10927582714E+03 -0.86307653572E+01 -0.23468245340E+03  0.25905409250E+03  0.41800000000E+01 0.  1.
</event>
<event>
11    1  0.8864208E-009  0.1363259E+03  0.7561462E-02  0.1111732E+00
         22   -1    0    0    0    0  0.00000000000E+00  0.00000000000E+00  0.46925979290E+03  0.46925979290E+03  0.00000000000E+00 0. -1.
         22   -1    0    0    0    0 -0.00000000000E+00 -0.00000000000E+00 -0.42808183604E+03  0.42808183604E+03  0.00000000000E+00 0. -1.
         24    2    1    2    0    0  0.45213492451E+02 -0.69922366953E+01 -0.32087628977E+03  0.33399866713E+03  0.80624841294E+02 0.  0.
         25    2    1    2    0    0 -0.35936745400E+02  0.60372027192E+02 -0.40548716400E+02  0.14909073289E+03  0.12509043486E+03 0.  0.
        -24    2    1    2    0    0 -0.92767470504E+01 -0.53379790496E+02  0.40260296304E+03  0.41425222892E+03  0.81119068339E+02 0.  0.
        -11    1    3    3    0    0 -0.98854967834E+01  0.39230871837E+01 -0.20449672948E+03  0.20477310865E+03  0.00000000000E+00 0.  1.
         12    1    3    3    0    0  0.55098989234E+02 -0.10915323879E+02 -0.11637956030E+03  0.12922555848E+03  0.00000000000E+00 0. -1.
         13    1    5    5    0    0 -0.39375870550E+02 -0.54693211422E+02  0.28277227103E+03  0.29069221493E+03  0.00000000000E+00 0. -1.
        -14    1    5    5    0    0  0.30099123500E+02  0.13134209251E+01  0.11983069201E+03  0.12356001399E+03  0.00000000000E+00 0.  1.
          5    1    4    4  501    0  0.32839769160E+02  0.38361376547E+02  0.20281601921E+02  0.54578946724E+02  0.41800000000E+01 0. -1.
         -5    1    4    4    0  501 -0.68776514561E+02  0.22010650645E+02 -0.60830318320E+02  0.94511786164E+02  0.41800000000E+01 0. -1.
</event>
<event>
11    1  0.8864208E-009  0.1330926E+03  0.7561462E-02  0.1115527E+00
         22   -1    0    0    0    0  0.00000000000E+00  0.00000000000E+00  0.91855182279E+03  0.91855182279E+03  0.00000000000E+00 0. -1.
         22   -1    0    0    0    0 -0.00000000000E+00 -0.00000000000E+00 -0.52379825479E+03  0.52379825479E+03  0.00000000000E+00 0.  1.
        -24    2    1    2    0    0 -0.34666885959E+02  0.17802589808E+02 -0.45338246366E+03  0.46217390003E+03  0.80810459248E+02 0.  0.
         25    2    1    2    0    0  0.16059085716E+02  0.24946541554E+02  0.17173472135E+01  0.12857346726E+03  0.12509181841E+03 0.  0.
         24    2    1    2    0    0  0.18607800243E+02 -0.42749131363E+02  0.84641868445E+03  0.85160271030E+03  0.81417739672E+02 0.  0.
        -13    1    5    5    0    0  0.42522810395E+02 -0.39564551751E+02  0.36612577085E+03  0.37070422609E+03  0.00000000000E+00 0.  1.
         14    1    5    5    0    0 -0.23915010152E+02 -0.31845796120E+01  0.48029291360E+03  0.48089848421E+03  0.00000000000E+00 0. -1.
         13    1    3    3    0    0 -0.46911494757E+02  0.59819335193E+01 -0.12984302083E+03  0.13818712649E+03  0.00000000000E+00 0. -1.
        -14    1    3    3    0    0  0.12244608798E+02  0.11820656289E+02 -0.32353944283E+03  0.32398677354E+03  0.00000000000E+00 0.  1.
          5    1    4    4  501    0 -0.27933603341E+02  0.40502776217E+01 -0.49900758299E+02  0.57482597568E+02  0.41800000000E+01 0.  1.
         -5    1    4    4    0  501  0.43992689057E+02  0.20896263933E+02  0.51618105512E+02  0.71090869692E+02  0.41800000000E+01 0.  1.
</event>
<event>
11    1  0.8864208E-009  0.2603530E+03  0.7561462E-02  0.1018524E+00
         22   -1    0    0    0    0  0.00000000000E+00  0.00000000000E+00  0.43132998437E+03  0.43132998437E+03  0.00000000000E+00 0. -1.
         22   -1    0    0    0    0 -0.00000000000E+00 -0.00000000000E+00 -0.53955293450E+03  0.53955293450E+03  0.00000000000E+00 0.  1.
         24    2    1    2    0    0  0.19682876944E+03  0.10938870855E+03 -0.25346288389E+03  0.34839243649E+03  0.80164844293E+02 0.  0.
         25    2    1    2    0    0 -0.20741728651E+03 -0.10698387761E+03 -0.15849689095E+03  0.30860377925E+03  0.12509015675E+03 0.  0.
        -24    2    1    2    0    0  0.10588517074E+02 -0.24048309390E+01  0.30373682471E+03  0.31388670313E+03  0.78427697973E+02 0.  0.
        -13    1    3    3    0    0  0.20319209335E+03  0.10348841998E+03 -0.25152248470E+03  0.33950028009E+03  0.00000000000E+00 0.  1.
         14    1    3    3    0    0 -0.63633239155E+01  0.59002885690E+01 -0.19403991826E+01  0.88921563998E+01  0.00000000000E+00 0. -1.
         11    1    5    5    0    0  0.15098733155E+02  0.34375156900E+02  0.20533030411E+03  0.20873465678E+03  0.00000000000E+00 0. -1.
        -12    1    5    5    0    0 -0.45102160804E+01 -0.36779987839E+02  0.98406520601E+02  0.10515204635E+03  0.00000000000E+00 0.  1.
          5    1    4    4  501    0 -0.20651813939E+03 -0.11898336324E+03 -0.11767673446E+03  0.26584218788E+03  0.41800000000E+01 0.  1.
         -5    1    4    4    0  501 -0.89914712138E+00  0.11999485626E+02 -0.40820156487E+02  0.42761591369E+02  0.41800000000E+01 0.  1.
</event>
<event>
11    1  0.8864208E-009  0.1427632E+03  0.7561462E-02  0.1104512E+00
         22   -1    0    0    0    0  0.00000000000E+00  0.00000000000E+00  0.78727966076E+03  0.78727966076E+03  0.00000000000E+00 0.  1.
         22   -1    0    0    0    0 -0.00000000000E+00 -0.00000000000E+00 -0.20782143430E+03  0.20782143430E+03  0.00000000000E+00 0.  1.
        -24    2    1    2    0    0  0.38057996948E+02  0.57885336523E+02 -0.10880843400E+03  0.15231619221E+03  0.81005084930E+02 0.  0.
         25    2    1    2    0    0  0.24310632717E+02 -0.87524092560E+02  0.85544174721E+01  0.15483124796E+03  0.12509222056E+03 0.  0.
         24    2    1    2    0    0 -0.62368629665E+02  0.29638756037E+02  0.67971224298E+03  0.68795365489E+03  0.80642397008E+02 0.  0.
        -13    1    5    5    0    0 -0.24109135073E+02  0.13070057448E+02  0.56884958843E+03  0.56951025544E+03  0.00000000000E+00 0.  1.
         14    1    5    5    0    0 -0.38259494591E+02  0.16568698589E+02  0.11086265455E+03  0.11844339945E+03  0.00000000000E+00 0. -1.
         11    1    3    3    0    0 -0.14919743160E+01 -0.14313361620E+02 -0.47614123152E+02  0.49741361378E+02  0.00000000000E+00 0. -1.
        -12    1    3    3    0    0  0.39549971264E+02  0.72198698143E+02 -0.61194310847E+02  0.10257483083E+03  0.00000000000E+00 0.  1.
          5    1    4    4  501    0  0.54629955044E+02 -0.74378753741E+02  0.47259124233E+02  0.10376670092E+03  0.41800000000E+01 0.  1.
         -5    1    4    4    0  501 -0.30319322327E+02 -0.13145338819E+02 -0.38704706761E+02  0.51064547041E+02  0.41800000000E+01 0.  1.
</event>
<event>
11    1  0.8864208E-009  0.2177980E+03  0.7561462E-02  0.1042606E+00
         22   -1    0    0    0    0  0.00000000000E+00  0.00000000000E+00  0.34328881229E+03  0.34328881229E+03  0.00000000000E+00 0. -1.
         22   -1    0    0    0    0 -0.00000000000E+00 -0.00000000000E+00 -0.93151163663E+03  0.93151163663E+03  0.00000000000E+00 0.  1.
         24    2    1    2    0    0 -0.10296165476E+03  0.14028284733E+03 -0.59561243442E+03  0.62571420568E+03  0.80521522236E+02 0.  0.
         25    2    1    2    0    0  0.99128438838E+02 -0.16276412262E+03 -0.27334636175E+03  0.35592295589E+03  0.12507721635E+03 0.  0.
        -24    2    1    2    0    0  0.38332159228E+01  0.22481275288E+02  0.28073597183E+03  0.29316328734E+03  0.81313749669E+02 0.  0.
        -11    1    3    3    0    0 -0.86373897234E+02  0.74529063080E+02 -0.46200659570E+03  0.47588352129E+03  0.00000000000E+00 0.  1.
         12    1    3    3    0    0 -0.16587757526E+02  0.65753784252E+02 -0.13360583872E+03  0.14983068439E+03  0.00000000000E+00 0. -1.
         13    1    5    5    0    0 -0.87891117083E+01  0.20311093623E+02  0.27941246146E+03  0.28028755346E+03  0.00000000000E+00 0. -1.
        -14    1    5    5    0    0  0.12622327631E+02  0.21701816654E+01  0.13235103716E+01  0.12875733882E+02  0.00000000000E+00 0.  1.
          5    1    4    4  501    0  0.65684444418E+02 -0.41770629764E+02 -0.18950136555E+03  0.20490844710E+03  0.41800000000E+01 0.  1.
         -5    1    4    4    0  501  0.33443994420E+02 -0.12099349286E+03 -0.83844996202E+02  0.15101450879E+03  0.41800000000E+01 0.  1.
</event>
<event>
11    1  0.8864208E-009  0.2198732E+03  0.7561462E-02  0.1041297E+00
         22   -1    0    0    0    0  0.00000000000E+00  0.00000000000E+00  0.32165306526E+03  0.32165306526E+03  0.00000000000E+00 0.  1.
         22   -1    0    0    0    0 -0.00000000000E+00 -0.00000000000E+00 -0.20535065583E+04  0.20535065583E+04  0.00000000000E+00 0. -1.
         24    2    1    2    0    0  0.14926951404E+03  0.11441028207E+03 -0.18649552454E+04  0.18759857421E+04  0.76768071674E+02 0.  0.
         25    2    1    2    0    0 -0.99745932329E+02 -0.71339267685E+02 -0.12919039192E+03  0.21766999025E+03  0.12510605566E+03 0.  0.
        -24    2    1    2    0    0 -0.49523581708E+02 -0.43071014382E+02  0.26229214420E+03  0.28150389125E+03  0.78355436669E+02 0.  0.
        -11    1    3    3    0    0  0.69841157431E+01 -0.47640922445E+01 -0.29138184456E+03  0.29150446615E+03  0.00000000000E+00 0.  1.
         12    1    3    3    0    0  0.14228539829E+03  0.11917437431E+03 -0.15735734008E+04  0.15844812759E+04  0.00000000000E+00 0. -1.
         13    1    5    5    0    0  0.16581940339E+02 -0.26440333127E+02  0.54342814276E+02  0.62667323421E+02  0.00000000000E+00 0. -1.
        -14    1    5    5    0    0 -0.66105522047E+02 -0.16630681254E+02  0.20794932993E+03  0.21883656783E+03  0.00000000000E+00 0.  1.
          5    1    4    4  501    0 -0.66187168281E+02  0.67076118228E+01 -0.46034605614E+01  0.66816147379E+02  0.41800000000E+01 0.  1.
         -5    1    4    4    0  501 -0.33558764049E+02 -0.78046879508E+02 -0.12458693136E+03  0.15085384287E+03  0.41800000000E+01 0.  1.
</event>
<event>
11    1  0.8864208E-009  0.1970331E+03  0.7561462E-02  0.1056642E+00
         22   -1    0    0    0    0  0.00000000000E+00  0.00000000000E+00  0.42703591312E+03  0.42703591312E+03  0.00000000000E+00 0.  1.
         22   -1    0    0    0    0 -0.00000000000E+00 -0.00000000000E+00 -0.10997924777E+04  0.10997924777E+04  0.00000000000E+00 0. -1.
        -24    2    1    2    0    0  0.71035862464E+02 -0.12722784246E+03 -0.78897673075E+03  0.80629246183E+03  0.79938943479E+02 0.  0.
         25    2    1    2    0    0 -0.19117113328E+03  0.10907774839E+03 -0.23189816884E+03  0.34331991450E+03  0.12508975012E+03 0.  0.
         24    2    1    2    0    0  0.12013527082E+03  0.18150094072E+02  0.34811833506E+03  0.37721601445E+03  0.79646953124E+02 0.  0.
        -13    1    5    5    0    0  0.12533129484E+03  0.27668464935E+02  0.27718673539E+03  0.30546024896E+03  0.00000000000E+00 0.  1.
         14    1    5    5    0    0 -0.51960240163E+01 -0.95183708630E+01  0.70931599671E+02  0.71755765492E+02  0.00000000000E+00 0. -1.
         13    1    3    3    0    0  0.63175712663E+01 -0.23338342029E+02 -0.34219258760E+03  0.34304570676E+03  0.00000000000E+00 0. -1.
        -14    1    3    3    0    0  0.64718291198E+02 -0.10388950043E+03 -0.44678414315E+03  0.46324675507E+03  0.00000000000E+00 0.  1.
          5    1    4    4  501    0 -0.38763067536E+01  0.53305631802E+02 -0.26582696217E+02  0.59838351197E+02  0.41800000000E+01 0.  1.
         -5    1    4    4    0  501 -0.18729482653E+03  0.55772116588E+02 -0.20531547262E+03  0.28348156330E+03  0.41800000000E+01 0.  1.
</event>
<event>
11    1  0.8864208E-009  0.2363564E+03  0.7561462E-02  0.1031429E+00
         22   -1    0    0    0    0  0.00000000000E+00  0.00000000000E+00  0.81446666245E+03  0.81446666245E+03  0.00000000000E+00 0. -1.
         22   -1    0    0    0    0 -0.00000000000E+00 -0.00000000000E+00 -0.20360228999E+04  0.20360228999E+04  0.00000000000E+00 0.  1.
        -24    2    1    2    0    0 -0.51240317182E+02  0.52696860850E+02 -0.16828985904E+04  0.16864253406E+04  0.80499903065E+02 0.  0.
         25    2    1    2    0    0  0.15357408336E+03 -0.22135051123E+03 -0.26955572972E+03  0.40110963717E+03  0.12509037415E+03 0.  0.
         24    2    1    2    0    0 -0.10233376618E+03  0.16865365038E+03  0.73089808269E+03  0.76295458461E+03  0.94717672098E+02 0.  0.
        -13    1    5    5    0    0  0.43025651842E+01  0.58817301571E+02  0.29816166442E+03  0.30393809429E+03  0.00000000000E+00 0.  1.
         14    1    5    5    0    0 -0.10663633136E+03  0.10983634881E+03  0.43273641827E+03  0.45901649032E+03  0.00000000000E+00 0. -1.
         11    1    3    3    0    0  0.91166176091E+01  0.36639437013E+02 -0.34298229550E+03  0.34505422196E+03  0.00000000000E+00 0. -1.
        -12    1    3    3    0    0 -0.60356934791E+02  0.16057423837E+02 -0.13399162949E+04  0.13413711186E+04  0.00000000000E+00 0.  1.
          5    1    4    4  501    0  0.85871869365E+02 -0.79729087657E+02 -0.41824970622E+02  0.12448897917E+03  0.41800000000E+01 0. -1.
         -5    1    4    4    0  501  0.67702213996E+02 -0.14162142357E+03 -0.22773075910E+03  0.27662065801E+03  0.41800000000E+01 0. -1.
</event>
<event>
11    1  0.1099455E-008  0.1653003E+03  0.7561462E-02  0.1082195E+00
         22   -1    0    0    0    0  0.00000000000E+00  0.00000000000E+00  0.60167407818E+03  0.60167407818E+03  0.00000000000E+00 0.  1.
         22   -1    0    0    0    0 -0.00000000000E+00 -0.00000000000E+00 -0.94765562684E+03  0.94765562684E+03  0.00000000000E+00 0.  1.
         24    2    1    2    0    0  0.88029702265E+02  0.56365870205E+02 -0.65734936239E+03  0.67054104503E+03  0.81183551513E+02 0.  0.
         25    2    1    2    0    0 -0.13454342153E+03 -0.14985400474E+02 -0.24840424068E+03  0.30931998059E+03  0.12509072348E+03 0.  0.
        -24    2    1    2    0    0  0.46513719261E+02 -0.41380469731E+02  0.55977205441E+03  0.56946867940E+03  0.84106804500E+02 0.  0.
        -11    1    3    3    0    0 -0.11557959003E+02  0.21540745781E+02 -0.18134607760E+03  0.18298631098E+03  0.00000000000E+00 0.  1.
         12    1    3    3    0    0  0.99587661268E+02  0.34825124424E+02 -0.47600328479E+03  0.48755473405E+03  0.00000000000E+00 0. -1.
         13    1    5    5    0    0  0.24882431633E+02 -0.13398082032E+02  0.42800404345E+02  0.51288581753E+02  0.00000000000E+00 0. -1.
        -14    1    5    5    0    0  0.21631287628E+02 -0.27982387699E+02  0.51697165007E+03  0.51818009765E+03  0.00000000000E+00 0.  1.
          5    1    4    4  501    0 -0.34558668122E+02  0.10973937932E+02 -0.18384676050E+03  0.18743487563E+03  0.41800000000E+01 0.  1.
         -5    1    4    4    0  501 -0.99984753404E+02 -0.25959338406E+02 -0.64557480185E+02  0.12188510496E+03  0.41800000000E+01 0.  1.
</event>
<event>
11    1  0.8864208E-009  0.1551154E+03  0.7561462E-02  0.1091764E+00
         22   -1    0    0    0    0  0.00000000000E+00  0.00000000000E+00  0.38215771195E+04  0.38215771195E+04  0.00000000000E+00 0.  1.
         22   -1    0    0    0    0 -0.00000000000E+00 -0.00000000000E+00 -0.37269024297E+03  0.37269024297E+03  0.00000000000E+00 0.  1.
         24    2    1    2    0    0  0.43362234706E+02 -0.33569750922E+02 -0.23242535944E+03  0.25066171322E+03  0.76174373555E+02 0.  0.
         25    2    1    2    0    0 -0.53400991535E+02 -0.57818343805E+02 -0.88213868947E+02  0.17211564460E+03  0.12508989434E+03 0.  0.
        -24    2    1    2    0    0  0.10038756829E+02  0.91388094728E+02  0.37695261049E+04  0.37714900046E+04  0.79732295753E+02 0.  0.
        -11    1    3    3    0    0  0.52010271258E+02  0.61719048001E+01 -0.14691298951E+03  0.15596982789E+03  0.00000000000E+00 0.  1.
         12    1    3    3    0    0 -0.86480365526E+01 -0.39741655723E+02 -0.85512369930E+02  0.94691885328E+02  0.00000000000E+00 0. -1.
         11    1    5    5    0    0 -0.10716114671E+02 -0.11550143761E+02  0.35481891793E+03  0.35516855921E+03  0.00000000000E+00 0. -1.
        -12    1    5    5    0    0  0.20754871500E+02  0.10293823849E+03  0.34147071870E+04  0.34163214454E+04  0.00000000000E+00 0.  1.
          5    1    4    4  501    0 -0.42661037006E+02  0.13038920130E+02  0.14241037842E+02  0.47013371240E+02  0.41800000000E+01 0. -1.
         -5    1    4    4    0  501 -0.10739954529E+02 -0.70857263935E+02 -0.10245490679E+03  0.12510227336E+03  0.41800000000E+01 0. -1.
</event>
<event>
11    1  0.8864208E-009  0.1373285E+03  0.7561462E-02  0.1110579E+00
         22   -1    0    0    0    0  0.00000000000E+00  0.00000000000E+00  0.23071152728E+03  0.23071152728E+03  0.00000000000E+00 0.  1.
         22   -1    0    0    0    0 -0.00000000000E+00 -0.00000000000E+00 -0.16736630938E+04  0.16736630938E+04  0.00000000000E+00 0.  1.
        -24    2    1    2    0    0 -0.11330707105E+02  0.53937184275E+02 -0.12076917197E+04  0.12116395082E+04  0.80705658077E+02 0.  0.
         25    2    1    2    0    0 -0.85090182810E+01 -0.68012056655E+02 -0.44514560135E+03  0.46743984211E+03  0.12508939344E+03 0.  0.
         24    2    1    2    0    0  0.19839725386E+02  0.14074872380E+02  0.20988575450E+03  0.22529527079E+03  0.78193429144E+02 0.  0.
        -13    1    5    5    0    0  0.36669305080E+02  0.26575587463E+02  0.66937237845E+02  0.80817656452E+02  0.00000000000E+00 0.  1.
         14    1    5    5    0    0 -0.16829579694E+02 -0.12500715084E+02  0.14294851666E+03  0.14447761434E+03  0.00000000000E+00 0. -1.
         13    1    3    3    0    0  0.12741335990E+02  0.23659886661E+02 -0.10887931861E+03  0.11214650195E+03  0.00000000000E+00 0. -1.
        -14    1    3    3    0    0 -0.24072043095E+02  0.30277297614E+02 -0.10988124011E+04  0.10994930063E+04  0.00000000000E+00 0.  1.
          5    1    4    4  501    0  0.23765277108E+01  0.95013491184E+01  0.40972260252E+01  0.11409784403E+02  0.41800000000E+01 0. -1.
         -5    1    4    4    0  501 -0.10885545992E+02 -0.77513405773E+02 -0.44924282737E+03  0.45603005771E+03  0.41800000000E+01 0. -1.
</event>
<event>
11    1  0.8864208E-009  0.2079410E+03  0.7561462E-02  0.1049046E+00
         22   -1    0    0    0    0  0.00000000000E+00  0.00000000000E+00  0.13926606459E+04  0.13926606459E+04  0.00000000000E+00 0.  1.
         22   -1    0    0    0    0 -0.00000000000E+00 -0.00000000000E+00 -0.94834461751E+03  0.94834461751E+03  0.00000000000E+00 0.  1.
         24    2    1    2    0    0 -0.27500970526E+02 -0.32994499784E+01 -0.80836511893E+03  0.81286406606E+03  0.80787589610E+02 0.  0.
         25    2    1    2    0    0  0.13897125518E+03  0.12510974610E+03 -0.34796137549E+02  0.22764643180E+03  0.12508664351E+03 0.  0.
        -24    2    1    2    0    0 -0.11147028466E+03 -0.12181029612E+03  0.12874772849E+04  0.13004947656E+04  0.80159238661E+02 0.  0.
        -11    1    3    3    0    0 -0.39219492060E+02  0.14463879148E+02 -0.74186960978E+03  0.74304635809E+03  0.00000000000E+00 0.  1.
         12    1    3    3    0    0  0.11718521535E+02 -0.17763329126E+02 -0.66495509156E+02  0.69817707972E+02  0.00000000000E+00 0. -1.
         11    1    5    5    0    0 -0.73147732700E+01 -0.47929575724E+02  0.54153501931E+03  0.54370113783E+03  0.00000000000E+00 0. -1.
        -12    1    5    5    0    0 -0.10415551139E+03 -0.73880720399E+02  0.74594226559E+03  0.75679362775E+03  0.00000000000E+00 0.  1.
          5    1    4    4  501    0  0.32797751427E+02 -0.19385638434E+02  0.15542338513E+02  0.41358580278E+02  0.41800000000E+01 0.  1.
         -5    1    4    4    0  501  0.10617350375E+03  0.14449538454E+03 -0.50338476062E+02  0.18628785152E+03  0.41800000000E+01 0.  1.
</event>
<event>
11    1  0.8864208E-009  0.1407553E+03  0.7561462E-02  0.1106718E+00
         22   -1    0    0    0    0  0.00000000000E+00  0.00000000000E+00  0.10763371394E+03  0.10763371394E+03  0.00000000000E+00 0.  1.
         22   -1    0    0    0    0 -0.00000000000E+00 -0.00000000000E+00 -0.50603981338E+03  0.50603981338E+03  0.00000000000E+00 0. -1.
        -24    2    1    2    0    0 -0.44024658033E+02  0.42032984872E+02 -0.34728700225E+03  0.36160260425E+03  0.80269789696E+02 0.  0.
         25    2    1    2    0    0  0.65680730007E+02 -0.70719469005E+02 -0.38753221622E+02  0.16267471742E+03  0.12508417130E+03 0.  0.
         24    2    1    2    0    0 -0.21656071974E+02  0.28686484133E+02 -0.12365875570E+02  0.89396205656E+02  0.80912711497E+02 0.  0.
        -13    1    5    5    0    0  0.32184387324E+01  0.17066734720E+02  0.32469601287E+02  0.36822639634E+02  0.00000000000E+00 0.  1.
         14    1    5    5    0    0 -0.24874510706E+02  0.11619749413E+02 -0.44835476856E+02  0.52573566022E+02  0.00000000000E+00 0. -1.
         13    1    3    3    0    0 -0.15491163219E+02  0.56449380656E+02 -0.29137300856E+03  0.29719478265E+03  0.00000000000E+00 0. -1.
        -14    1    3    3    0    0 -0.28533494814E+02 -0.14416395784E+02 -0.55913993684E+02  0.64407821601E+02  0.00000000000E+00 0.  1.
          5    1    4    4  501    0 -0.70794041621E+01  0.31422109281E+02 -0.93523923813E+01  0.33799505296E+02  0.41800000000E+01 0. -1.
         -5    1    4    4    0  501  0.72760134169E+02 -0.10214157829E+03 -0.29400829241E+02  0.12887521212E+03  0.41800000000E+01 0. -1.
</event>
<event>
11    1  0.8864208E-009  0.1841536E+03  0.7561462E-02  0.1066332E+00
         22   -1    0    0    0    0  0.00000000000E+00  0.00000000000E+00  0.10557904055E+04  0.10557904055E+04  0.00000000000E+00 0. -1.
         22   -1    0    0    0    0 -0.00000000000E+00 -0.00000000000E+00 -0.90027676608E+03  0.90027676608E+03  0.00000000000E+00 0. -1.
        -24    2    1    2    0    0 -0.29405314195E+02 -0.14112027819E+03 -0.72940498118E+03  0.74758507707E+03  0.77924421490E+02 0.  0.
         25    2    1    2    0    0  0.89196934888E+02  0.70343485188E+02 -0.11262359264E+03  0.20306574270E+03  0.12508926068E+03 0.  0.
         24    2    1    2    0    0 -0.59791620693E+02  0.70776793006E+02  0.99754221329E+03  0.10054163519E+04  0.84777243067E+02 0.  0.
        -11    1    5    5    0    0  0.82604929340E+01  0.36809723267E+01  0.10928922653E+02  0.14185437996E+02  0.00000000000E+00 0.  1.
         12    1    5    5    0    0 -0.68052113627E+02  0.67095820679E+02  0.98661329064E+03  0.99123091386E+03  0.00000000000E+00 0. -1.
         13    1    3    3    0    0 -0.40707066796E+02 -0.14583112262E+03 -0.66391152418E+03  0.68095689551E+03  0.00000000000E+00 0. -1.
        -14    1    3    3    0    0  0.11301752600E+02  0.47108444289E+01 -0.65493457005E+02  0.66628181557E+02  0.00000000000E+00 0.  1.
          5    1    4    4  501    0 -0.27985440089E+02  0.28980833235E+02 -0.96842340941E+01  0.41645291955E+02  0.41800000000E+01 0. -1.
         -5    1    4    4    0  501  0.11718237498E+03  0.41362651953E+02 -0.10293935855E+03  0.16142045075E+03  0.41800000000E+01 0. -1.
</event>
<event>
11    1  0.8864208E-009  0.1279703E+03  0.7561462E-02  0.1121788E+00
         22   -1    0    0    0    0  0.00000000000E+00  0.00000000000E+00  0.51192160374E+03  0.51192160374E+03  0.00000000000E+00 0. -1.
         22   -1    0    0    0    0 -0.00000000000E+00 -0.00000000000E+00 -0.13882797920E+03  0.13882797920E+03  0.00000000000E+00 0.  1.
         24    2    1    2    0    0 -0.26008853538E+02 -0.10438328583E+02 -0.97751007714E+02  0.12974641742E+03  0.80581971673E+02 0.  0.
         25    2    1    2    0    0  0.25679408652E+02 -0.37700184167E+02  0.20957536759E+03  0.24829500746E+03  0.12509132710E+03 0.  0.
        -24    2    1    2    0    0  0.32944488611E+00  0.48138512750E+02  0.26126926467E+03  0.27270815806E+03  0.61568546097E+02 0.  0.
        -11    1    3    3    0    0 -0.27060291018E+02 -0.41799054555E+02 -0.78415032934E+02  0.92888845949E+02  0.00000000000E+00 0.  1.
         12    1    3    3    0    0  0.10514374799E+01  0.31360725971E+02 -0.19335974780E+02  0.36857571473E+02  0.00000000000E+00 0. -1.
         13    1    5    5    0    0  0.28779649385E+02  0.11526312684E+02  0.12412093505E+03  0.12793408702E+03  0.00000000000E+00 0. -1.
        -14    1    5    5    0    0 -0.28450204499E+02  0.36612200066E+02  0.13714832961E+03  0.14477407104E+03  0.00000000000E+00 0.  1.
          5    1    4    4  501    0 -0.49319435067E+02 -0.28256925908E+02  0.80035531799E+02  0.98254869027E+02  0.41800000000E+01 0. -1.
         -5    1    4    4    0  501  0.74998843719E+02 -0.94432582591E+01  0.12953983579E+03  0.15004013844E+03  0.41800000000E+01 0. -1.
</event>
<event>
11    1  0.8864208E-009  0.1603551E+03  0.7561462E-02  0.1086744E+00
         22   -1    0    0    0    0  0.00000000000E+00  0.00000000000E+00  0.23267265546E+04  0.23267265546E+04  0.00000000000E+00 0.  1.
         22   -1    0    0    0    0 -0.00000000000E+00 -0.00000000000E+00 -0.29977027766E+03  0.29977027766E+03  0.00000000000E+00 0.  1.
        -24    2    1    2    0    0  0.45107122238E+02  0.82747375872E+02 -0.13084702348E+03  0.17982838273E+03  0.79595998594E+02 0.  0.
         25    2    1    2    0    0 -0.25459539720E+02 -0.11285106841E+03 -0.93011046098E+02  0.19411726415E+03  0.12508759226E+03 0.  0.
         24    2    1    2    0    0 -0.19647582518E+02  0.30103692542E+02  0.22508143465E+04  0.22525511854E+04  0.80804458067E+02 0.  0.
        -11    1    5    5    0    0 -0.40965992935E+01  0.77184671204E+00  0.19335596517E+04  0.19335641454E+04  0.00000000000E+00 0.  1.
         12    1    5    5    0    0 -0.15550983224E+02  0.29331845830E+02  0.31725469483E+03  0.31898703994E+03  0.00000000000E+00 0. -1.
         13    1    3    3    0    0  0.18903574716E+02  0.19794708772E+02  0.50038327025E+01  0.27824700791E+02  0.00000000000E+00 0. -1.
        -14    1    3    3    0    0  0.26203547522E+02  0.62952667100E+02 -0.13585085619E+03  0.15200368194E+03  0.00000000000E+00 0.  1.
          5    1    4    4  501    0  0.31483513863E+02 -0.14317633161E+02  0.14284514671E+02  0.37652702743E+02  0.41800000000E+01 0. -1.
         -5    1    4    4    0  501 -0.56943053583E+02 -0.98533435253E+02 -0.10729556077E+03  0.15646456140E+03  0.41800000000E+01 0. -1.
</event>
<event>
11    1  0.8864208E-009  0.2101856E+03  0.7561462E-02  0.1047546E+00
         22   -1    0    0    0    0  0.00000000000E+00  0.00000000000E+00  0.59762630147E+03  0.59762630147E+03  0.00000000000E+00 0.  1.
         22   -1    0    0    0    0 -0.00000000000E+00 -0.00000000000E+00 -0.22138847376E+04  0.22138847376E+04  0.00000000000E+00 0. -1.
         24    2    1    2    0    0  0.11379546071E+03  0.36113199847E+02 -0.20696790778E+04  0.20746983357E+04  0.80920508773E+02 0.  0.
         25    2    1    2    0    0 -0.25639921011E+03 -0.95797718684E+02  0.57017637151E+02  0.30629416496E+03  0.12508935482E+03 0.  0.
        -24    2    1    2    0    0  0.14260374940E+03  0.59684518836E+02  0.39640300461E+03  0.43051853838E+03  0.65671901879E+02 0.  0.
        -13    1    3    3    0    0  0.42490322168E+02 -0.63717126542E+01 -0.29859389240E+03  0.30166925395E+03  0.00000000000E+00 0.  1.
         14    1    3    3    0    0  0.71305138539E+02  0.42484912502E+02 -0.17710851854E+04  0.17730290817E+04  0.00000000000E+00 0. -1.
         13    1    5    5    0    0  0.20419192376E+02  0.44208379093E+01  0.13656703438E+02  0.24959823195E+02  0.00000000000E+00 0. -1.
        -14    1    5    5    0    0  0.12218455703E+03  0.55263680927E+02  0.38274630117E+03  0.40555871519E+03  0.00000000000E+00 0.  1.
          5    1    4    4  501    0 -0.26484048778E+03 -0.94289111763E+02  0.36304327640E+02  0.28348967736E+03  0.41800000000E+01 0.  1.
         -5    1    4    4    0  501  0.84412776701E+01 -0.15086069202E+01  0.20713309511E+02  0.22804487594E+02  0.41800000000E+01 0.  1.
</event>
<event>
11    1  0.8864208E-009  0.1329916E+03  0.7561462E-02  0.1115647E+00
         22   -1    0    0    0    0  0.00000000000E+00  0.00000000000E+00  0.26548742832E+04  0.26548742832E+04  0.00000000000E+00 0.  1.
         22   -1    0    0    0    0 -0.00000000000E+00 -0.00000000000E+00 -0.15438509866E+02  0.15438509866E+02  0.00000000000E+00 0.  1.
         24    2    1    2    0    0 -0.51155900853E+02 -0.18139729961E+00  0.21928010170E+03  0.23893794987E+03  0.79941364712E+02 0.  0.
         25    2    1    2    0    0 -0.95399174910E+01 -0.10868904960E+02  0.10513330722E+04  0.10588473376E+04  0.12508921805E+03 0.  0.
        -24    2    1    2    0    0  0.60695818344E+02  0.11050302260E+02  0.13688225995E+04  0.13725275056E+04  0.79689104625E+02 0.  0.
        -11    1    3    3    0    0 -0.38199042310E+02 -0.38469265836E+02  0.11654431951E+03  0.12853649154E+03  0.00000000000E+00 0.  1.
         12    1    3    3    0    0 -0.12956858543E+02  0.38287868537E+02  0.10273578218E+03  0.11040145833E+03  0.00000000000E+00 0. -1.
         11    1    5    5    0    0 -0.18098502878E+02 -0.78283433743E+01  0.25370028042E+03  0.25446546141E+03  0.00000000000E+00 0. -1.
        -12    1    5    5    0    0  0.78794321222E+02  0.18878645634E+02  0.11151223190E+04  0.11180620442E+04  0.00000000000E+00 0.  1.
          5    1    4    4  501    0 -0.48314528383E+02 -0.12767871723E+02  0.93075584465E+03  0.93210580244E+03  0.41800000000E+01 0.  1.
         -5    1    4    4    0  501  0.38774610892E+02  0.18989667627E+01  0.12057722758E+03  0.12674153516E+03  0.41800000000E+01 0.  1.
</event>
<event>
11    1  0.8864208E-009  0.1659101E+03  0.7561462E-02  0.1081647E+00
         22   -1    0    0    0    0  0.00000000000E+00  0.00000000000E+00  0.19510262389E+04  0.19510262389E+04  0.00000000000E+00 0.  1.
         22   -1    0    0    0    0 -0.00000000000E+00 -0.00000000000E+00 -0.83583991417E+03  0.83583991417E+03  0.00000000000E+00 0.  1.
         24    2    1    2    0    0  0.12806146889E+02  0.44229459650E+01 -0.81029481667E+03  0.81490222930E+03  0.85465744888E+02 0.  0.
         25    2    1    2    0    0  0.69713470748E+02 -0.76861685200E+02  0.30358939571E+03  0.34435709597E+03  0.12509037415E+03 0.  0.
        -24    2    1    2    0    0 -0.82519617637E+02  0.72438739235E+02  0.16218917457E+04  0.16276068278E+04  0.80711169700E+02 0.  0.
        -13    1    3    3    0    0 -0.17859231464E+02  0.29969547359E+02 -0.58932848760E+03  0.59036022242E+03  0.00000000000E+00 0.  1.
         14    1    3    3    0    0  0.30665378353E+02 -0.25546601394E+02 -0.22096632907E+03  0.22454200688E+03  0.00000000000E+00 0. -1.
         13    1    5    5    0    0 -0.43051554070E+02 -0.10257492742E+02  0.58733115326E+03  0.58899621056E+03  0.00000000000E+00 0. -1.
        -14    1    5    5    0    0 -0.39468063567E+02  0.82696231977E+02  0.10345605924E+04  0.10386106172E+04  0.00000000000E+00 0.  1.
          5    1    4    4  501    0  0.10087904673E+03 -0.59846812741E+02  0.27352600168E+03  0.29764436675E+03  0.41800000000E+01 0. -1.
         -5    1    4    4    0  501 -0.31165575978E+02 -0.17014872458E+02  0.30063394028E+02  0.46712729221E+02  0.41800000000E+01 0. -1.
</event>
<event>
11    1  0.8864208E-009  0.1370839E+03  0.7561462E-02  0.1110859E+00
         22   -1    0    0    0    0  0.00000000000E+00  0.00000000000E+00  0.30435333288E+03  0.30435333288E+03  0.00000000000E+00 0.  1.
         22   -1    0    0    0    0 -0.00000000000E+00 -0.00000000000E+00 -0.18081907146E+03  0.18081907146E+03  0.00000000000E+00 0.  1.
        -24    2    1    2    0    0  0.46814649021E+02  0.34560172698E+02 -0.11554464627E+03  0.15347990297E+03  0.82580254506E+02 0.  0.
         25    2    1    2    0    0 -0.15802778128E+02 -0.47228857626E+02  0.93476129661E+02  0.16390860691E+03  0.12509177356E+03 0.  0.
         24    2    1    2    0    0 -0.31011870893E+02  0.12668684929E+02  0.14560277803E+03  0.16778389447E+03  0.76348114295E+02 0.  0.
        -13    1    5    5    0    0 -0.22724811485E+01 -0.25432610021E+02  0.94382639621E+02  0.97775582253E+02  0.00000000000E+00 0.  1.
         14    1    5    5    0    0 -0.28739389745E+02  0.38101294949E+02  0.51220138414E+02  0.70008312213E+02  0.00000000000E+00 0. -1.
         13    1    3    3    0    0 -0.12023606969E+02 -0.14210642907E+02 -0.48009725293E+02  0.51492166580E+02  0.00000000000E+00 0. -1.
        -14    1    3    3    0    0  0.58838255990E+02  0.48770815605E+02 -0.67534920981E+02  0.10198773639E+03  0.00000000000E+00 0.  1.
          5    1    4    4  501    0 -0.21686853282E+02 -0.54087876486E+02  0.12114817987E+03  0.13449970957E+03  0.41800000000E+01 0.  1.
         -5    1    4    4    0  501  0.58840751537E+01  0.68590188595E+01 -0.27672050208E+02  0.29408897342E+02  0.41800000000E+01 0.  1.
</event>
<event>
11    1  0.8864208E-009  0.2152719E+03  0.7561462E-02  0.1044220E+00
         22   -1    0    0    0    0  0.00000000000E+00  0.00000000000E+00  0.17251739705E+04  0.17251739705E+04  0.00000000000E+00 0.  1.
         22   -1    0    0    0    0 -0.00000000000E+00 -0.00000000000E+00 -0.12565197422E+03  0.12565197422E+03  0.00000000000E+00 0. -1.
         24    2    1    2    0    0 -0.25347945242E+02  0.15655611756E+02 -0.78608778776E+02  0.11682047115E+03  0.81117605192E+02 0.  0.
         25    2    1    2    0    0  0.31485239511E+02 -0.18558711246E+03  0.63504747632E+03  0.67406763145E+03  0.12509187811E+03 0.  0.
        -24    2    1    2    0    0 -0.61372942689E+01  0.16993150070E+03  0.10430832987E+04  0.10599378421E+04  0.80815096025E+02 0.  0.
        -11    1    3    3    0    0  0.27129765633E+02  0.15913285420E+02 -0.16527484303E+02  0.35530473872E+02  0.00000000000E+00 0.  1.
         12    1    3    3    0    0 -0.52477710875E+02 -0.25767366459E+00 -0.62081294474E+02  0.81289997281E+02  0.00000000000E+00 0. -1.
         13    1    5    5    0    0  0.23616186597E+02  0.12184494113E+02  0.11136369520E+03  0.11449043093E+03  0.00000000000E+00 0. -1.
        -14    1    5    5    0    0 -0.29753480866E+02  0.15774700659E+03  0.93171960354E+03  0.94544741119E+03  0.00000000000E+00 0.  1.
          5    1    4    4  501    0  0.68639172939E+02 -0.17086359741E+03  0.48704350687E+03  0.52070582383E+03  0.41800000000E+01 0.  1.
         -5    1    4    4    0  501 -0.37153933428E+02 -0.14723515047E+02  0.14800396944E+03  0.15336180762E+03  0.41800000000E+01 0.  1.
</event>
<event>
11    1  0.8864208E-009  0.4232224E+03  0.7561462E-02  0.9583619E-01
         22   -1    0    0    0    0  0.00000000000E+00  0.00000000000E+00  0.19926727854E+03  0.19926727854E+03  0.00000000000E+00 0. -1.
         22   -1    0    0    0    0 -0.00000000000E+00 -0.00000000000E+00 -0.14477360376E+04  0.14477360376E+04  0.00000000000E+00 0. -1.
        -24    2    1    2    0    0 -0.31533866673E+03  0.15527902646E+03 -0.50211696014E+03  0.61820113267E+03  0.80629696641E+02 0.  0.
         25    2    1    2    0    0  0.38491981967E+03 -0.29416032410E+03 -0.67185159979E+03  0.83769057403E+03  0.12508941528E+03 0.  0.
         24    2    1    2    0    0 -0.69581152940E+02  0.13888129764E+03 -0.74500199143E+02  0.19111160946E+03  0.82727358953E+02 0.  0.
        -13    1    5    5    0    0 -0.38656163369E+02  0.55191797253E+01 -0.18312113701E+02  0.43128804985E+02  0.00000000000E+00 0.  1.
         14    1    5    5    0    0 -0.30924989571E+02  0.13336211791E+03 -0.56188085442E+02  0.14798280447E+03  0.00000000000E+00 0. -1.
         11    1    3    3    0    0 -0.26586262600E+03  0.10094513840E+03 -0.42771460337E+03  0.51362694517E+03  0.00000000000E+00 0. -1.
        -12    1    3    3    0    0 -0.49476040728E+02  0.54333888058E+02 -0.74402356766E+02  0.10457418749E+03  0.00000000000E+00 0.  1.
          5    1    4    4  501    0  0.36617555284E+03 -0.29516133695E+03 -0.59489828184E+03  0.75837074605E+03  0.41800000000E+01 0. -1.
         -5    1    4    4    0  501  0.18744266829E+02  0.10010128547E+01 -0.76953317953E+02  0.79319827973E+02  0.41800000000E+01 0. -1.
</event>
<event>
11    1  0.8864208E-009  0.1552318E+03  0.7561462E-02  0.1091650E+00
         22   -1    0    0    0    0  0.00000000000E+00  0.00000000000E+00  0.81129473633E+02  0.81129473633E+02  0.00000000000E+00 0.  1.
         22   -1    0    0    0    0 -0.00000000000E+00 -0.00000000000E+00 -0.28118386182E+04  0.28118386182E+04  0.00000000000E+00 0.  1.
         24    2    1    2    0    0 -0.31385441952E+02 -0.82311721291E+02 -0.17935164774E+04  0.17974705446E+04  0.80241749211E+02 0.  0.
         25    2    1    2    0    0 -0.46868153474E+02  0.12888953349E+03 -0.95686266718E+03  0.97470138152E+03  0.12508990220E+03 0.  0.
        -24    2    1    2    0    0  0.78253595426E+02 -0.46577812197E+02  0.19670000017E+02  0.12079616578E+03  0.76887495609E+02 0.  0.
        -13    1    3    3    0    0 -0.23489271203E+02 -0.79908856335E+02 -0.88364579615E+03  0.88756242836E+03  0.00000000000E+00 0.  1.
         14    1    3    3    0    0 -0.78961707496E+01 -0.24028649561E+01 -0.90987068127E+03  0.90990811619E+03  0.00000000000E+00 0. -1.
         11    1    5    5    0    0  0.35481894253E+02  0.13565036728E+02 -0.12914687158E+02  0.40121866677E+02  0.00000000000E+00 0. -1.
        -12    1    5    5    0    0  0.42771701172E+02 -0.60142848925E+02  0.32584687175E+02  0.80674299106E+02  0.00000000000E+00 0.  1.
          5    1    4    4  501    0 -0.32350893807E+02 -0.16075046515E+02 -0.27803985989E+03  0.28040795912E+03  0.41800000000E+01 0. -1.
         -5    1    4    4    0  501 -0.14517259667E+02  0.14496458000E+03 -0.67882280729E+03  0.69429342240E+03  0.41800000000E+01 0. -1.
</event>
<event>
11    1  0.8864208E-009  0.1459410E+03  0.7561462E-02  0.1101100E+00
         22   -1    0    0    0    0  0.00000000000E+00  0.00000000000E+00  0.85789401036E+03  0.85789401036E+03  0.00000000000E+00 0. -1.
         22   -1    0    0    0    0 -0.00000000000E+00 -0.00000000000E+00 -0.39686138479E+03  0.39686138479E+03  0.00000000000E+00 0.  1.
        -24    2    1    2    0    0 -0.25048870602E+01 -0.78686948697E+02 -0.34376889828E+03  0.36263527255E+03  0.84435627086E+02 0.  0.
         25    2    1    2    0    0  0.15867917625E+02  0.34952157945E+02  0.64517088067E+02  0.14588852807E+03  0.12509022270E+03 0.  0.
         24    2    1    2    0    0 -0.13363030565E+02  0.43734790752E+02  0.74028443578E+03  0.74623159454E+03  0.82153784614E+02 0.  0.
        -11    1    5    5    0    0 -0.39512743864E+02  0.29963963044E+02  0.23971542339E+03  0.24479089081E+03  0.00000000000E+00 0.  1.
         12    1    5    5    0    0  0.26149713298E+02  0.13770827707E+02  0.50056901238E+03  0.50144070373E+03  0.00000000000E+00 0. -1.
         11    1    3    3    0    0  0.36090130144E+02 -0.34958330153E+02 -0.99089782707E+02  0.11110070827E+03  0.00000000000E+00 0. -1.
        -12    1    3    3    0    0 -0.38595017204E+02 -0.43728618543E+02 -0.24467911557E+03  0.25153456428E+03  0.00000000000E+00 0.  1.
          5    1    4    4  501    0 -0.11280044152E+01 -0.46413035858E+02  0.31970700337E+02  0.56524688160E+02  0.41800000000E+01 0. -1.
         -5    1    4    4    0  501  0.16995922041E+02  0.81365193803E+02  0.32546387730E+02  0.89363839907E+02  0.41800000000E+01 0. -1.
</event>
<event>
11    1  0.8864208E-009  0.3138484E+03  0.7561462E-02  0.9944948E-01
         22   -1    0    0    0    0  0.00000000000E+00  0.00000000000E+00  0.32190600190E+03  0.32190600190E+03  0.00000000000E+00 0.  1.
         22   -1    0    0    0    0 -0.00000000000E+00 -0.00000000000E+00 -0.40368373175E+03  0.40368373175E+03  0.00000000000E+00 0.  1.
        -24    2    1    2    0    0 -0.15537809790E+02 -0.46420343645E+02  0.17248218202E+01  0.96424110815E+02  0.83056380242E+02 0.  0.
         25    2    1    2    0    0 -0.37445359055E+02 -0.26457055492E+03 -0.69484102454E+02  0.30310858383E+03  0.12508812753E+03 0.  0.
         24    2    1    2    0    0  0.52983168845E+02  0.31099089857E+03 -0.14018449216E+02  0.32605703900E+03  0.81204190723E+02 0.  0.
        -11    1    5    5    0    0  0.47467263562E+02  0.27660022788E+03  0.14533632498E+02  0.28101966772E+03  0.00000000000E+00 0.  1.
         12    1    5    5    0    0  0.55159052837E+01  0.34390670687E+02 -0.28552081715E+02  0.45037371278E+02  0.00000000000E+00 0. -1.
         13    1    3    3    0    0 -0.33667711998E+02  0.11355920047E+02 -0.31709803037E+01  0.35672494550E+02  0.00000000000E+00 0. -1.
        -14    1    3    3    0    0  0.18129902208E+02 -0.57776263693E+02  0.48958021239E+01  0.60751616265E+02  0.00000000000E+00 0.  1.
          5    1    4    4  501    0 -0.18305272019E+02 -0.25355206624E+03 -0.27814497079E+02  0.25576327322E+03  0.41800000000E+01 0.  1.
         -5    1    4    4    0  501 -0.19140087036E+02 -0.11018488678E+02 -0.41669605375E+02  0.47345310609E+02  0.41800000000E+01 0.  1.
</event>
<event>
11    1  0.8864208E-009  0.1868402E+03  0.7561462E-02  0.1064240E+00
         22   -1    0    0    0    0  0.00000000000E+00  0.00000000000E+00  0.32495123482E+03  0.32495123482E+03  0.00000000000E+00 0. -1.
         22   -1    0    0    0    0 -0.00000000000E+00 -0.00000000000E+00 -0.23710751471E+03  0.23710751471E+03  0.00000000000E+00 0. -1.
        -24    2    1    2    0    0  0.60787344321E+02 -0.54632989239E+02 -0.85947587602E+02  0.14346393990E+03  0.80715856518E+02 0.  0.
         25    2    1    2    0    0  0.68220740382E+02 -0.43496796686E+02 -0.24004658835E+02  0.15085786310E+03  0.12504331439E+03 0.  0.
         24    2    1    2    0    0 -0.12900808470E+03  0.98129785925E+02  0.19779596655E+03  0.26773694653E+03  0.79292416707E+02 0.  0.
        -13    1    5    5    0    0 -0.15691637945E+02  0.57400155984E+02  0.75200632540E+02  0.95896509545E+02  0.00000000000E+00 0.  1.
         14    1    5    5    0    0 -0.11331644676E+03  0.40729629941E+02  0.12259533401E+03  0.17184043698E+03  0.00000000000E+00 0. -1.
         11    1    3    3    0    0  0.24500720940E+02 -0.29467210314E+02  0.84546535613E+01  0.39243890953E+02  0.00000000000E+00 0. -1.
        -12    1    3    3    0    0  0.36286623381E+02 -0.25165778924E+02 -0.94402241163E+02  0.10422004894E+03  0.00000000000E+00 0.  1.
          5    1    4    4  501    0  0.59550883065E+02  0.35276650837E+02 -0.15423859722E+02  0.71036030413E+02  0.41800000000E+01 0. -1.
         -5    1    4    4    0  501  0.86698573172E+01 -0.78773447523E+02 -0.85807991126E+01  0.79821832690E+02  0.41800000000E+01 0. -1.
</event>
<event>
11    1  0.8864208E-009  0.2562726E+03  0.7561462E-02  0.1020610E+00
         22   -1    0    0    0    0  0.00000000000E+00  0.00000000000E+00  0.19070167229E+03  0.19070167229E+03  0.00000000000E+00 0.  1.
         22   -1    0    0    0    0 -0.00000000000E+00 -0.00000000000E+00 -0.57761626720E+03  0.57761626720E+03  0.00000000000E+00 0. -1.
         24    2    1    2    0    0 -0.14522743076E+03  0.19061822681E+03 -0.36369527214E+03  0.44294204217E+03  0.80604507998E+02 0.  0.
         25    2    1    2    0    0  0.12134759641E+03 -0.14242742642E+03 -0.47617467736E+02  0.23005726396E+03  0.12509240790E+03 0.  0.
        -24    2    1    2    0    0  0.23879834349E+02 -0.48190800387E+02  0.24398144967E+02  0.95318633367E+02  0.74818264205E+02 0.  0.
        -11    1    3    3    0    0 -0.10284685265E+03  0.71947031264E+02 -0.15902163955E+03  0.20258759156E+03  0.00000000000E+00 0.  1.
         12    1    3    3    0    0 -0.42380578113E+02  0.11867119554E+03 -0.20467363259E+03  0.24035445062E+03  0.00000000000E+00 0. -1.
         11    1    5    5    0    0  0.14455798764E+02 -0.61379295557E+02 -0.33885210089E+01  0.63149585237E+02  0.00000000000E+00 0. -1.
        -12    1    5    5    0    0  0.94240355846E+01  0.13188495170E+02  0.27786665976E+02  0.32169048130E+02  0.00000000000E+00 0.  1.
          5    1    4    4  501    0 -0.16286269098E+02 -0.64881511213E+02 -0.12810068526E+02  0.68237990255E+02  0.41800000000E+01 0. -1.
         -5    1    4    4    0  501  0.13763386551E+03 -0.77545915209E+02 -0.34807399210E+02  0.16181927370E+03  0.41800000000E+01 0. -1.
</event>
<event>
11    1  0.8864208E-009  0.1497210E+03  0.7561462E-02  0.1097164E+00
         22   -1    0    0    0    0  0.00000000000E+00  0.00000000000E+00  0.13204457206E+04  0.13204457206E+04  0.00000000000E+00 0.  1.
         22   -1    0    0    0    0 -0.00000000000E+00 -0.00000000000E+00 -0.11148210856E+03  0.11148210856E+03  0.00000000000E+00 0.  1.
         24    2    1    2    0    0 -0.25429884151E+02  0.14974667473E+02 -0.76648867920E+02  0.11599073732E+03  0.81901663696E+02 0.  0.
         25    2    1    2    0    0  0.30894729541E+02 -0.91935322275E+02  0.56982006238E+03  0.59139432674E+03  0.12508300613E+03 0.  0.
        -24    2    1    2    0    0 -0.54648453900E+01  0.76960654802E+02  0.71579241761E+03  0.72454276514E+03  0.81551373228E+02 0.  0.
        -11    1    3    3    0    0 -0.17523628390E+01  0.50148271749E+00 -0.86518167056E+02  0.86537364711E+02  0.00000000000E+00 0.  1.
         12    1    3    3    0    0 -0.23677521312E+02  0.14473184756E+02  0.98692991362E+01  0.29453372606E+02  0.00000000000E+00 0. -1.
         13    1    5    5    0    0  0.37795128399E+01 -0.12372944817E+02  0.23998479767E+03  0.24033326360E+03  0.00000000000E+00 0. -1.
        -14    1    5    5    0    0 -0.92443582299E+01  0.89333599619E+02  0.47580761994E+03  0.48420950154E+03  0.00000000000E+00 0.  1.
          5    1    4    4  501    0  0.11539800898E+02 -0.98047449481E+02  0.55965726121E+03  0.56831346261E+03  0.41800000000E+01 0. -1.
         -5    1    4    4    0  501  0.19354928643E+02  0.61121272052E+01  0.10162801165E+02  0.23080864136E+02  0.41800000000E+01 0. -1.
</event>
<event>
11    1  0.8864208E-009  0.1358049E+03  0.7561462E-02  0.1112335E+00
         22   -1    0    0    0    0  0.00000000000E+00  0.00000000000E+00  0.58393269571E+03  0.58393269571E+03  0.00000000000E+00 0.  1.
         22   -1    0    0    0    0 -0.00000000000E+00 -0.00000000000E+00 -0.11073607958E+04  0.11073607958E+04  0.00000000000E+00 0.  1.
         24    2    1    2    0    0 -0.23365876560E+02 -0.29018564962E+02 -0.10091892748E+04  0.10128938037E+04  0.78120573398E+02 0.  0.
         25    2    1    2    0    0 -0.21192632017E+00  0.75510896186E+02 -0.33688151277E+02  0.14994906845E+03  0.12509153144E+03 0.  0.
        -24    2    1    2    0    0  0.23577802880E+02 -0.46492331224E+02  0.51944932598E+03  0.52845061932E+03  0.81945134988E+02 0.  0.
        -13    1    3    3    0    0  0.11328173857E+02 -0.35126017434E+02 -0.79256413999E+03  0.79342301493E+03  0.00000000000E+00 0.  1.
         14    1    3    3    0    0 -0.34694050417E+02  0.61074524719E+01 -0.21662513480E+03  0.21947078881E+03  0.00000000000E+00 0. -1.
         11    1    5    5    0    0 -0.70196609659E+01  0.10343132891E+02  0.13492656547E+02  0.18393145973E+02  0.00000000000E+00 0. -1.
        -12    1    5    5    0    0  0.30597463846E+02 -0.56835464115E+02  0.50595666943E+03  0.51005747335E+03  0.00000000000E+00 0.  1.
          5    1    4    4  501    0 -0.37964791148E+02  0.10178075681E+02 -0.58329849649E+02  0.70461069758E+02  0.41800000000E+01 0. -1.
         -5    1    4    4    0  501  0.37752864828E+02  0.65332820506E+02  0.24641698372E+02  0.79487998695E+02  0.41800000000E+01 0. -1.
</event>
<event>
11    1  0.8864208E-009  0.2030501E+03  0.7561462E-02  0.1052387E+00
         22   -1    0    0    0    0  0.00000000000E+00  0.00000000000E+00  0.10554705257E+04  0.10554705257E+04  0.00000000000E+00 0.  1.
         22   -1    0    0    0    0 -0.00000000000E+00 -0.00000000000E+00 -0.36873651226E+03  0.36873651226E+03  0.00000000000E+00 0.  1.
        -24    2    1    2    0    0  0.14434890050E+03 -0.76146042702E+02 -0.25440633217E+03  0.31311611746E+03  0.81757545663E+02 0.  0.
         25    2    1    2    0    0 -0.12355135495E+03  0.81441771126E+02  0.29776867141E+02  0.19604023105E+03  0.12508961179E+03 0.  0.
         24    2    1    2    0    0 -0.20797545547E+02 -0.52957284243E+01  0.91136347844E+03  0.91505068943E+03  0.79207270772E+02 0.  0.
        -13    1    5    5    0    0 -0.13748130375E+02 -0.21326502530E+02  0.86677753651E+03  0.86714885031E+03  0.00000000000E+00 0.  1.
         14    1    5    5    0    0 -0.70494151727E+01  0.16030774105E+02  0.44585941935E+02  0.47901839119E+02  0.00000000000E+00 0. -1.
         11    1    3    3    0    0 -0.10035688765E+02 -0.10412463461E+01 -0.84177620381E+01  0.13139937620E+02  0.00000000000E+00 0. -1.
        -12    1    3    3    0    0  0.15438458926E+03 -0.75104796356E+02 -0.24598857013E+03  0.29997617984E+03  0.00000000000E+00 0.  1.
          5    1    4    4  501    0 -0.61765760177E+02  0.38372818083E+02  0.77836635568E+02  0.10659970232E+03  0.41800000000E+01 0. -1.
         -5    1    4    4    0  501 -0.61785594774E+02  0.43068953042E+02 -0.48059768427E+02  0.89440528727E+02  0.41800000000E+01 0. -1.
</event>
<event>
11    1  0.8864208E-009  0.1563152E+03  0.7561462E-02  0.1090595E+00
         22   -1    0    0    0    0  0.00000000000E+00  0.00000000000E+00  0.29611158459E+03  0.29611158459E+03  0.00000000000E+00 0. -1.
         22   -1    0    0    0    0 -0.00000000000E+00 -0.00000000000E+00 -0.27929086583E+03  0.27929086583E+03  0.00000000000E+00 0.  1.
        -24    2    1    2    0    0 -0.10810929578E+02  0.31062325869E+02 -0.18912792618E+03  0.20902922074E+03  0.82716977564E+02 0.  0.
         25    2    1    2    0    0  0.78397500271E+02 -0.84626682180E+02  0.64055241982E+02  0.18181937002E+03  0.12508943163E+03 0.  0.
         24    2    1    2    0    0 -0.67586570693E+02  0.53564356311E+02  0.14189340296E+03  0.18455385965E+03  0.80556219517E+02 0.  0.
        -11    1    5    5    0    0 -0.73318841664E+02  0.11229590673E+02  0.77478863309E+02  0.10726010679E+03  0.00000000000E+00 0.  1.
         12    1    5    5    0    0  0.57322709713E+01  0.42334765638E+02  0.64414539651E+02  0.77293752856E+02  0.00000000000E+00 0. -1.
         11    1    3    3    0    0 -0.13791468411E+02  0.48472755269E+01  0.31462770653E+01  0.14953251831E+02  0.00000000000E+00 0. -1.
        -12    1    3    3    0    0  0.29805388330E+01  0.26215050342E+02 -0.19227420324E+03  0.19407596891E+03  0.00000000000E+00 0.  1.
          5    1    4    4  501    0 -0.66968192115E+01 -0.24861643632E+01  0.62926861258E+02  0.63468816505E+02  0.41800000000E+01 0.  1.
         -5    1    4    4    0  501  0.85094319482E+02 -0.82140517817E+02  0.11283807244E+01  0.11835055352E+03  0.41800000000E+01 0.  1.
</event>
<event>
11    1  0.8864208E-009  0.2143058E+03  0.7561462E-02  0.1044844E+00
         22   -1    0    0    0    0  0.00000000000E+00  0.00000000000E+00  0.30592937653E+03  0.30592937653E+03  0.00000000000E+00 0.  1.
         22   -1    0    0    0    0 -0.00000000000E+00 -0.00000000000E+00 -0.24558316238E+03  0.24558316238E+03  0.00000000000E+00 0.  1.
         24    2    1    2    0    0  0.13446268300E+03  0.13412136029E+03 -0.88523047312E+02  0.22432249258E+03  0.80096806220E+02 0.  0.
         25    2    1    2    0    0 -0.99279835814E+02 -0.10315895967E+03  0.63249932941E+02  0.20035948313E+03  0.12508042094E+03 0.  0.
        -24    2    1    2    0    0 -0.35182847186E+02 -0.30962400617E+02  0.85619328523E+02  0.12683056320E+03  0.80986538116E+02 0.  0.
        -11    1    3    3    0    0  0.13857648339E+03  0.13936904909E+03 -0.91768147827E+02  0.21690681536E+03  0.00000000000E+00 0.  1.
         12    1    3    3    0    0 -0.41138003882E+01 -0.52476887982E+01  0.32451005153E+01  0.74156772254E+01  0.00000000000E+00 0. -1.
         11    1    5    5    0    0  0.56785668747E+01 -0.34396605777E+02  0.34935352566E+01  0.35036800643E+02  0.00000000000E+00 0. -1.
        -12    1    5    5    0    0 -0.40861414060E+02  0.34342051602E+01  0.82125793266E+02  0.91793762553E+02  0.00000000000E+00 0.  1.
          5    1    4    4  501    0  0.28125015059E+02 -0.27921912855E+02  0.26459214143E+02  0.47835260035E+02  0.41800000000E+01 0.  1.
         -5    1    4    4    0  501 -0.12740485087E+03 -0.75237046818E+02  0.36790718797E+02  0.15252422309E+03  0.41800000000E+01 0.  1.
</event>
<event>
11    1  0.8864208E-009  0.1530040E+03  0.7561462E-02  0.1093848E+00
         22   -1    0    0    0    0  0.00000000000E+00  0.00000000000E+00  0.10732139875E+03  0.10732139875E+03  0.00000000000E+00 0.  1.
         22   -1    0    0    0    0 -0.00000000000E+00 -0.00000000000E+00 -0.19011604028E+04  0.19011604028E+04  0.00000000000E+00 0.  1.
         24    2    1    2    0    0 -0.78288759608E+02  0.14768965660E+02 -0.13392534552E+04  0.13444237220E+04  0.86764479173E+02 0.  0.
         25    2    1    2    0    0  0.15149259157E+03  0.79185470066E+01 -0.50537921693E+03  0.54228121567E+03  0.12509218711E+03 0.  0.
        -24    2    1    2    0    0 -0.73203831965E+02 -0.22687512667E+02  0.50793668045E+02  0.12177686388E+03  0.79850382708E+02 0.  0.
        -11    1    3    3    0    0 -0.88522457219E+02 -0.11798959451E+02 -0.10253296949E+04  0.10292115546E+04  0.00000000000E+00 0.  1.
         12    1    3    3    0    0  0.10233697610E+02  0.26567925111E+02 -0.31392376031E+03  0.31521216744E+03  0.00000000000E+00 0. -1.
         11    1    5    5    0    0 -0.60461434979E+02 -0.12135986345E+02 -0.66250672357E+01  0.62022244399E+02  0.00000000000E+00 0. -1.
        -12    1    5    5    0    0 -0.12742396986E+02 -0.10551526322E+02  0.57418735281E+02  0.59754619486E+02  0.00000000000E+00 0.  1.
          5    1    4    4  501    0  0.15437057947E+03  0.39899205199E+02 -0.45727880514E+03  0.48429701673E+03  0.41800000000E+01 0.  1.
         -5    1    4    4    0  501 -0.28779878951E+01 -0.31980658193E+02 -0.48100411794E+02  0.57984198947E+02  0.41800000000E+01 0.  1.
</event>
<event>
11    1  0.8864208E-009  0.3370132E+03  0.7561462E-02  0.9856391E-01
         22   -1    0    0    0    0  0.00000000000E+00  0.00000000000E+00  0.41797973594E+03  0.41797973594E+03  0.00000000000E+00 0. -1.
         22   -1    0    0    0    0 -0.00000000000E+00 -0.00000000000E+00 -0.62748589575E+03  0.62748589575E+03  0.00000000000E+00 0. -1.
        -24    2    1    2    0    0  0.41745591897E+02  0.49234759292E+02 -0.26793052576E+03  0.28678834087E+03  0.79334922062E+02 0.  0.
         25    2    1    2    0    0  0.18957580704E+03 -0.25859633527E+03 -0.14941931766E+03  0.37521262240E+03  0.12508928127E+03 0.  0.
         24    2    1    2    0    0 -0.23132139894E+03  0.20936157598E+03  0.20784368361E+03  0.38346466842E+03  0.80649215786E+02 0.  0.
        -13    1    5    5    0    0 -0.33637919357E+02  0.70641074898E+02  0.72278547696E+02  0.10651694484E+03  0.00000000000E+00 0.  1.
         14    1    5    5    0    0 -0.19768347958E+03  0.13872050108E+03  0.13556513591E+03  0.27694772358E+03  0.00000000000E+00 0. -1.
         11    1    3    3    0    0  0.39823732197E+02  0.68970545745E+02 -0.18309673201E+03  0.19966792206E+03  0.00000000000E+00 0. -1.
        -12    1    3    3    0    0  0.19218596999E+01 -0.19735786452E+02 -0.84833793746E+02  0.87120418806E+02  0.00000000000E+00 0.  1.
          5    1    4    4  501    0  0.82277519163E+02 -0.14098847821E+03 -0.14098487513E+03  0.21573490344E+03  0.41800000000E+01 0.  1.
         -5    1    4    4    0  501  0.10729828788E+03 -0.11760785706E+03 -0.84344425331E+01  0.15947771896E+03  0.41800000000E+01 0.  1.
</event>
<event>
11    1  0.8864208E-009  0.1382929E+03  0.7561462E-02  0.1109480E+00
         22   -1    0    0    0    0  0.00000000000E+00  0.00000000000E+00  0.22571995532E+04  0.22571995532E+04  0.00000000000E+00 0. -1.
         22   -1    0    0    0    0 -0.00000000000E+00 -0.00000000000E+00 -0.10700903179E+03  0.10700903179E+03  0.00000000000E+00 0. -1.
         24    2    1    2    0    0 -0.29687686135E+02 -0.32274568415E+02 -0.50810913085E+02  0.10495612657E+03  0.80690973116E+02 0.  0.
         25    2    1    2    0    0  0.67530480379E+02  0.75237057010E+02  0.20310434706E+03  0.25907525974E+03  0.12509050280E+03 0.  0.
        -24    2    1    2    0    0 -0.37842794244E+02 -0.42962488595E+02  0.19978970874E+04  0.20001771986E+04  0.76408125104E+02 0.  0.
        -11    1    3    3    0    0 -0.10051738671E+02 -0.43390917452E+02  0.49390160983E+01  0.44812978563E+02  0.00000000000E+00 0.  1.
         12    1    3    3    0    0 -0.19635947463E+02  0.11116349037E+02 -0.55749929183E+02  0.60143148011E+02  0.00000000000E+00 0. -1.
         13    1    5    5    0    0 -0.41489736069E+02  0.97656764660E+01  0.88922235452E+03  0.89024331641E+03  0.00000000000E+00 0. -1.
        -14    1    5    5    0    0  0.36469418244E+01 -0.52728165061E+02  0.11086747329E+04  0.11099338822E+04  0.00000000000E+00 0.  1.
          5    1    4    4  501    0 -0.19481999047E+02  0.42172511631E+01  0.11356003373E+03  0.11537195134E+03  0.41800000000E+01 0. -1.
         -5    1    4    4    0  501  0.87012479426E+02  0.71019805847E+02  0.89544313328E+02  0.14370330841E+03  0.41800000000E+01 0. -1.
</event>
<event>
11    1  0.8864208E-009  0.1392357E+03  0.7561462E-02  0.1108415E+00
         22   -1    0    0    0    0  0.00000000000E+00  0.00000000000E+00  0.99174437222E+03  0.99174437222E+03  0.00000000000E+00 0. -1.
         22   -1    0    0    0    0 -0.00000000000E+00 -0.00000000000E+00 -0.40511051857E+03  0.40511051857E+03  0.00000000000E+00 0. -1.
        -24    2    1    2    0    0  0.38761743662E+02  0.47625438774E+02 -0.38025736733E+03  0.39377583724E+03  0.81811303581E+02 0.  0.
         25    2    1    2    0    0 -0.26420033997E+02 -0.41124116870E+02  0.27076018363E+03  0.30224567417E+03  0.12510859016E+03 0.  0.
         24    2    1    2    0    0 -0.12341709665E+02 -0.65013219048E+01  0.69613103736E+03  0.70083337938E+03  0.79839961746E+02 0.  0.
        -11    1    5    5    0    0  0.30469751000E+02 -0.11099074918E+02  0.43203834350E+03  0.43325365023E+03  0.00000000000E+00 0.  1.
         12    1    5    5    0    0 -0.42811460665E+02  0.45977530132E+01  0.26409269386E+03  0.26757972914E+03  0.00000000000E+00 0. -1.
         11    1    3    3    0    0 -0.40741410074E+01  0.11688966168E+02 -0.26875221828E+03  0.26903714499E+03  0.00000000000E+00 0. -1.
        -12    1    3    3    0    0  0.42835884669E+02  0.35936472606E+02 -0.11150514906E+03  0.12473869225E+03  0.00000000000E+00 0.  1.
          5    1    4    4  501    0 -0.29526843508E+02 -0.61076668721E+01  0.12980141990E+01  0.30467939265E+02  0.41800000000E+01 0.  1.
         -5    1    4    4    0  501  0.31068095116E+01 -0.35016449997E+02  0.26946216943E+03  0.27177773491E+03  0.41800000000E+01 0.  1.
</event>
<event>
11    1  0.8864208E-009  0.2533053E+03  0.7561462E-02  0.1022153E+00
         22   -1    0    0    0    0  0.00000000000E+00  0.00000000000E+00  0.52424421151E+03  0.52424421151E+03  0.00000000000E+00 0.  1.
         22   -1    0    0    0    0 -0.00000000000E+00 -0.00000000000E+00 -0.26034701055E+04  0.26034701055E+04  0.00000000000E+00 0.  1.
         24    2    1    2    0    0  0.27364174147E+02  0.21817404873E+03 -0.20999364823E+04  0.21129785630E+04  0.81218622819E+02 0.  0.
         25    2    1    2    0    0  0.54000020572E+01 -0.22421101467E+03 -0.45985532644E+03  0.52670166477E+03  0.12509189940E+03 0.  0.
        -24    2    1    2    0    0 -0.32764176204E+02  0.60369659346E+01  0.48056591470E+03  0.48803408923E+03  0.78254314126E+02 0.  0.
        -13    1    3    3    0    0 -0.97015590204E+01  0.17281655674E+03 -0.16974236386E+04  0.17062258618E+04  0.00000000000E+00 0.  1.
         14    1    3    3    0    0  0.37065733167E+02  0.45357491995E+02 -0.40251284367E+03  0.40675270125E+03  0.00000000000E+00 0. -1.
         11    1    5    5    0    0 -0.20841247088E+01  0.27531440201E+02  0.62917502177E+02  0.68709066764E+02  0.00000000000E+00 0. -1.
        -12    1    5    5    0    0 -0.30680051495E+02 -0.21494474266E+02  0.41764841253E+03  0.41932502247E+03  0.00000000000E+00 0.  1.
          5    1    4    4  501    0  0.51362135363E+02 -0.41274393184E+02 -0.91415704677E+02  0.11276501205E+03  0.41800000000E+01 0.  1.
         -5    1    4    4    0  501 -0.45962133305E+02 -0.18293662148E+03 -0.36843962176E+03  0.41393665272E+03  0.41800000000E+01 0.  1.
</event>
<event>
11    1  0.8864208E-009  0.1779143E+03  0.7561462E-02  0.1071343E+00
         22   -1    0    0    0    0  0.00000000000E+00  0.00000000000E+00  0.17415699508E+04  0.17415699508E+04  0.00000000000E+00 0. -1.
         22   -1    0    0    0    0 -0.00000000000E+00 -0.00000000000E+00 -0.38834649096E+04  0.38834649096E+04  0.00000000000E+00 0. -1.
        -24    2    1    2    0    0  0.40478725943E+00 -0.12659922533E+03 -0.38179515438E+04  0.38208963184E+04  0.80418637963E+02 0.  0.
         25    2    1    2    0    0 -0.81088341696E+02  0.11852702869E+03  0.84287575150E+02  0.20826284215E+03  0.12508013594E+03 0.  0.
         24    2    1    2    0    0  0.80683554437E+02  0.80721966429E+01  0.15917690099E+04  0.15958756999E+04  0.80719716261E+02 0.  0.
        -13    1    5    5    0    0  0.82719000214E+01 -0.49736466673E+01  0.18318061393E+02  0.20705382496E+02  0.00000000000E+00 0.  1.
         14    1    5    5    0    0  0.72411654415E+02  0.13045843310E+02  0.15734509485E+04  0.15751703174E+04  0.00000000000E+00 0. -1.
         13    1    3    3    0    0 -0.33913148224E+01 -0.11860069023E+03 -0.24116515140E+04  0.24145684189E+04  0.00000000000E+00 0. -1.
        -14    1    3    3    0    0  0.37961020819E+01 -0.79985351013E+01 -0.14063000298E+04  0.14063278995E+04  0.00000000000E+00 0.  1.
          5    1    4    4  501    0 -0.17131116266E+02  0.12373575770E+03  0.44644245056E+02  0.13271998303E+03  0.41800000000E+01 0. -1.
         -5    1    4    4    0  501 -0.63957225430E+02 -0.52087290163E+01  0.39643330094E+02  0.75542859117E+02  0.41800000000E+01 0. -1.
</event>
<event>
11    1  0.8864208E-009  0.1429077E+03  0.7561462E-02  0.1104354E+00
         22   -1    0    0    0    0  0.00000000000E+00  0.00000000000E+00  0.57336490661E+03  0.57336490661E+03  0.00000000000E+00 0.  1.
         22   -1    0    0    0    0 -0.00000000000E+00 -0.00000000000E+00 -0.23466393696E+04  0.23466393696E+04  0.00000000000E+00 0. -1.
        -24    2    1    2    0    0  0.36119694932E+02 -0.32385563204E+02 -0.22041382069E+04  0.22060546967E+04  0.78093742996E+02 0.  0.
         25    2    1    2    0    0 -0.80776870681E+02 -0.20387149922E+02 -0.95022131160E+02  0.17781167008E+03  0.12508895190E+03 0.  0.
         24    2    1    2    0    0  0.44657175749E+02  0.52772713126E+02  0.52588587500E+03  0.53613790949E+03  0.78158057008E+02 0.  0.
        -11    1    5    5    0    0  0.42655308342E+02  0.46006121017E+02  0.52532623184E+03  0.52905924844E+03  0.00000000000E+00 0.  1.
         12    1    5    5    0    0  0.20018674071E+01  0.67665921088E+01  0.55964316288E+00  0.70786610565E+01  0.00000000000E+00 0. -1.
         13    1    3    3    0    0  0.50381873400E+02 -0.21356568571E+02 -0.83178267277E+03  0.83358074048E+03  0.00000000000E+00 0. -1.
        -14    1    3    3    0    0 -0.14262178468E+02 -0.11028994632E+02 -0.13723555341E+04  0.13724739562E+04  0.00000000000E+00 0.  1.
          5    1    4    4  501    0 -0.10894014818E+03  0.82986243873E+01 -0.75910248843E+02  0.13310394935E+03  0.41800000000E+01 0. -1.
         -5    1    4    4    0  501  0.28163277503E+02 -0.28685774310E+02 -0.19111882317E+02  0.44707720733E+02  0.41800000000E+01 0. -1.
</event>
<event>
11    1  0.8864208E-009  0.1311540E+03  0.7561462E-02  0.1117859E+00
         22   -1    0    0    0    0  0.00000000000E+00  0.00000000000E+00  0.53379003880E+03  0.53379003880E+03  0.00000000000E+00 0.  1.
         22   -1    0    0    0    0 -0.00000000000E+00 -0.00000000000E+00 -0.32361183743E+03  0.32361183743E+03  0.00000000000E+00 0.  1.
        -24    2    1    2    0    0  0.70051360403E+00 -0.39558367274E+02 -0.17228884630E+03  0.19386666477E+03  0.79595741156E+02 0.  0.
         25    2    1    2    0    0  0.87989559175E+01  0.74529730487E-01 -0.10751104746E+03  0.16516796385E+03  0.12507759102E+03 0.  0.
         24    2    1    2    0    0 -0.94994695215E+01  0.39483837543E+02  0.48997809512E+03  0.49836724760E+03  0.81499487318E+02 0.  0.
        -11    1    5    5    0    0 -0.63110828826E+01  0.12374277259E+02  0.44848856325E+03  0.44870362588E+03  0.00000000000E+00 0.  1.
         12    1    5    5    0    0 -0.31883866389E+01  0.27109560285E+02  0.41489531871E+02  0.49663621727E+02  0.00000000000E+00 0. -1.
         11    1    3    3    0    0 -0.20430207683E+02 -0.57392332429E+02 -0.12584335685E+03  0.13981353179E+03  0.00000000000E+00 0. -1.
        -12    1    3    3    0    0  0.21130721287E+02  0.17833965155E+02 -0.46445489451E+02  0.54053132986E+02  0.00000000000E+00 0.  1.
          5    1    4    4  501    0 -0.14479884192E+02  0.55272079487E+02 -0.81746596327E+02  0.99823084645E+02  0.41800000000E+01 0.  1.
         -5    1    4    4    0  501  0.23278840109E+02 -0.55197549757E+02 -0.25764451130E+02  0.65344879203E+02  0.41800000000E+01 0.  1.
</event>
<event>
11    1  0.8864208E-009  0.1468504E+03  0.7561462E-02  0.1100141E+00
         22   -1    0    0    0    0  0.00000000000E+00  0.00000000000E+00  0.10330949069E+03  0.10330949069E+03  0.00000000000E+00 0. -1.
         22   -1    0    0    0    0 -0.00000000000E+00 -0.00000000000E+00 -0.18076006570E+04  0.18076006570E+04  0.00000000000E+00 0.  1.
        -24    2    1    2    0    0 -0.92055472056E+01  0.72985248238E+02 -0.12175829060E+04  0.12223324530E+04  0.78593283178E+02 0.  0.
         25    2    1    2    0    0  0.41455333642E+02 -0.86975022503E+02 -0.55481332537E+03  0.57684323125E+03  0.12508832163E+03 0.  0.
         24    2    1    2    0    0 -0.32249786436E+02  0.13989774264E+02  0.68105065000E+02  0.11173446347E+03  0.81305153213E+02 0.  0.
        -11    1    5    5    0    0 -0.13091487318E+02 -0.33907506371E+02  0.34868743694E+02  0.50367998921E+02  0.00000000000E+00 0.  1.
         12    1    5    5    0    0 -0.19158299118E+02  0.47897280635E+02  0.33236321306E+02  0.61366464549E+02  0.00000000000E+00 0. -1.
         13    1    3    3    0    0 -0.17726718137E+02 -0.10002415067E+02 -0.13330156569E+03  0.13484655079E+03  0.00000000000E+00 0. -1.
        -14    1    3    3    0    0  0.85211709311E+01  0.82987663305E+02 -0.10842813403E+04  0.10874859022E+04  0.00000000000E+00 0.  1.
          5    1    4    4  501    0 -0.41988416553E+01 -0.49986786379E+02 -0.47492830577E+03  0.47758839717E+03  0.41800000000E+01 0. -1.
         -5    1    4    4    0  501  0.45654175297E+02 -0.36988236123E+02 -0.79885019598E+02  0.99254834088E+02  0.41800000000E+01 0. -1.
</event>
<event>
11    1  0.8864208E-009  0.2079551E+03  0.7561462E-02  0.1049036E+00
         22   -1    0    0    0    0  0.00000000000E+00  0.00000000000E+00  0.33579743944E+03  0.33579743944E+03  0.00000000000E+00 0.  1.
         22   -1    0    0    0    0 -0.00000000000E+00 -0.00000000000E+00 -0.17214376584E+04  0.17214376584E+04  0.00000000000E+00 0. -1.
         24    2    1    2    0    0  0.81026423909E+02 -0.14647218015E+03 -0.14491114467E+04  0.14610126492E+04  0.81330161907E+02 0.  0.
         25    2    1    2    0    0 -0.88624196215E+02  0.13126380456E+03 -0.22139562546E+03  0.29957853592E+03  0.12508733618E+03 0.  0.
        -24    2    1    2    0    0  0.75977723061E+01  0.15208375590E+02  0.28486685324E+03  0.29664391267E+03  0.80990530432E+02 0.  0.
        -13    1    3    3    0    0 -0.89765306377E+01 -0.12605065034E+01 -0.20806683316E+03  0.20826419289E+03  0.00000000000E+00 0.  1.
         14    1    3    3    0    0  0.90002954546E+02 -0.14521167364E+03 -0.12410446136E+04  0.12527484563E+04  0.00000000000E+00 0. -1.
         11    1    5    5    0    0 -0.16132932026E+02 -0.15645241711E+02  0.23962068166E+02  0.32851572181E+02  0.00000000000E+00 0. -1.
        -12    1    5    5    0    0  0.23730704332E+02  0.30853617300E+02  0.26090478507E+03  0.26379234049E+03  0.00000000000E+00 0.  1.
          5    1    4    4  501    0 -0.60985266172E+02  0.13689527578E+03 -0.11367087530E+03  0.18814372037E+03  0.41800000000E+01 0. -1.
         -5    1    4    4    0  501 -0.27638930042E+02 -0.56314712266E+01 -0.10772475015E+03  0.11143481555E+03  0.41800000000E+01 0. -1.
</event>
<event>
11    1  0.8864208E-009  0.1571893E+03  0.7561462E-02  0.1089751E+00
         22   -1    0    0    0    0  0.00000000000E+00  0.00000000000E+00  0.48739765416E+03  0.48739765416E+03  0.00000000000E+00 0.  1.
         22   -1    0    0    0    0 -0.00000000000E+00 -0.00000000000E+00 -0.11978164508E+04  0.11978164508E+04  0.00000000000E+00 0. -1.
        -24    2    1    2    0    0 -0.84671976477E+02  0.42758672025E+02 -0.11477827257E+04  0.11544355428E+04  0.79489555032E+02 0.  0.
         25    2    1    2    0    0  0.97606101832E+02 -0.55835204384E+02  0.12932314290E+03  0.21217087776E+03  0.12508990733E+03 0.  0.
         24    2    1    2    0    0 -0.12934125356E+02  0.13076532358E+02  0.30804078624E+03  0.31860768436E+03  0.79268173001E+02 0.  0.
        -13    1    5    5    0    0 -0.37536253055E+02  0.95933275160E+01  0.27251220376E+03  0.27525243582E+03  0.00000000000E+00 0.  1.
         14    1    5    5    0    0  0.24602127700E+02  0.34832048424E+01  0.35528582482E+02  0.43355248546E+02  0.00000000000E+00 0. -1.
         13    1    3    3    0    0 -0.50790394609E+02  0.43086101578E+02 -0.10220322911E+04  0.10242002150E+04  0.00000000000E+00 0. -1.
        -14    1    3    3    0    0 -0.33881581868E+02 -0.32742955291E+00 -0.12575043464E+03  0.13023532781E+03  0.00000000000E+00 0.  1.
          5    1    4    4  501    0  0.91062313856E+02 -0.92595943134E+02  0.91985768318E+02  0.15920178285E+03  0.41800000000E+01 0.  1.
         -5    1    4    4    0  501  0.65437879761E+01  0.36760738750E+02  0.37337374579E+02  0.52969094905E+02  0.41800000000E+01 0.  1.
</event>
<event>
11    1  0.8864208E-009  0.6105816E+03  0.7561462E-02  0.9175560E-01
         22   -1    0    0    0    0  0.00000000000E+00  0.00000000000E+00  0.10541744812E+04  0.10541744812E+04  0.00000000000E+00 0. -1.
         22   -1    0    0    0    0 -0.00000000000E+00 -0.00000000000E+00 -0.59961015762E+03  0.59961015762E+03  0.00000000000E+00 0. -1.
        -24    2    1    2    0    0 -0.36094221148E+03 -0.48807092243E+03 -0.10599365460E+03  0.62127855982E+03  0.79119458564E+02 0.  0.
         25    2    1    2    0    0  0.15080201614E+03  0.58878756746E+03  0.40584618676E+03  0.74146441738E+03  0.12508520002E+03 0.  0.
         24    2    1    2    0    0  0.21014019534E+03 -0.10071664503E+03  0.15471179146E+03  0.29104166165E+03  0.80416205575E+02 0.  0.
        -13    1    5    5    0    0  0.31187638634E+02 -0.44583312003E+02  0.12912068384E+02  0.55920139688E+02  0.00000000000E+00 0.  1.
         14    1    5    5    0    0  0.17895255670E+03 -0.56133333025E+02  0.14179972307E+03  0.23512152196E+03  0.00000000000E+00 0. -1.
         13    1    3    3    0    0 -0.17035008259E+03 -0.21817598456E+03 -0.87707407708E+02  0.29036614859E+03  0.00000000000E+00 0. -1.
        -14    1    3    3    0    0 -0.19059212889E+03 -0.26989493787E+03 -0.18286246896E+02  0.33091241123E+03  0.00000000000E+00 0.  1.
          5    1    4    4  501    0  0.80496520394E+02  0.45516432206E+03  0.35234304077E+03  0.58122056111E+03  0.41800000000E+01 0. -1.
         -5    1    4    4    0  501  0.70305495748E+02  0.13362324540E+03  0.53503145996E+02  0.16024385628E+03  0.41800000000E+01 0. -1.
</event>
<event>
11    1  0.8864208E-009  0.1597744E+03  0.7561462E-02  0.1087290E+00
         22   -1    0    0    0    0  0.00000000000E+00  0.00000000000E+00  0.29562925372E+04  0.29562925372E+04  0.00000000000E+00 0.  1.
         22   -1    0    0    0    0 -0.00000000000E+00 -0.00000000000E+00 -0.36118998835E+03  0.36118998835E+03  0.00000000000E+00 0. -1.
        -24    2    1    2    0    0 -0.33908895184E+02  0.94732020101E+00 -0.15458739482E+03  0.17765841294E+03  0.80712690855E+02 0.  0.
         25    2    1    2    0    0 -0.54710290250E+02 -0.46443811673E+02 -0.16679565813E+03  0.22049644795E+03  0.12509056113E+03 0.  0.
         24    2    1    2    0    0  0.88619185434E+02  0.45496491472E+02  0.29164856018E+04  0.29193276647E+04  0.81623877611E+02 0.  0.
        -11    1    5    5    0    0  0.62633150725E+02  0.58659595563E+02  0.26222273025E+04  0.26236310499E+04  0.00000000000E+00 0.  1.
         12    1    5    5    0    0  0.25986034709E+02 -0.13163104090E+02  0.29425829925E+03  0.29569661477E+03  0.00000000000E+00 0. -1.
         13    1    3    3    0    0 -0.49598317289E+01  0.87206482539E+01 -0.14618448245E+03  0.14652833360E+03  0.00000000000E+00 0. -1.
        -14    1    3    3    0    0 -0.28949063455E+02 -0.77733280529E+01 -0.84029123650E+01  0.31130079347E+02  0.00000000000E+00 0.  1.
          5    1    4    4  501    0 -0.93149652397E+02 -0.48729855134E+02 -0.11575811187E+03  0.15642528372E+03  0.41800000000E+01 0.  1.
         -5    1    4    4    0  501  0.38439362147E+02  0.22860434606E+01 -0.51037546260E+02  0.64071164225E+02  0.41800000000E+01 0.  1.
</event>
<event>
11    1  0.8864208E-009  0.1415408E+03  0.7561462E-02  0.1105850E+00
         22   -1    0    0    0    0  0.00000000000E+00  0.00000000000E+00  0.13494372867E+03  0.13494372867E+03  0.00000000000E+00 0. -1.
         22   -1    0    0    0    0 -0.00000000000E+00 -0.00000000000E+00 -0.11857722505E+04  0.11857722505E+04  0.00000000000E+00 0. -1.
        -24    2    1    2    0    0  0.28232498133E+02 -0.34648834747E+02 -0.10487387603E+04  0.10527846394E+04  0.80652922138E+02 0.  0.
         25    2    1    2    0    0 -0.75746656787E+02 -0.11526603310E+02 -0.47839390184E+02  0.15429442443E+03  0.12509094116E+03 0.  0.
         24    2    1    2    0    0  0.47514158654E+02  0.46175438057E+02  0.45749628621E+02  0.11363691538E+03  0.80190733047E+02 0.  0.
        -13    1    5    5    0    0 -0.19552069121E+02 -0.20970467172E+00 -0.11151605063E+01  0.19584967856E+02  0.00000000000E+00 0.  1.
         14    1    5    5    0    0  0.67066227775E+02  0.46385142729E+02  0.46864789127E+02  0.94051947529E+02  0.00000000000E+00 0. -1.
         11    1    3    3    0    0  0.21938787637E+02  0.22573763231E+01 -0.86445469824E+03  0.86473598946E+03  0.00000000000E+00 0. -1.
        -12    1    3    3    0    0  0.62937104957E+01 -0.36906211070E+02 -0.18428406207E+03  0.18804864993E+03  0.00000000000E+00 0.  1.
          5    1    4    4  501    0  0.14200898351E+02  0.39458265250E+02 -0.55425617125E+01  0.42506618318E+02  0.41800000000E+01 0. -1.
         -5    1    4    4    0  501 -0.89947555138E+02 -0.50984868560E+02 -0.42296828472E+02  0.11178780612E+03  0.41800000000E+01 0. -1.
</event>
<event>
11    1  0.8864208E-009  0.1659317E+03  0.7561462E-02  0.1081627E+00
         22   -1    0    0    0    0  0.00000000000E+00  0.00000000000E+00  0.88808645418E+03  0.88808645418E+03  0.00000000000E+00 0.  1.
         22   -1    0    0    0    0 -0.00000000000E+00 -0.00000000000E+00 -0.58225737992E+03  0.58225737992E+03  0.00000000000E+00 0.  1.
        -24    2    1    2    0    0  0.27411733093E+02 -0.17940598775E+02 -0.47293811094E+03  0.48096231821E+03  0.81123526564E+02 0.  0.
         25    2    1    2    0    0  0.29002485408E+02  0.11114563173E+03 -0.27632368006E+02  0.17206310654E+03  0.12509064416E+03 0.  0.
         24    2    1    2    0    0 -0.56414218500E+02 -0.93205032959E+02  0.80639955320E+03  0.81731840936E+03  0.76546722090E+02 0.  0.
        -11    1    5    5    0    0 -0.71701116005E+02 -0.86880239559E+02  0.61708106674E+03  0.62727846209E+03  0.00000000000E+00 0.  1.
         12    1    5    5    0    0  0.15286897505E+02 -0.63247933999E+01  0.18931848646E+03  0.19003994728E+03  0.00000000000E+00 0. -1.
         11    1    3    3    0    0  0.41177397449E+02  0.20961266168E+02 -0.24499012508E+03  0.24930927405E+03  0.00000000000E+00 0. -1.
        -12    1    3    3    0    0 -0.13765664356E+02 -0.38901864943E+02 -0.22794798586E+03  0.23165304416E+03  0.00000000000E+00 0.  1.
          5    1    4    4  501    0 -0.46394850367E+02  0.29494725824E+02 -0.25697737187E+02  0.60829820718E+02  0.41800000000E+01 0.  1.
         -5    1    4    4    0  501  0.75397335775E+02  0.81650905910E+02 -0.19346308187E+01  0.11123328582E+03  0.41800000000E+01 0.  1.
</event>
<event>
11    1  0.8864208E-009  0.1369318E+03  0.7561462E-02  0.1111034E+00
         22   -1    0    0    0    0  0.00000000000E+00  0.00000000000E+00  0.37971452433E+03  0.37971452433E+03  0.00000000000E+00 0.  1.
         22   -1    0    0    0    0 -0.00000000000E+00 -0.00000000000E+00 -0.17311286868E+03  0.17311286868E+03  0.00000000000E+00 0. -1.
         24    2    1    2    0    0 -0.30081856853E+02  0.46187471684E+02 -0.76177284652E+02  0.12406491725E+03  0.80937780683E+02 0.  0.
         25    2    1    2    0    0  0.45021092474E+02 -0.38203637129E+02  0.48496148611E+01  0.13843279882E+03  0.12511476479E+03 0.  0.
        -24    2    1    2    0    0 -0.14939235621E+02 -0.79838345553E+01  0.27792932543E+03  0.29032967694E+03  0.82217327869E+02 0.  0.
        -13    1    3    3    0    0 -0.15553397857E+02  0.22168807552E+02  0.13384040403E+02  0.30207561151E+02  0.00000000000E+00 0.  1.
         14    1    3    3    0    0 -0.14528458997E+02  0.24018664132E+02 -0.89561325055E+02  0.93857356095E+02  0.00000000000E+00 0. -1.
         13    1    5    5    0    0 -0.15145055610E+02 -0.26740759976E+02  0.34596124559E+02  0.46274537146E+02  0.00000000000E+00 0. -1.
        -14    1    5    5    0    0  0.20581998900E+00  0.18756925421E+02  0.24333320087E+03  0.24405513980E+03  0.00000000000E+00 0.  1.
          5    1    4    4  501    0  0.80547595390E+02  0.63737605879E+01  0.72141949108E+01  0.81228424553E+02  0.41800000000E+01 0.  1.
         -5    1    4    4    0  501 -0.35526502915E+02 -0.44577397717E+02 -0.23645800498E+01  0.57204374268E+02  0.41800000000E+01 0.  1.
</event>
<event>
11    1  0.8864208E-009  0.1480249E+03  0.7561462E-02  0.1098914E+00
         22   -1    0    0    0    0  0.00000000000E+00  0.00000000000E+00  0.80379016083E+03  0.80379016083E+03  0.00000000000E+00 0. -1.
         22   -1    0    0    0    0 -0.00000000000E+00 -0.00000000000E+00 -0.13013103507E+04  0.13013103507E+04  0.00000000000E+00 0. -1.
         24    2    1    2    0    0  0.26767185200E+02 -0.74219346780E+02 -0.12732174258E+04  0.12784205748E+04  0.83973561000E+02 0.  0.
         25    2    1    2    0    0 -0.85483207431E+01  0.11343046598E+03  0.31665640667E+03  0.35897083530E+03  0.12509690770E+03 0.  0.
        -24    2    1    2    0    0 -0.18218864457E+02 -0.39211119196E+02  0.45904082927E+03  0.46770910147E+03  0.78510392750E+02 0.  0.
        -13    1    3    3    0    0 -0.10327827467E+02 -0.57401746717E+01 -0.68119634284E+03  0.68129881192E+03  0.00000000000E+00 0.  1.
         14    1    3    3    0    0  0.37095012667E+02 -0.68479172109E+02 -0.59202108297E+03  0.59712176284E+03  0.00000000000E+00 0. -1.
         13    1    5    5    0    0 -0.47608163821E+02 -0.31236004667E+02  0.24606731336E+03  0.25256949133E+03  0.00000000000E+00 0. -1.
        -14    1    5    5    0    0  0.29389299364E+02 -0.79751145292E+01  0.21297351591E+03  0.21513961014E+03  0.00000000000E+00 0.  1.
          5    1    4    4  501    0  0.10927854180E+01  0.43496386795E+01  0.19554007905E+03  0.19563616346E+03  0.41800000000E+01 0.  1.
         -5    1    4    4    0  501 -0.96411061612E+01  0.10908082730E+03  0.12111632762E+03  0.16333467185E+03  0.41800000000E+01 0.  1.
</event>
<event>
11    1  0.8864208E-009  0.2056551E+03  0.7561462E-02  0.1050595E+00
         22   -1    0    0    0    0  0.00000000000E+00  0.00000000000E+00  0.20394638757E+03  0.20394638757E+03  0.00000000000E+00 0. -1.
         22   -1    0    0    0    0 -0.00000000000E+00 -0.00000000000E+00 -0.19958295110E+04  0.19958295110E+04  0.00000000000E+00 0.  1.
        -24    2    1    2    0    0  0.13239529849E+02  0.58820191885E+02 -0.11414370955E+04  0.11458103008E+04  0.79796631762E+02 0.  0.
         25    2    1    2    0    0  0.11533998881E+03  0.45642642521E+02 -0.79848559604E+03  0.81769025592E+03  0.12510612977E+03 0.  0.
         24    2    1    2    0    0 -0.12857951866E+03 -0.10446283441E+03  0.14803956810E+03  0.23627534181E+03  0.80406138047E+02 0.  0.
        -11    1    5    5    0    0  0.40602681084E+01 -0.66571730499E+01  0.36388237186E+02  0.37214345831E+02  0.00000000000E+00 0.  1.
         12    1    5    5    0    0 -0.13263978677E+03 -0.97805661356E+02  0.11165133091E+03  0.19906099598E+03  0.00000000000E+00 0. -1.
         13    1    3    3    0    0  0.35094674991E+02  0.36214925476E+02 -0.33635688387E+03  0.34011631887E+03  0.00000000000E+00 0. -1.
        -14    1    3    3    0    0 -0.21855145142E+02  0.22605266409E+02 -0.80508021162E+03  0.80569398197E+03  0.00000000000E+00 0.  1.
          5    1    4    4  501    0  0.19587971218E+02  0.36855774121E+02 -0.61477253363E+02  0.74424201598E+02  0.41800000000E+01 0.  1.
         -5    1    4    4    0  501  0.95752017591E+02  0.87868684003E+01 -0.73700834268E+03  0.74326605432E+03  0.41800000000E+01 0.  1.
</event>
<event>
11    1  0.8864208E-009  0.1889701E+03  0.7561462E-02  0.1062610E+00
         22   -1    0    0    0    0  0.00000000000E+00  0.00000000000E+00  0.74111843663E+03  0.74111843663E+03  0.00000000000E+00 0. -1.
         22   -1    0    0    0    0 -0.00000000000E+00 -0.00000000000E+00 -0.47558056226E+03  0.47558056226E+03  0.00000000000E+00 0.  1.
        -24    2    1    2    0    0 -0.26783680518E+02 -0.49558852647E+02 -0.37608475765E+03  0.38898296593E+03  0.81820275155E+02 0.  0.
         25    2    1    2    0    0  0.25629519044E+02  0.18555893508E+03  0.71295193039E+02  0.23626299212E+03  0.12509279059E+03 0.  0.
         24    2    1    2    0    0  0.11541614733E+01 -0.13600008244E+03  0.57032743898E+03  0.59145304084E+03  0.77755754470E+02 0.  0.
        -13    1    5    5    0    0  0.10433760494E+02 -0.82638141306E+02  0.19228873752E+03  0.20955401293E+03  0.00000000000E+00 0.  1.
         14    1    5    5    0    0 -0.92795990210E+01 -0.53361941130E+02  0.37803870146E+03  0.38189902792E+03  0.00000000000E+00 0. -1.
         11    1    3    3    0    0 -0.21067250631E+02 -0.39304950911E+02 -0.72135430067E+02  0.84807007294E+02  0.00000000000E+00 0. -1.
        -12    1    3    3    0    0 -0.57164298863E+01 -0.10253901736E+02 -0.30394932759E+03  0.30417595863E+03  0.00000000000E+00 0.  1.
          5    1    4    4  501    0 -0.48149702127E+02  0.10314854513E+03  0.27195595084E+02  0.11711143825E+03  0.41800000000E+01 0.  1.
         -5    1    4    4    0  501  0.73779221172E+02  0.82410389949E+02  0.44099597955E+02  0.11915155386E+03  0.41800000000E+01 0.  1.
</event>
<event>
11    1  0.8864208E-009  0.1656570E+03  0.7561462E-02  0.1081874E+00
         22   -1    0    0    0    0  0.00000000000E+00  0.00000000000E+00  0.21070875187E+03  0.21070875187E+03  0.00000000000E+00 0.  1.
         22   -1    0    0    0    0 -0.00000000000E+00 -0.00000000000E+00 -0.27379966962E+04  0.27379966962E+04  0.00000000000E+00 0.  1.
         24    2    1    2    0    0 -0.28198098085E+02 -0.27799267429E+02 -0.21552702794E+04  0.21571684364E+04  0.81349575386E+02 0.  0.
         25    2    1    2    0    0  0.97690821550E+02 -0.55855637603E+02 -0.54626721949E+03  0.57158762049E+03  0.12506471899E+03 0.  0.
        -24    2    1    2    0    0 -0.69492723465E+02  0.83654905032E+02  0.17424955462E+03  0.21994939120E+03  0.78660318169E+02 0.  0.
        -13    1    3    3    0    0 -0.32100479714E+02  0.87501078756E+01 -0.17279200489E+04  0.17282403480E+04  0.00000000000E+00 0.  1.
         14    1    3    3    0    0  0.39023816289E+01 -0.36549375305E+02 -0.42735023055E+03  0.42892808834E+03  0.00000000000E+00 0. -1.
         13    1    5    5    0    0  0.14242714977E+02  0.28940069121E+01  0.67794035799E+01  0.16037160560E+02  0.00000000000E+00 0. -1.
        -14    1    5    5    0    0 -0.83735438442E+02  0.80760898120E+02  0.16747015104E+03  0.20391223064E+03  0.00000000000E+00 0.  1.
          5    1    4    4  501    0 -0.19858704713E+02 -0.32306456099E+02 -0.62971948605E+02  0.73627535403E+02  0.41800000000E+01 0.  1.
         -5    1    4    4    0  501  0.11754952626E+03 -0.23549181504E+02 -0.48329527089E+03  0.49796008508E+03  0.41800000000E+01 0.  1.
</event>
<event>
11    1  0.8864208E-009  0.1280322E+03  0.7561462E-02  0.1121711E+00
         22   -1    0    0    0    0  0.00000000000E+00  0.00000000000E+00  0.88471533464E+02  0.88471533464E+02  0.00000000000E+00 0. -1.
         22   -1    0    0    0    0 -0.00000000000E+00 -0.00000000000E+00 -0.10215001067E+04  0.10215001067E+04  0.00000000000E+00 0.  1.
        -24    2    1    2    0    0  0.12612116009E+02 -0.23849884323E+02 -0.86338763038E+03  0.86787603809E+03  0.83921003005E+02 0.  0.
         25    2    1    2    0    0  0.78259123011E+01  0.40064825320E+02 -0.84913681902E+02  0.15660000513E+03  0.12508714203E+03 0.  0.
         24    2    1    2    0    0 -0.20438028310E+02 -0.16214940998E+02  0.15272739080E+02  0.85495596911E+02  0.79972515400E+02 0.  0.
        -11    1    5    5    0    0  0.17936248238E+02  0.22317031469E+02 -0.12535073556E+01  0.28658858581E+02  0.00000000000E+00 0.  1.
         12    1    5    5    0    0 -0.38374276549E+02 -0.38531972467E+02  0.16526246436E+02  0.56836738331E+02  0.00000000000E+00 0. -1.
         13    1    3    3    0    0  0.33756369009E+02  0.19430464337E+02 -0.32120264930E+03  0.32355552431E+03  0.00000000000E+00 0. -1.
        -14    1    3    3    0    0 -0.21144253000E+02 -0.43280348660E+02 -0.54218498108E+03  0.54432051379E+03  0.00000000000E+00 0.  1.
          5    1    4    4  501    0  0.23105085230E+02  0.82368223330E+02 -0.47455473534E+02  0.97917636543E+02  0.41800000000E+01 0. -1.
         -5    1    4    4    0  501 -0.15279172929E+02 -0.42303398009E+02 -0.37458208369E+02  0.58682368584E+02  0.41800000000E+01 0. -1.
</event>
<event>
11    1  0.8864208E-009  0.1738573E+03  0.7561462E-02  0.1074723E+00
         22   -1    0    0    0    0  0.00000000000E+00  0.00000000000E+00  0.12965749878E+04  0.12965749878E+04  0.00000000000E+00 0.  1.
         22   -1    0    0    0    0 -0.00000000000E+00 -0.00000000000E+00 -0.14604897800E+03  0.14604897800E+03  0.00000000000E+00 0. -1.
         24    2    1    2    0    0 -0.53652403187E+02  0.10351369052E+03 -0.69609651695E+02  0.15814399793E+03  0.81057732388E+02 0.  0.
         25    2    1    2    0    0  0.55871569224E+02 -0.14087970608E+03  0.29151079399E+03  0.35156007287E+03  0.12508884038E+03 0.  0.
        -24    2    1    2    0    0 -0.22191660366E+01  0.37366015566E+02  0.92862486754E+03  0.93291989505E+03  0.81204939110E+02 0.  0.
        -11    1    3    3    0    0  0.17027311902E+02  0.49957090467E+02 -0.32717689916E+02  0.62097403102E+02  0.00000000000E+00 0.  1.
         12    1    3    3    0    0 -0.70679715090E+02  0.53556600049E+02 -0.36891961779E+02  0.96046594827E+02  0.00000000000E+00 0. -1.
         13    1    5    5    0    0 -0.95309624143E+01 -0.24880756487E+02  0.29744395233E+03  0.29863488756E+03  0.00000000000E+00 0. -1.
        -14    1    5    5    0    0  0.73117963777E+01  0.62246772053E+02  0.63118091521E+03  0.63428500749E+03  0.00000000000E+00 0.  1.
          5    1    4    4  501    0  0.41345720994E+02  0.10877299318E+02  0.49900877736E+02  0.65843407292E+02  0.41800000000E+01 0. -1.
         -5    1    4    4    0  501  0.14525848230E+02 -0.15175700540E+03  0.24160991626E+03  0.28571666558E+03  0.41800000000E+01 0. -1.
</event>
<event>
11    1  0.8864208E-009  0.1741204E+03  0.7561462E-02  0.1074501E+00
         22   -1    0    0    0    0  0.00000000000E+00  0.00000000000E+00  0.42364128354E+03  0.42364128354E+03  0.00000000000E+00 0.  1.
         22   -1    0    0    0    0 -0.00000000000E+00 -0.00000000000E+00 -0.99073404170E+03  0.99073404170E+03  0.00000000000E+00 0.  1.
         24    2    1    2    0    0 -0.58394145912E+02 -0.24150969140E+01 -0.79223246835E+03  0.79833796601E+03  0.79344281988E+02 0.  0.
         25    2    1    2    0    0 -0.49015260363E+02 -0.60894442225E+02 -0.15199112231E+03  0.21180081670E+03  0.12509059058E+03 0.  0.
        -24    2    1    2    0    0  0.10740940627E+03  0.63309539139E+02  0.37713083250E+03  0.40423654253E+03  0.75064233817E+02 0.  0.
        -13    1    3    3    0    0 -0.45136473190E+02  0.34631623745E+02 -0.38050160678E+03  0.38473123520E+03  0.00000000000E+00 0.  1.
         14    1    3    3    0    0 -0.13257672722E+02 -0.37046720659E+02 -0.41173086157E+03  0.41360673081E+03  0.00000000000E+00 0. -1.
         13    1    5    5    0    0  0.16823257121E+02  0.51458341743E+02  0.13605463929E+03  0.14643035132E+03  0.00000000000E+00 0. -1.
        -14    1    5    5    0    0  0.90586149153E+02  0.11851197396E+02  0.24107619321E+03  0.25780619121E+03  0.00000000000E+00 0.  1.
          5    1    4    4  501    0  0.36109167815E+02 -0.41595759046E+02 -0.33614296727E+02  0.64664306347E+02  0.41800000000E+01 0. -1.
         -5    1    4    4    0  501 -0.85124428177E+02 -0.19298683179E+02 -0.11837682558E+03  0.14713651035E+03  0.41800000000E+01 0. -1.
</event>
<event>
11    1  0.8864208E-009  0.1670988E+03  0.7561462E-02  0.1080584E+00
         22   -1    0    0    0    0  0.00000000000E+00  0.00000000000E+00  0.53891077036E+03  0.53891077036E+03  0.00000000000E+00 0.  1.
         22   -1    0    0    0    0 -0.00000000000E+00 -0.00000000000E+00 -0.10370627722E+04  0.10370627722E+04  0.00000000000E+00 0. -1.
        -24    2    1    2    0    0 -0.24809114294E+02  0.29913173494E+02 -0.93619242972E+03  0.94058654243E+03  0.82076112413E+02 0.  0.
         25    2    1    2    0    0  0.12345817651E+03  0.18215035830E+02 -0.14185188151E-02  0.17669270703E+03  0.12508638549E+03 0.  0.
         24    2    1    2    0    0 -0.98649062220E+02 -0.48128209324E+02  0.43804184637E+03  0.45869429313E+03  0.80447705787E+02 0.  0.
        -11    1    5    5    0    0 -0.84307278483E+01 -0.36148668778E+02  0.20832228158E+03  0.21160334692E+03  0.00000000000E+00 0.  1.
         12    1    5    5    0    0 -0.90218334372E+02 -0.11979540545E+02  0.22971956479E+03  0.24709094621E+03  0.00000000000E+00 0. -1.
         13    1    3    3    0    0  0.23052722369E+02  0.99235530998E+01 -0.58965294660E+03  0.59018683682E+03  0.00000000000E+00 0. -1.
        -14    1    3    3    0    0 -0.47861836663E+02  0.19989620394E+02 -0.34653948312E+03  0.35039970561E+03  0.00000000000E+00 0.  1.
          5    1    4    4  501    0  0.14318795760E+03  0.98733261093E+01 -0.22507763415E+02  0.14534216726E+03  0.41800000000E+01 0.  1.
         -5    1    4    4    0  501 -0.19729781088E+02  0.83417097204E+01  0.22506344896E+02  0.31350539763E+02  0.41800000000E+01 0.  1.
</event>
<event>
11    1  0.8864208E-009  0.1710846E+03  0.7561462E-02  0.1077092E+00
         22   -1    0    0    0    0  0.00000000000E+00  0.00000000000E+00  0.52473527156E+03  0.52473527156E+03  0.00000000000E+00 0.  1.
         22   -1    0    0    0    0 -0.00000000000E+00 -0.00000000000E+00 -0.57672017036E+03  0.57672017036E+03  0.00000000000E+00 0. -1.
        -24    2    1    2    0    0 -0.66256532179E+00  0.92393649323E+01 -0.44825658593E+03  0.45548602708E+03  0.80297877764E+02 0.  0.
         25    2    1    2    0    0 -0.25697806971E+02 -0.12213381678E+03 -0.45310703653E+02  0.18242519962E+03  0.12509535206E+03 0.  0.
         24    2    1    2    0    0  0.26360372292E+02  0.11289445184E+03  0.44158239079E+03  0.46354421522E+03  0.80238426728E+02 0.  0.
        -13    1    5    5    0    0 -0.56828879673E+01  0.10760696579E+03  0.35832372974E+03  0.37417569349E+03  0.00000000000E+00 0.  1.
         14    1    5    5    0    0  0.32043260260E+02  0.52874860537E+01  0.83258661055E+02  0.89368521737E+02  0.00000000000E+00 0. -1.
         11    1    3    3    0    0 -0.31231017809E+02  0.22631024974E+01 -0.80196439272E+02  0.86092781220E+02  0.00000000000E+00 0. -1.
        -12    1    3    3    0    0  0.30568452487E+02  0.69762624349E+01 -0.36806014666E+03  0.36939324586E+03  0.00000000000E+00 0.  1.
          5    1    4    4  501    0  0.50643581358E+02 -0.51675165215E+02 -0.23520351201E+02  0.76195632115E+02  0.41800000000E+01 0.  1.
         -5    1    4    4    0  501 -0.76341388329E+02 -0.70458651561E+02 -0.21790352452E+02  0.10622956750E+03  0.41800000000E+01 0.  1.
</event>
<event>
11    1  0.8864208E-009  0.1478717E+03  0.7561462E-02  0.1099074E+00
         22   -1    0    0    0    0  0.00000000000E+00  0.00000000000E+00  0.99542659218E+03  0.99542659218E+03  0.00000000000E+00 0.  1.
         22   -1    0    0    0    0 -0.00000000000E+00 -0.00000000000E+00 -0.15464862804E+04  0.15464862804E+04  0.00000000000E+00 0.  1.
         24    2    1    2    0    0 -0.77840840766E+02 -0.13055287361E+02 -0.15209394242E+04  0.15250969978E+04  0.80215233551E+02 0.  0.
         25    2    1    2    0    0  0.70296418036E+02  0.11400646223E+02  0.22216823747E+03  0.26472059277E+03  0.12508679134E+03 0.  0.
        -24    2    1    2    0    0  0.75444227296E+01  0.16546411382E+01  0.74771149843E+03  0.75209528205E+03  0.80716616862E+02 0.  0.
        -13    1    3    3    0    0 -0.44749681762E+02 -0.24548200495E+02 -0.13294752229E+04  0.13304546277E+04  0.00000000000E+00 0.  1.
         14    1    3    3    0    0 -0.33091159004E+02  0.11492913134E+02 -0.19146420130E+03  0.19464237009E+03  0.00000000000E+00 0. -1.
         13    1    5    5    0    0 -0.19931811865E+02 -0.29229345881E+02  0.22641015074E+03  0.22915756182E+03  0.00000000000E+00 0. -1.
        -14    1    5    5    0    0  0.27476234595E+02  0.30883987019E+02  0.52130134770E+03  0.52293772022E+03  0.00000000000E+00 0.  1.
          5    1    4    4  501    0 -0.64222169222E+01 -0.60494013204E+01 -0.13255402241E+02  0.16462630868E+02  0.41800000000E+01 0. -1.
         -5    1    4    4    0  501  0.76718634959E+02  0.17450047544E+02  0.23542363971E+03  0.24825796190E+03  0.41800000000E+01 0. -1.
</event>
<event>
11    1  0.8864208E-009  0.1333012E+03  0.7561462E-02  0.1115278E+00
         22   -1    0    0    0    0  0.00000000000E+00  0.00000000000E+00  0.22541810494E+03  0.22541810494E+03  0.00000000000E+00 0.  1.
         22   -1    0    0    0    0 -0.00000000000E+00 -0.00000000000E+00 -0.46133784422E+03  0.46133784422E+03  0.00000000000E+00 0.  1.
         24    2    1    2    0    0  0.41035381287E+02 -0.43403141761E+02 -0.27495798129E+03  0.29387273357E+03  0.84803047295E+02 0.  0.
         25    2    1    2    0    0 -0.26713726881E+02 -0.16538698260E+02 -0.13765137157E+03  0.18863838652E+03  0.12509751808E+03 0.  0.
        -24    2    1    2    0    0 -0.14321654406E+02  0.59941840021E+02  0.17668961357E+03  0.20424482908E+03  0.81844955207E+02 0.  0.
        -13    1    3    3    0    0  0.47201716061E+02  0.61489990507E+01 -0.18456560719E+03  0.19060502497E+03  0.00000000000E+00 0.  1.
         14    1    3    3    0    0 -0.61663347741E+01 -0.49552140812E+02 -0.90392374097E+02  0.10326770859E+03  0.00000000000E+00 0. -1.
         13    1    5    5    0    0 -0.37114019458E+01  0.55053017402E+02  0.42761046905E+02  0.69807709903E+02  0.00000000000E+00 0. -1.
        -14    1    5    5    0    0 -0.10610252460E+02  0.48888226187E+01  0.13392856667E+03  0.13443711918E+03  0.00000000000E+00 0.  1.
          5    1    4    4  501    0  0.48705615521E+02 -0.18438456630E+02 -0.69004883972E+02  0.86552643392E+02  0.41800000000E+01 0. -1.
         -5    1    4    4    0  501 -0.75419342402E+02  0.18997583697E+01 -0.68646487594E+02  0.10208574312E+03  0.41800000000E+01 0. -1.
</event>
<event>
11    1  0.8864208E-009  0.1493185E+03  0.7561462E-02  0.1097577E+00
         22   -1    0    0    0    0  0.00000000000E+00  0.00000000000E+00  0.26774377964E+03  0.26774377964E+03  0.00000000000E+00 0.  1.
         22   -1    0    0    0    0 -0.00000000000E+00 -0.00000000000E+00 -0.35239593803E+03  0.35239593803E+03  0.00000000000E+00 0.  1.
        -24    2    1    2    0    0  0.14083399450E+02 -0.47524521445E+02 -0.25400176365E+03  0.27094858584E+03  0.80245360960E+02 0.  0.
         25    2    1    2    0    0 -0.11177658995E+02  0.11917682185E+03  0.34008237970E+02  0.17644349991E+03  0.12509074101E+03 0.  0.
         24    2    1    2    0    0 -0.29057404553E+01 -0.71652300401E+02  0.13534136729E+03  0.17274763191E+03  0.79887190149E+02 0.  0.
        -13    1    5    5    0    0 -0.15963328880E+02 -0.86167125285E+02  0.10650573616E+03  0.13792415736E+03  0.00000000000E+00 0.  1.
         14    1    5    5    0    0  0.13057588425E+02  0.14514824884E+02  0.28835631136E+02  0.34823474553E+02  0.00000000000E+00 0. -1.
         13    1    3    3    0    0  0.12811351601E+02 -0.29631111480E+02 -0.23944335648E+02  0.40192843978E+02  0.00000000000E+00 0. -1.
        -14    1    3    3    0    0  0.12720478491E+01 -0.17893409965E+02 -0.23005742800E+03  0.23075574187E+03  0.00000000000E+00 0.  1.
          5    1    4    4  501    0 -0.54686534801E+02  0.75176135753E+02 -0.18858622721E+02  0.94948346622E+02  0.41800000000E+01 0.  1.
         -5    1    4    4    0  501  0.43508875806E+02  0.44000686092E+02  0.52866860691E+02  0.81495153290E+02  0.41800000000E+01 0.  1.
</event>
<event>
11    1  0.8864208E-009  0.1835983E+03  0.7561462E-02  0.1066769E+00
         22   -1    0    0    0    0  0.00000000000E+00  0.00000000000E+00  0.63858142737E+03  0.63858142737E+03  0.00000000000E+00 0. -1.
         22   -1    0    0    0    0 -0.00000000000E+00 -0.00000000000E+00 -0.25909920159E+03  0.25909920159E+03  0.00000000000E+00 0. -1.
        -24    2    1    2    0    0  0.21271002751E+02 -0.26647345382E+02 -0.14739818688E+03  0.17478861976E+03  0.87534561913E+02 0.  0.
         25    2    1    2    0    0  0.83934840418E+01  0.15507758959E+03  0.29015627707E+02  0.20151701730E+03  0.12509073603E+03 0.  0.
         24    2    1    2    0    0 -0.29664486793E+02 -0.12843024421E+03  0.49786478495E+03  0.52137499190E+03  0.81167904221E+02 0.  0.
        -13    1    5    5    0    0 -0.50316343837E+02 -0.47611120597E+02  0.26922039189E+03  0.27798951900E+03  0.00000000000E+00 0.  1.
         14    1    5    5    0    0  0.20651857045E+02 -0.80819123613E+02  0.22864439306E+03  0.24338547290E+03  0.00000000000E+00 0. -1.
         13    1    3    3    0    0  0.43498676820E+02 -0.36733511296E+02 -0.13680650501E+03  0.14818065174E+03  0.00000000000E+00 0. -1.
        -14    1    3    3    0    0 -0.22227674069E+02  0.10086165914E+02 -0.10591681867E+02  0.26607968020E+02  0.00000000000E+00 0.  1.
          5    1    4    4  501    0 -0.36010650837E+02  0.33834170654E+00 -0.59155249385E+01  0.36733462730E+02  0.41800000000E+01 0. -1.
         -5    1    4    4    0  501  0.44404134879E+02  0.15473924789E+03  0.34931152645E+02  0.16478355457E+03  0.41800000000E+01 0. -1.
</event>
<event>
11    1  0.8864208E-009  0.3675468E+03  0.7561462E-02  0.9750685E-01
         22   -1    0    0    0    0  0.00000000000E+00  0.00000000000E+00  0.10197294122E+04  0.10197294122E+04  0.00000000000E+00 0.  1.
         22   -1    0    0    0    0 -0.00000000000E+00 -0.00000000000E+00 -0.71499093241E+03  0.71499093241E+03  0.00000000000E+00 0.  1.
         24    2    1    2    0    0 -0.48598866983E+02  0.56872627920E+02 -0.29368765693E+03  0.31335871831E+03  0.79654885802E+02 0.  0.
         25    2    1    2    0    0  0.18934530070E+03  0.26178404423E+03 -0.29606250625E+03  0.45572329699E+03  0.12509271403E+03 0.  0.
        -24    2    1    2    0    0 -0.14074643372E+03 -0.31865667215E+03  0.89448864295E+03  0.96563832929E+03  0.10486094276E+03 0.  0.
        -11    1    3    3    0    0 -0.17770822314E+01 -0.99898566541E+01 -0.18415057439E+01  0.10312439121E+02  0.00000000000E+00 0.  1.
         12    1    3    3    0    0 -0.46821784751E+02  0.66862484574E+02 -0.29184615118E+03  0.30304627919E+03  0.00000000000E+00 0. -1.
         11    1    5    5    0    0 -0.49625055970E+02 -0.23464126530E+03  0.58466950095E+03  0.63194746214E+03  0.00000000000E+00 0. -1.
        -12    1    5    5    0    0 -0.91121377745E+02 -0.84015406848E+02  0.30981914201E+03  0.33369086716E+03  0.00000000000E+00 0.  1.
          5    1    4    4  501    0  0.10514231810E+03  0.10657144003E+03 -0.21339186542E+03  0.26070278003E+03  0.41800000000E+01 0.  1.
         -5    1    4    4    0  501  0.84202982601E+02  0.15521260420E+03 -0.82670640827E+02  0.19502051697E+03  0.41800000000E+01 0.  1.
</event>
<event>
11    1  0.1223724E-008  0.1698650E+03  0.7561462E-02  0.1078149E+00
         22   -1    0    0    0    0  0.00000000000E+00  0.00000000000E+00  0.75669278283E+03  0.75669278283E+03  0.00000000000E+00 0.  1.
         22   -1    0    0    0    0 -0.00000000000E+00 -0.00000000000E+00 -0.73029026966E+03  0.73029026966E+03  0.00000000000E+00 0. -1.
        -24    2    1    2    0    0 -0.83055301390E+02 -0.60449090782E+02 -0.61078561268E+03  0.62469492419E+03  0.81439597116E+02 0.  0.
         25    2    1    2    0    0 -0.18975138729E+01  0.13948053894E+03 -0.21425859203E+02  0.18859109446E+03  0.12509641147E+03 0.  0.
         24    2    1    2    0    0  0.84952815263E+02 -0.79031448161E+02  0.65861398505E+03  0.67369703385E+03  0.81439311713E+02 0.  0.
        -13    1    5    5    0    0  0.35692418722E+02  0.95712741946E+01  0.24886742947E+03  0.25159601645E+03  0.00000000000E+00 0.  1.
         14    1    5    5    0    0  0.49260396542E+02 -0.88602722355E+02  0.40974655558E+03  0.42210101739E+03  0.00000000000E+00 0. -1.
         11    1    3    3    0    0 -0.67312184492E+02 -0.30131739114E+02 -0.55037800601E+03  0.55529703887E+03  0.00000000000E+00 0. -1.
        -12    1    3    3    0    0 -0.15743116898E+02 -0.30317351668E+02 -0.60407606674E+02  0.69397885313E+02  0.00000000000E+00 0.  1.
          5    1    4    4  501    0 -0.50029780593E+02  0.12954919274E+02 -0.84832250512E+01  0.52538047041E+02  0.41800000000E+01 0. -1.
         -5    1    4    4    0  501  0.48132266720E+02  0.12652561967E+03 -0.12942634152E+02  0.13605304742E+03  0.41800000000E+01 0. -1.
</event>
<event>
11    1  0.8864208E-009  0.1659119E+03  0.7561462E-02  0.1081645E+00
         22   -1    0    0    0    0  0.00000000000E+00  0.00000000000E+00  0.22444550080E+03  0.22444550080E+03  0.00000000000E+00 0. -1.
         22   -1    0    0    0    0 -0.00000000000E+00 -0.00000000000E+00 -0.36515760585E+03  0.36515760585E+03  0.00000000000E+00 0.  1.
         24    2    1    2    0    0  0.97323428505E+02 -0.51261029743E+02 -0.26488363156E+03  0.29707737629E+03  0.77408567551E+02 0.  0.
         25    2    1    2    0    0 -0.10178526810E+03  0.26687756103E+02  0.31565439754E+02  0.16647733999E+03  0.12508337466E+03 0.  0.
        -24    2    1    2    0    0  0.44618395961E+01  0.24573273640E+02  0.92606086756E+02  0.12604839037E+03  0.81783590171E+02 0.  0.
        -11    1    3    3    0    0  0.77414087567E+02 -0.22225069003E+01 -0.19177116343E+03  0.20681890536E+03  0.00000000000E+00 0.  1.
         12    1    3    3    0    0  0.19909340938E+02 -0.49038522843E+02 -0.73112468130E+02  0.90258470933E+02  0.00000000000E+00 0. -1.
         11    1    5    5    0    0  0.15087983560E+02  0.32605158958E+01  0.99943699907E+02  0.10112873658E+03  0.00000000000E+00 0. -1.
        -12    1    5    5    0    0 -0.10626143964E+02  0.21312757744E+02 -0.73376131514E+01  0.24919653789E+02  0.00000000000E+00 0.  1.
          5    1    4    4  501    0 -0.82081490652E+02  0.57865611236E+02 -0.20451777086E+02  0.10257459557E+03  0.41800000000E+01 0. -1.
         -5    1    4    4    0  501 -0.19703777449E+02 -0.31177855133E+02  0.52017216840E+02  0.63902744418E+02  0.41800000000E+01 0. -1.
</event>
<event>
11    1  0.8864208E-009  0.1496384E+03  0.7561462E-02  0.1097249E+00
         22   -1    0    0    0    0  0.00000000000E+00  0.00000000000E+00  0.10792517437E+04  0.10792517437E+04  0.00000000000E+00 0. -1.
         22   -1    0    0    0    0 -0.00000000000E+00 -0.00000000000E+00 -0.61637391858E+03  0.61637391858E+03  0.00000000000E+00 0.  1.
         24    2    1    2    0    0  0.46964382629E+02  0.37844347402E+02 -0.44718126070E+03  0.45949702793E+03  0.86767452925E+02 0.  0.
         25    2    1    2    0    0  0.35106208792E+02 -0.49700879375E+02 -0.12956468228E+03  0.19009877446E+03  0.12509162183E+03 0.  0.
        -24    2    1    2    0    0 -0.82070591421E+02  0.11856531973E+02  0.10396237681E+04  0.10460298599E+04  0.80527816771E+02 0.  0.
        -13    1    3    3    0    0  0.56538347065E+02  0.27893086012E+02 -0.43887986470E+03  0.44338487184E+03  0.00000000000E+00 0.  1.
         14    1    3    3    0    0 -0.95739644363E+01  0.99512613904E+01 -0.83013959999E+01  0.16112156089E+02  0.00000000000E+00 0. -1.
         11    1    5    5    0    0 -0.51172194161E+02  0.91970592699E+01  0.94550292661E+03  0.94693134048E+03  0.00000000000E+00 0. -1.
        -12    1    5    5    0    0 -0.30898397260E+02  0.26594727029E+01  0.94120841500E+02  0.99098519428E+02  0.00000000000E+00 0.  1.
          5    1    4    4  501    0  0.72910912818E+02 -0.29580145920E+02 -0.12371180542E+03  0.14667334264E+03  0.41800000000E+01 0.  1.
         -5    1    4    4    0  501 -0.37804704026E+02 -0.20120733456E+02 -0.58528768579E+01  0.43425431821E+02  0.41800000000E+01 0.  1.
</event>
<event>
11    1  0.1122573E-008  0.1673777E+03  0.7561462E-02  0.1080336E+00
         22   -1    0    0    0    0  0.00000000000E+00  0.00000000000E+00  0.39093059852E+03  0.39093059852E+03  0.00000000000E+00 0. -1.
         22   -1    0    0    0    0 -0.00000000000E+00 -0.00000000000E+00 -0.98941098034E+03  0.98941098034E+03  0.00000000000E+00 0.  1.
         24    2    1    2    0    0 -0.15529037577E-01  0.52719806515E+02 -0.74130388636E+03  0.74742700981E+03  0.79600909690E+02 0.  0.
         25    2    1    2    0    0  0.99667458453E+02 -0.64080120691E+00 -0.20490188767E+03  0.25993609265E+03  0.12509186940E+03 0.  0.
        -24    2    1    2    0    0 -0.99651929415E+02 -0.52079005308E+02  0.34772539220E+03  0.37297847640E+03  0.74547070017E+02 0.  0.
        -13    1    3    3    0    0  0.68412947770E+01 -0.34114701243E+01 -0.48059667151E+03  0.48065746859E+03  0.00000000000E+00 0.  1.
         14    1    3    3    0    0 -0.68568238145E+01  0.56131276639E+02 -0.26070721485E+03  0.26676954122E+03  0.00000000000E+00 0. -1.
         13    1    5    5    0    0 -0.87453946237E+02 -0.15848069041E+02  0.29328370683E+03  0.30645503210E+03  0.00000000000E+00 0. -1.
        -14    1    5    5    0    0 -0.12197983178E+02 -0.36230936267E+02  0.54441685369E+02  0.66523444305E+02  0.00000000000E+00 0.  1.
          5    1    4    4  501    0  0.29412992747E+02  0.31542421414E+02 -0.16928998603E+03  0.17474730402E+03  0.41800000000E+01 0.  1.
         -5    1    4    4    0  501  0.70254465706E+02 -0.32183222621E+02 -0.35611901636E+02  0.85188788629E+02  0.41800000000E+01 0.  1.
</event>
<event>
11    1  0.8864208E-009  0.1442223E+03  0.7561462E-02  0.1102933E+00
         22   -1    0    0    0    0  0.00000000000E+00  0.00000000000E+00  0.20884465984E+04  0.20884465984E+04  0.00000000000E+00 0.  1.
         22   -1    0    0    0    0 -0.00000000000E+00 -0.00000000000E+00 -0.84192134232E+02  0.84192134232E+02  0.00000000000E+00 0. -1.
         24    2    1    2    0    0  0.36793780303E+02 -0.64252221923E+02 -0.36299125004E+02  0.11686908873E+03  0.82816828803E+02 0.  0.
         25    2    1    2    0    0 -0.49130713753E+02  0.10405241669E+01  0.82001826271E+03  0.83095699891E+03  0.12507866781E+03 0.  0.
        -24    2    1    2    0    0  0.12336933450E+02  0.63211697756E+02  0.12205353265E+04  0.12248126450E+04  0.79445664000E+02 0.  0.
        -11    1    3    3    0    0  0.44253090958E+02 -0.43369562808E+02  0.12552270193E+02  0.63220364792E+02  0.00000000000E+00 0.  1.
         12    1    3    3    0    0 -0.74593106547E+01 -0.20882659115E+02 -0.48851395198E+02  0.53648723936E+02  0.00000000000E+00 0. -1.
         11    1    5    5    0    0 -0.21280974764E+01  0.68698354941E+02  0.57518982166E+03  0.57928173086E+03  0.00000000000E+00 0. -1.
        -12    1    5    5    0    0  0.14465030926E+02 -0.54866571846E+01  0.64534550484E+03  0.64553091417E+03  0.00000000000E+00 0.  1.
          5    1    4    4  501    0 -0.32389230703E+02 -0.55177063826E+02  0.25705924938E+03  0.26493489904E+03  0.41800000000E+01 0. -1.
         -5    1    4    4    0  501 -0.16741483050E+02  0.56217587993E+02  0.56295901332E+03  0.56602209987E+03  0.41800000000E+01 0. -1.
</event>
<event>
11    1  0.8864208E-009  0.1347748E+03  0.7561462E-02  0.1113538E+00
         22   -1    0    0    0    0  0.00000000000E+00  0.00000000000E+00  0.10355998283E+03  0.10355998283E+03  0.00000000000E+00 0.  1.
         22   -1    0    0    0    0 -0.00000000000E+00 -0.00000000000E+00 -0.36617419672E+03  0.36617419672E+03  0.00000000000E+00 0. -1.
        -24    2    1    2    0    0 -0.26060176572E+02  0.52175846713E+01 -0.20811859997E+03  0.22617525222E+03  0.84472108250E+02 0.  0.
         25    2    1    2    0    0  0.14864533160E+02 -0.53819367195E+02 -0.66373367849E+02  0.15221638631E+03  0.12508767193E+03 0.  0.
         24    2    1    2    0    0  0.11195643412E+02  0.48601782523E+02  0.11877753921E+02  0.91342541025E+02  0.75596977895E+02 0.  0.
        -11    1    5    5    0    0 -0.23381603356E+01  0.66844072853E+02  0.29917062028E+01  0.66951828768E+02  0.00000000000E+00 0.  1.
         12    1    5    5    0    0  0.13533803747E+02 -0.18242290330E+02  0.88860477178E+01  0.24390712257E+02  0.00000000000E+00 0. -1.
         13    1    3    3    0    0  0.26621492736E+02  0.10297788636E+02 -0.12030895784E+03  0.12364867028E+03  0.00000000000E+00 0. -1.
        -14    1    3    3    0    0 -0.52681669308E+02 -0.50802039646E+01 -0.87809642130E+02  0.10252658194E+03  0.00000000000E+00 0.  1.
          5    1    4    4  501    0  0.24595750164E+02  0.35062413320E+01 -0.86848956034E+02  0.90429299559E+02  0.41800000000E+01 0. -1.
         -5    1    4    4    0  501 -0.97312170041E+01 -0.57325608527E+02  0.20475588186E+02  0.61787086748E+02  0.41800000000E+01 0. -1.
</event>
<event>
11    1  0.8864208E-009  0.1276146E+03  0.7561462E-02  0.1122235E+00
         22   -1    0    0    0    0  0.00000000000E+00  0.00000000000E+00  0.44939366420E+03  0.44939366420E+03  0.00000000000E+00 0.  1.
         22   -1    0    0    0    0 -0.00000000000E+00 -0.00000000000E+00 -0.80175494826E+03  0.80175494826E+03  0.00000000000E+00 0.  1.
        -24    2    1    2    0    0 -0.63471345087E+02 -0.19756131243E+02 -0.57578442830E+03  0.58510559946E+03  0.80012113339E+02 0.  0.
         25    2    1    2    0    0  0.86760807470E+02  0.16834395518E+02 -0.18741471466E+03  0.24203556344E+03  0.12508438796E+03 0.  0.
         24    2    1    2    0    0 -0.23289462383E+02  0.29217357247E+01  0.41083785891E+03  0.42400744956E+03  0.10219410634E+03 0.  0.
        -13    1    5    5    0    0 -0.17726957479E+02  0.14293194399E+02  0.41071704562E+03  0.41134782361E+03  0.00000000000E+00 0.  1.
         14    1    5    5    0    0 -0.55625049045E+01 -0.11371458674E+02  0.12081328735E+00  0.12659625944E+02  0.00000000000E+00 0. -1.
         13    1    3    3    0    0 -0.32137357101E+02 -0.28922877341E+02 -0.11020290487E+03  0.11838083796E+03  0.00000000000E+00 0. -1.
        -14    1    3    3    0    0 -0.31333987986E+02  0.91667460986E+01 -0.46558152343E+03  0.46672476150E+03  0.00000000000E+00 0.  1.
          5    1    4    4  501    0 -0.27741688014E+02  0.16923628634E+02 -0.73469398505E+02  0.80443989065E+02  0.41800000000E+01 0.  1.
         -5    1    4    4    0  501  0.11450249548E+03 -0.89233116228E-01 -0.11394531616E+03  0.16159157438E+03  0.41800000000E+01 0.  1.
</event>
<event>
11    1  0.8864208E-009  0.1752303E+03  0.7561462E-02  0.1073568E+00
         22   -1    0    0    0    0  0.00000000000E+00  0.00000000000E+00  0.67719788228E+02  0.67719788228E+02  0.00000000000E+00 0.  1.
         22   -1    0    0    0    0 -0.00000000000E+00 -0.00000000000E+00 -0.15519728847E+04  0.15519728847E+04  0.00000000000E+00 0.  1.
        -24    2    1    2    0    0 -0.61508779945E+02 -0.10343118456E+03 -0.11438120771E+04  0.11529170468E+04  0.80189207636E+02 0.  0.
         25    2    1    2    0    0  0.93930884709E+01  0.16186693017E+03 -0.18975547670E+03  0.27918392640E+03  0.12508953045E+03 0.  0.
         24    2    1    2    0    0  0.52115691474E+02 -0.58435745606E+02 -0.15068554269E+03  0.18759169980E+03  0.79710296671E+02 0.  0.
        -13    1    5    5    0    0  0.71184785509E+02 -0.32934455071E+02 -0.12007373788E+03  0.14342124859E+03  0.00000000000E+00 0.  1.
         14    1    5    5    0    0 -0.19069094035E+02 -0.25501290535E+02 -0.30611804810E+02  0.44170451209E+02  0.00000000000E+00 0. -1.
         13    1    3    3    0    0 -0.36282583558E+02 -0.54640011662E+01 -0.48469363516E+03  0.48608044719E+03  0.00000000000E+00 0. -1.
        -14    1    3    3    0    0 -0.25226196388E+02 -0.97967183394E+02 -0.65911844196E+03  0.66683659957E+03  0.00000000000E+00 0.  1.
          5    1    4    4  501    0 -0.32007945341E+02 -0.50776771028E+01 -0.27949989746E+02  0.42999601120E+02  0.41800000000E+01 0. -1.
         -5    1    4    4    0  501  0.41401033812E+02  0.16694460727E+03 -0.16180548695E+03  0.23618432527E+03  0.41800000000E+01 0. -1.
</event>
<event>
11    1  0.8864208E-009  0.1650557E+03  0.7561462E-02  0.1082416E+00
         22   -1    0    0    0    0  0.00000000000E+00  0.00000000000E+00  0.11725630236E+04  0.11725630236E+04  0.00000000000E+00 0.  1.
         22   -1    0    0    0    0 -0.00000000000E+00 -0.00000000000E+00 -0.59298284051E+02  0.59298284051E+02  0.00000000000E+00 0. -1.
         24    2    1    2    0    0  0.79817525094E+02  0.88642624350E+02  0.92252795015E+02  0.17400462151E+03  0.86825560497E+02 0.  0.
         25    2    1    2    0    0 -0.71786133789E+02 -0.35586143508E+02  0.35386087221E+03  0.38377647172E+03  0.12508893138E+03 0.  0.
        -24    2    1    2    0    0 -0.80313913049E+01 -0.53056480842E+02  0.66715107231E+03  0.67408021441E+03  0.80088006338E+02 0.  0.
        -11    1    3    3    0    0  0.24131816831E+02 -0.29628497947E+01  0.55643133477E+02  0.60722988773E+02  0.00000000000E+00 0.  1.
         12    1    3    3    0    0  0.55685708263E+02  0.91605474144E+02  0.36609661539E+02  0.11328163274E+03  0.00000000000E+00 0. -1.
         13    1    5    5    0    0  0.47878812181E+01 -0.33195986357E+02  0.83972652484E+02  0.90422915690E+02  0.00000000000E+00 0. -1.
        -14    1    5    5    0    0 -0.12819272523E+02 -0.19860494485E+02  0.58317841983E+03  0.58365729872E+03  0.00000000000E+00 0.  1.
          5    1    4    4  501    0 -0.49949368620E+02 -0.70303463947E+02  0.31675077421E+03  0.32830784613E+03  0.41800000000E+01 0.  1.
         -5    1    4    4    0  501 -0.21836765169E+02  0.34717320440E+02  0.37110098000E+02  0.55468625593E+02  0.41800000000E+01 0.  1.
</event>
<event>
11    1  0.8864208E-009  0.1300845E+03  0.7561462E-02  0.1119165E+00
         22   -1    0    0    0    0  0.00000000000E+00  0.00000000000E+00  0.93823174626E+03  0.93823174626E+03  0.00000000000E+00 0. -1.
         22   -1    0    0    0    0 -0.00000000000E+00 -0.00000000000E+00 -0.63993196425E+03  0.63993196425E+03  0.00000000000E+00 0. -1.
         24    2    1    2    0    0  0.15360996335E+02  0.28732869579E+02 -0.40730585139E+03  0.41645686619E+03  0.80478113904E+02 0.  0.
         25    2    1    2    0    0 -0.70973531199E+01  0.62996770713E+01 -0.20843094277E+03  0.24327288646E+03  0.12509268975E+03 0.  0.
        -24    2    1    2    0    0 -0.82636432153E+01 -0.35032546651E+02  0.91403657617E+03  0.91843395786E+03  0.82234452903E+02 0.  0.
        -11    1    3    3    0    0 -0.19763766484E+02  0.11470969704E+02 -0.33169613607E+02  0.40279186665E+02  0.00000000000E+00 0.  1.
         12    1    3    3    0    0  0.35124762819E+02  0.17261899876E+02 -0.37413623778E+03  0.37617767952E+03  0.00000000000E+00 0. -1.
         11    1    5    5    0    0  0.17764554963E+02 -0.52525268200E+02  0.68824806988E+03  0.69047801479E+03  0.00000000000E+00 0. -1.
        -12    1    5    5    0    0 -0.26028198178E+02  0.17492721550E+02  0.22578850629E+03  0.22795594307E+03  0.00000000000E+00 0.  1.
          5    1    4    4  501    0 -0.50080281161E+02 -0.37440212189E+02 -0.87623182321E+02  0.10772696287E+03  0.41800000000E+01 0. -1.
         -5    1    4    4    0  501  0.42982928041E+02  0.43739889260E+02 -0.12080776045E+03  0.13554592358E+03  0.41800000000E+01 0. -1.
</event>
<event>
11    1  0.8864208E-009  0.1571966E+03  0.7561462E-02  0.1089744E+00
         22   -1    0    0    0    0  0.00000000000E+00  0.00000000000E+00  0.40860374868E+03  0.40860374868E+03  0.00000000000E+00 0. -1.
         22   -1    0    0    0    0 -0.00000000000E+00 -0.00000000000E+00 -0.19716042912E+03  0.19716042912E+03  0.00000000000E+00 0. -1.
         24    2    1    2    0    0  0.59242991390E+01  0.51541600123E+02 -0.10217590638E+03  0.13885418719E+03  0.78415148990E+02 0.  0.
         25    2    1    2    0    0 -0.94597858143E+02 -0.74135319423E+02  0.56653572313E+02  0.18248254266E+03  0.12508177632E+03 0.  0.
        -24    2    1    2    0    0  0.88673559004E+02  0.22593719299E+02  0.25696565363E+03  0.28442744796E+03  0.80586287834E+02 0.  0.
        -13    1    3    3    0    0  0.29807634760E+01  0.44791419343E+02 -0.94981508878E+01  0.45884322682E+02  0.00000000000E+00 0.  1.
         14    1    3    3    0    0  0.29435356630E+01  0.67501807801E+01 -0.92677755497E+02  0.92969864509E+02  0.00000000000E+00 0. -1.
         13    1    5    5    0    0  0.90819894374E+02  0.54711450872E+01  0.14529759181E+03  0.17143388472E+03  0.00000000000E+00 0. -1.
        -14    1    5    5    0    0 -0.21463353702E+01  0.17122574212E+02  0.11166806182E+03  0.11299356324E+03  0.00000000000E+00 0.  1.
          5    1    4    4  501    0 -0.16173594552E+02  0.13924456218E+02 -0.29309283380E+02  0.36496330417E+02  0.41800000000E+01 0.  1.
         -5    1    4    4    0  501 -0.78424263591E+02 -0.88059775640E+02  0.85962855693E+02  0.14598621224E+03  0.41800000000E+01 0.  1.
</event>
<event>
11    1  0.8864208E-009  0.1414687E+03  0.7561462E-02  0.1105929E+00
         22   -1    0    0    0    0  0.00000000000E+00  0.00000000000E+00  0.13219083615E+04  0.13219083615E+04  0.00000000000E+00 0.  1.
         22   -1    0    0    0    0 -0.00000000000E+00 -0.00000000000E+00 -0.40284500028E+03  0.40284500028E+03  0.00000000000E+00 0. -1.
        -24    2    1    2    0    0 -0.23048490094E+02 -0.61878001779E+02 -0.37767371665E+03  0.39182166908E+03  0.80787772077E+02 0.  0.
         25    2    1    2    0    0  0.34942092054E+02  0.59239920900E+02  0.29287138339E+03  0.32581008021E+03  0.12509293800E+03 0.  0.
         24    2    1    2    0    0 -0.11893601960E+02  0.26380808789E+01  0.10038656945E+04  0.10071216125E+04  0.79994953199E+02 0.  0.
        -13    1    5    5    0    0  0.22807965110E+02 -0.26421379742E+02  0.50617287061E+03  0.50737487868E+03  0.00000000000E+00 0.  1.
         14    1    5    5    0    0 -0.34701567070E+02  0.29059460621E+02  0.49769282386E+03  0.49974673379E+03  0.00000000000E+00 0. -1.
         11    1    3    3    0    0 -0.17596766899E+02 -0.25466794788E+02 -0.33066813011E+03  0.33211386016E+03  0.00000000000E+00 0. -1.
        -12    1    3    3    0    0 -0.54517231949E+01 -0.36411206990E+02 -0.47005586537E+02  0.59707808919E+02  0.00000000000E+00 0.  1.
          5    1    4    4  501    0  0.49924578412E+02  0.87260958187E+02  0.26455570584E+03  0.28304439978E+03  0.41800000000E+01 0. -1.
         -5    1    4    4    0  501 -0.14982486358E+02 -0.28021037288E+02  0.28315677548E+02  0.42765680436E+02  0.41800000000E+01 0. -1.
</event>
<event>
11    1  0.8864208E-009  0.1351666E+03  0.7561462E-02  0.1113079E+00
         22   -1    0    0    0    0  0.00000000000E+00  0.00000000000E+00  0.53100596546E+03  0.53100596546E+03  0.00000000000E+00 0.  1.
         22   -1    0    0    0    0 -0.00000000000E+00 -0.00000000000E+00 -0.13435603393E+04  0.13435603393E+04  0.00000000000E+00 0. -1.
         24    2    1    2    0    0 -0.39473659829E+02  0.32667983820E+02 -0.12622423166E+04  0.12658277102E+04  0.80241878017E+02 0.  0.
         25    2    1    2    0    0  0.58592520546E+02 -0.74537732635E+01 -0.12167827549E+02  0.13886818557E+03  0.12509066607E+03 0.  0.
        -24    2    1    2    0    0 -0.19118860717E+02 -0.25214210557E+02  0.46185577037E+03  0.46987040898E+03  0.80412445309E+02 0.  0.
        -13    1    3    3    0    0  0.18101146611E+02  0.51518012974E+01 -0.95217814953E+02  0.97059903408E+02  0.00000000000E+00 0.  1.
         14    1    3    3    0    0 -0.57574806440E+02  0.27516182523E+02 -0.11670245017E+04  0.11687678068E+04  0.00000000000E+00 0. -1.
         11    1    5    5    0    0  0.29464449961E+02 -0.16380171533E+02  0.12721264019E+03  0.13160364605E+03  0.00000000000E+00 0. -1.
        -12    1    5    5    0    0 -0.48583310678E+02 -0.88340390236E+01  0.33464313018E+03  0.33826676292E+03  0.00000000000E+00 0.  1.
          5    1    4    4  501    0 -0.26220014959E+02 -0.33459442521E+02  0.16133248252E+02  0.45659364619E+02  0.41800000000E+01 0.  1.
         -5    1    4    4    0  501  0.84812535505E+02  0.26005669257E+02 -0.28301075801E+02  0.93208820955E+02  0.41800000000E+01 0.  1.
</event>
<event>
11    1  0.8864208E-009  0.2167919E+03  0.7561462E-02  0.1043246E+00
         22   -1    0    0    0    0  0.00000000000E+00  0.00000000000E+00  0.12223515820E+04  0.12223515820E+04  0.00000000000E+00 0.  1.
         22   -1    0    0    0    0 -0.00000000000E+00 -0.00000000000E+00 -0.17244081439E+04  0.17244081439E+04  0.00000000000E+00 0. -1.
         24    2    1    2    0    0 -0.17596546356E+03  0.12960990410E+02 -0.15883886814E+04  0.16001556339E+04  0.79922572419E+02 0.  0.
         25    2    1    2    0    0  0.18608013001E+03 -0.26196569073E+02 -0.28974168531E+02  0.22759466631E+03  0.12509098558E+03 0.  0.
        -24    2    1    2    0    0 -0.10114666452E+02  0.13235578663E+02  0.11153062880E+04  0.11190094257E+04  0.89423104899E+02 0.  0.
        -13    1    3    3    0    0 -0.51949084019E+02 -0.30537904769E+02 -0.61251732248E+03  0.61547440345E+03  0.00000000000E+00 0.  1.
         14    1    3    3    0    0 -0.12401637954E+03  0.43498895179E+02 -0.97587135896E+03  0.98468123041E+03  0.00000000000E+00 0. -1.
         11    1    5    5    0    0  0.20742437676E+02  0.19705587055E+02  0.12626968270E+03  0.12947042771E+03  0.00000000000E+00 0. -1.
        -12    1    5    5    0    0 -0.30857104128E+02 -0.64700083924E+01  0.98903660533E+03  0.98953899800E+03  0.00000000000E+00 0.  1.
          5    1    4    4  501    0  0.37873313715E+02  0.27275113456E+02 -0.50068720229E+02  0.68576007839E+02  0.41800000000E+01 0.  1.
         -5    1    4    4    0  501  0.14820681630E+03 -0.53471682530E+02  0.21094551698E+02  0.15901865847E+03  0.41800000000E+01 0.  1.
</event>
<event>
11    1  0.8864208E-009  0.3072825E+03  0.7561462E-02  0.9971554E-01
         22   -1    0    0    0    0  0.00000000000E+00  0.00000000000E+00  0.10530705616E+04  0.10530705616E+04  0.00000000000E+00 0.  1.
         22   -1    0    0    0    0 -0.00000000000E+00 -0.00000000000E+00 -0.50943340069E+03  0.50943340069E+03  0.00000000000E+00 0. -1.
        -24    2    1    2    0    0 -0.17079352951E+03  0.21588241684E+03 -0.38610517522E+03  0.48076060275E+03  0.79233220333E+02 0.  0.
         25    2    1    2    0    0  0.30149009363E+03 -0.22601515490E+03  0.68938574268E+03  0.79553725928E+03  0.12509077458E+03 0.  0.
         24    2    1    2    0    0 -0.13069656411E+03  0.10132738055E+02  0.24035659344E+03  0.28620610026E+03  0.83416878178E+02 0.  0.
        -13    1    5    5    0    0 -0.10700430437E+03  0.42273225517E+02  0.18709327957E+03  0.21963797943E+03  0.00000000000E+00 0.  1.
         14    1    5    5    0    0 -0.23692259737E+02 -0.32140487461E+02  0.53263313868E+02  0.66568120823E+02  0.00000000000E+00 0. -1.
         11    1    3    3    0    0 -0.53015695708E+02  0.12397029792E+03 -0.15346583661E+03  0.20428181947E+03  0.00000000000E+00 0. -1.
        -12    1    3    3    0    0 -0.11777783381E+03  0.91912118924E+02 -0.23263933861E+03  0.27647878329E+03  0.00000000000E+00 0.  1.
          5    1    4    4  501    0  0.21975048653E+03 -0.18023395499E+03  0.60881689038E+03  0.67190031498E+03  0.41800000000E+01 0.  1.
         -5    1    4    4    0  501  0.81739607098E+02 -0.45781199904E+02  0.80568852307E+02  0.12363694430E+03  0.41800000000E+01 0.  1.
</event>
<event>
11    1  0.8864208E-009  0.1358530E+03  0.7561462E-02  0.1112280E+00
         22   -1    0    0    0    0  0.00000000000E+00  0.00000000000E+00  0.11217049104E+04  0.11217049104E+04  0.00000000000E+00 0. -1.
         22   -1    0    0    0    0 -0.00000000000E+00 -0.00000000000E+00 -0.13789928586E+04  0.13789928586E+04  0.00000000000E+00 0.  1.
         24    2    1    2    0    0  0.61671200299E+01  0.15857104714E+02 -0.11196702978E+04  0.11224846457E+04  0.77593318439E+02 0.  0.
         25    2    1    2    0    0 -0.43408507910E+02  0.21895232753E+02 -0.23837187838E+03  0.27355856040E+03  0.12509769696E+03 0.  0.
        -24    2    1    2    0    0  0.37241387880E+02 -0.37752337467E+02  0.11007542279E+04  0.11046545629E+04  0.76089901322E+02 0.  0.
        -11    1    3    3    0    0 -0.13040674644E+02  0.13873038497E+02 -0.10504189413E+04  0.10505914870E+04  0.00000000000E+00 0.  1.
         12    1    3    3    0    0  0.19207794674E+02  0.19840662168E+01 -0.69251356491E+02  0.71893158721E+02  0.00000000000E+00 0. -1.
         13    1    5    5    0    0  0.46951038513E+02 -0.10294429434E+02  0.94366518887E+03  0.94488854580E+03  0.00000000000E+00 0. -1.
        -14    1    5    5    0    0 -0.97096506330E+01 -0.27457908033E+02  0.15708903901E+03  0.15976601706E+03  0.00000000000E+00 0.  1.
          5    1    4    4  501    0 -0.86578176244E+02  0.11871047016E+02 -0.13330140798E+03  0.15944729577E+03  0.41800000000E+01 0. -1.
         -5    1    4    4    0  501  0.43169668334E+02  0.10024185737E+02 -0.10507047040E+03  0.11411126463E+03  0.41800000000E+01 0. -1.
</event>
<event>
11    1  0.8864208E-009  0.1916629E+03  0.7561462E-02  0.1060581E+00
         22   -1    0    0    0    0  0.00000000000E+00  0.00000000000E+00  0.35226270959E+03  0.35226270959E+03  0.00000000000E+00 0. -1.
         22   -1    0    0    0    0 -0.00000000000E+00 -0.00000000000E+00 -0.74721028469E+03  0.74721028469E+03  0.00000000000E+00 0.  1.
         24    2    1    2    0    0  0.12818258554E+03  0.68234048598E+02 -0.65172979431E+03  0.67264109891E+03  0.81287529957E+02 0.  0.
         25    2    1    2    0    0 -0.80639891117E+02 -0.15398334979E+03  0.14906347162E+03  0.26092629763E+03  0.12509576401E+03 0.  0.
        -24    2    1    2    0    0 -0.47542694418E+02  0.85749301195E+02  0.10771874760E+03  0.16590559773E+03  0.79423474657E+02 0.  0.
        -11    1    3    3    0    0  0.72518246217E+02  0.81531423692E+02 -0.43666747719E+03  0.45009416205E+03  0.00000000000E+00 0.  1.
         12    1    3    3    0    0  0.55664339319E+02 -0.13297375095E+02 -0.21506231713E+03  0.22254693686E+03  0.00000000000E+00 0. -1.
         11    1    5    5    0    0 -0.36126036527E+02  0.76521732592E+02  0.34755171530E+02  0.91479987004E+02  0.00000000000E+00 0. -1.
        -12    1    5    5    0    0 -0.11416657891E+02  0.92275686026E+01  0.72963576066E+02  0.74425610727E+02  0.00000000000E+00 0.  1.
          5    1    4    4  501    0 -0.39791022166E+02 -0.11704623013E+03  0.16236600795E+03  0.20411599244E+03  0.41800000000E+01 0. -1.
         -5    1    4    4    0  501 -0.40848868951E+02 -0.36937119662E+02 -0.13302536331E+02  0.56810305195E+02  0.41800000000E+01 0. -1.
</event>
<event>
11    1  0.8864208E-009  0.1364585E+03  0.7561462E-02  0.1111579E+00
         22   -1    0    0    0    0  0.00000000000E+00  0.00000000000E+00  0.12730084712E+04  0.12730084712E+04  0.00000000000E+00 0. -1.
         22   -1    0    0    0    0 -0.00000000000E+00 -0.00000000000E+00 -0.19772084777E+04  0.19772084777E+04  0.00000000000E+00 0. -1.
         24    2    1    2    0    0  0.44325402074E+02  0.80218724618E+01 -0.19065608712E+04  0.19084426820E+04  0.71763661901E+02 0.  0.
         25    2    1    2    0    0 -0.89596693655E+02 -0.36304747632E+02  0.24365397480E+02  0.15995894525E+03  0.12509032479E+03 0.  0.
        -24    2    1    2    0    0  0.45271291582E+02  0.28282875170E+02  0.11779954672E+04  0.11818153216E+04  0.78515749363E+02 0.  0.
        -13    1    3    3    0    0 -0.49763958760E+01  0.60632464834E-01 -0.95006524365E+01  0.10725231416E+02  0.00000000000E+00 0.  1.
         14    1    3    3    0    0  0.49301797950E+02  0.79612399970E+01 -0.18970602188E+04  0.18977174506E+04  0.00000000000E+00 0. -1.
         11    1    5    5    0    0 -0.52968147244E+01  0.31711337309E+02  0.77188489620E+03  0.77255417813E+03  0.00000000000E+00 0. -1.
        -12    1    5    5    0    0  0.50568106306E+02 -0.34284621389E+01  0.40611057098E+03  0.40926114351E+03  0.00000000000E+00 0.  1.
          5    1    4    4  501    0 -0.14148159191E+02 -0.70552024934E+02 -0.42412721465E+01  0.72202627516E+02  0.41800000000E+01 0. -1.
         -5    1    4    4    0  501 -0.75448534464E+02  0.34247277303E+02  0.28606669626E+02  0.87756317736E+02  0.41800000000E+01 0. -1.
</event>
<event>
11    1  0.8864208E-009  0.1309826E+03  0.7561462E-02  0.1118067E+00
         22   -1    0    0    0    0  0.00000000000E+00  0.00000000000E+00  0.23592253250E+03  0.23592253250E+03  0.00000000000E+00 0.  1.
         22   -1    0    0    0    0 -0.00000000000E+00 -0.00000000000E+00 -0.44273710935E+03  0.44273710935E+03  0.00000000000E+00 0.  1.
         24    2    1    2    0    0 -0.23538335966E+02 -0.30983276849E+02 -0.37023826922E+03  0.38098636012E+03  0.80995147410E+02 0.  0.
         25    2    1    2    0    0  0.42822598298E+02  0.14273777513E+02  0.24708072013E+02  0.13526230893E+03  0.12509151748E+03 0.  0.
        -24    2    1    2    0    0 -0.19284262332E+02  0.16709499336E+02  0.13871562035E+03  0.16241097279E+03  0.80524596311E+02 0.  0.
        -11    1    3    3    0    0 -0.27111773062E+02  0.23089443304E+02 -0.15336660100E+03  0.15744676857E+03  0.00000000000E+00 0.  1.
         12    1    3    3    0    0  0.35734370960E+01 -0.54072720154E+02 -0.21687166822E+03  0.22353959156E+03  0.00000000000E+00 0. -1.
         11    1    5    5    0    0  0.30405718033E+02  0.91023133673E+01  0.73578642584E+02  0.80132243462E+02  0.00000000000E+00 0. -1.
        -12    1    5    5    0    0 -0.49689980365E+02  0.76071859688E+01  0.65136977768E+02  0.82278729328E+02  0.00000000000E+00 0.  1.
          5    1    4    4  501    0  0.81944099239E+02  0.33149920220E+02  0.23699305241E+02  0.91612674230E+02  0.41800000000E+01 0. -1.
         -5    1    4    4    0  501 -0.39121500940E+02 -0.18876142707E+02  0.10087667726E+01  0.43649634703E+02  0.41800000000E+01 0. -1.
</event>
<event>
11    1  0.8864208E-009  0.3355351E+03  0.7561462E-02  0.9861811E-01
         22   -1    0    0    0    0  0.00000000000E+00  0.00000000000E+00  0.38924682948E+03  0.38924682948E+03  0.00000000000E+00 0.  1.
         22   -1    0    0    0    0 -0.00000000000E+00 -0.00000000000E+00 -0.17942825209E+04  0.17942825209E+04  0.00000000000E+00 0.  1.
         24    2    1    2    0    0 -0.24415062597E+03  0.15655529289E+03 -0.11658049896E+04  0.12038976501E+04  0.78416773458E+02 0.  0.
         25    2    1    2    0    0  0.37555540322E+03 -0.14275515654E+03 -0.51408472568E+03  0.66434296062E+03  0.12509024159E+03 0.  0.
        -24    2    1    2    0    0 -0.13140477726E+03 -0.13800136341E+02  0.27485402386E+03  0.31528873960E+03  0.80028717595E+02 0.  0.
        -13    1    3    3    0    0 -0.18034163753E+03  0.71543899946E+02 -0.77044389021E+03  0.79449696274E+03  0.00000000000E+00 0.  1.
         14    1    3    3    0    0 -0.63808988442E+02  0.85011392940E+02 -0.39536109939E+03  0.40940068741E+03  0.00000000000E+00 0. -1.
         13    1    5    5    0    0 -0.19707773028E+02 -0.35455039578E+02  0.78111728494E+02  0.88016465946E+02  0.00000000000E+00 0. -1.
        -14    1    5    5    0    0 -0.11169700423E+03  0.21654903237E+02  0.19674229536E+03  0.22727227366E+03  0.00000000000E+00 0.  1.
          5    1    4    4  501    0  0.53176682085E+02 -0.25345583266E+02 -0.19108572636E+02  0.62070669859E+02  0.41800000000E+01 0.  1.
         -5    1    4    4    0  501  0.32237872114E+03 -0.11740957328E+03 -0.49497615304E+03  0.60227229076E+03  0.41800000000E+01 0.  1.
</event>
<event>
11    1  0.8864208E-009  0.1355650E+03  0.7561462E-02  0.1112614E+00
         22   -1    0    0    0    0  0.00000000000E+00  0.00000000000E+00  0.48953133819E+03  0.48953133819E+03  0.00000000000E+00 0. -1.
         22   -1    0    0    0    0 -0.00000000000E+00 -0.00000000000E+00 -0.38864161086E+03  0.38864161086E+03  0.00000000000E+00 0.  1.
         24    2    1    2    0    0 -0.21054775776E+02  0.45347965287E+02 -0.28329919389E+03  0.29996978304E+03  0.84992328711E+02 0.  0.
         25    2    1    2    0    0  0.31003395056E+02 -0.59362859130E+02 -0.39122635155E+02  0.14718256850E+03  0.12508784250E+03 0.  0.
        -24    2    1    2    0    0 -0.99486192801E+01  0.14014893843E+02  0.42331155637E+03  0.43102059751E+03  0.79313866684E+02 0.  0.
        -13    1    3    3    0    0 -0.48140050823E+02  0.42837558129E+02 -0.24263594307E+03  0.25104725004E+03  0.00000000000E+00 0.  1.
         14    1    3    3    0    0  0.27085275047E+02  0.25104071581E+01 -0.40663250815E+02  0.48922533002E+02  0.00000000000E+00 0. -1.
         11    1    5    5    0    0  0.25805269242E+02 -0.66848663559E+01  0.29545195424E+03  0.29665208009E+03  0.00000000000E+00 0. -1.
        -12    1    5    5    0    0 -0.35753888522E+02  0.20699760199E+02  0.12785960213E+03  0.13436851742E+03  0.00000000000E+00 0.  1.
          5    1    4    4  501    0  0.64119495029E+02  0.82094166879E+01 -0.29586815844E+02  0.71214859663E+02  0.41800000000E+01 0.  1.
         -5    1    4    4    0  501 -0.33116099973E+02 -0.67572275818E+02 -0.95358193112E+01  0.75967708841E+02  0.41800000000E+01 0.  1.
</event>
<event>
11    1  0.8864208E-009  0.1601302E+03  0.7561462E-02  0.1086955E+00
         22   -1    0    0    0    0  0.00000000000E+00  0.00000000000E+00  0.11120971859E+03  0.11120971859E+03  0.00000000000E+00 0.  1.
         22   -1    0    0    0    0 -0.00000000000E+00 -0.00000000000E+00 -0.12935048122E+04  0.12935048122E+04  0.00000000000E+00 0. -1.
        -24    2    1    2    0    0 -0.52142110136E+02  0.87061278349E+02 -0.11266680031E+04  0.11342601466E+04  0.82866309874E+02 0.  0.
         25    2    1    2    0    0  0.43500114409E+02 -0.71541114756E+02 -0.95971426647E+02  0.17850893889E+03  0.12507811750E+03 0.  0.
         24    2    1    2    0    0  0.86419957266E+01 -0.15520163592E+02  0.40344336097E+02  0.91945445254E+02  0.80689155899E+02 0.  0.
        -13    1    5    5    0    0 -0.32331743096E+02 -0.22958540683E+02  0.27889104780E+02  0.48479257084E+02  0.00000000000E+00 0.  1.
         14    1    5    5    0    0  0.40973738823E+02  0.74383770908E+01  0.12455231317E+02  0.43466188170E+02  0.00000000000E+00 0. -1.
         11    1    3    3    0    0 -0.69781997674E+01  0.83386082985E+02 -0.63075310076E+03  0.63627934763E+03  0.00000000000E+00 0. -1.
        -12    1    3    3    0    0 -0.45163910368E+02  0.36751953640E+01 -0.49591490230E+03  0.49798079901E+03  0.00000000000E+00 0.  1.
          5    1    4    4  501    0 -0.25456584506E+02 -0.36956575512E+02  0.11155794830E+02  0.46430058438E+02  0.41800000000E+01 0.  1.
         -5    1    4    4    0  501  0.68956698915E+02 -0.34584539244E+02 -0.10712722148E+03  0.13207888045E+03  0.41800000000E+01 0.  1.
</event>
<event>
11    1  0.8864208E-009  0.1376002E+03  0.7561462E-02  0.1110268E+00
         22   -1    0    0    0    0  0.00000000000E+00  0.00000000000E+00  0.86208477008E+03  0.86208477008E+03  0.00000000000E+00 0. -1.
         22   -1    0    0    0    0 -0.00000000000E+00 -0.00000000000E+00 -0.87589959072E+03  0.87589959072E+03  0.00000000000E+00 0.  1.
         24    2    1    2    0    0  0.38102901004E+02  0.43123004943E+02 -0.83257867372E+03  0.83835515584E+03  0.79628479712E+02 0.  0.
         25    2    1    2    0    0 -0.19535030971E+02 -0.43241570585E+02  0.79351532620E+02  0.15557637128E+03  0.12512350182E+03 0.  0.
        -24    2    1    2    0    0 -0.18567870032E+02  0.11856564155E+00  0.73941232046E+03  0.74405283368E+03  0.80865689945E+02 0.  0.
        -11    1    3    3    0    0 -0.19676998213E+02  0.34426449895E+02 -0.31327635014E+03  0.31577592731E+03  0.00000000000E+00 0.  1.
         12    1    3    3    0    0  0.57779899216E+02  0.86965550483E+01 -0.51930232357E+03  0.52257922853E+03  0.00000000000E+00 0. -1.
         13    1    5    5    0    0  0.65605888294E+01  0.27961638836E+02  0.56130844461E+03  0.56204276044E+03  0.00000000000E+00 0. -1.
        -14    1    5    5    0    0 -0.25128458862E+02 -0.27843073195E+02  0.17810387585E+03  0.18201007324E+03  0.00000000000E+00 0.  1.
          5    1    4    4  501    0 -0.56313744924E+02 -0.52450619240E+02  0.11756236234E+02  0.77961444422E+02  0.41800000000E+01 0.  1.
         -5    1    4    4    0  501  0.36778713953E+02  0.92090486553E+01  0.67595296386E+02  0.77614926855E+02  0.41800000000E+01 0.  1.
</event>
<event>
11    1  0.8864208E-009  0.1286158E+03  0.7561462E-02  0.1120981E+00
         22   -1    0    0    0    0  0.00000000000E+00  0.00000000000E+00  0.30209062688E+03  0.30209062688E+03  0.00000000000E+00 0.  1.
         22   -1    0    0    0    0 -0.00000000000E+00 -0.00000000000E+00 -0.43599621015E+03  0.43599621015E+03  0.00000000000E+00 0.  1.
        -24    2    1    2    0    0 -0.28908122698E+02  0.63627148934E+01 -0.36727351050E+03  0.37741551690E+03  0.81709712929E+02 0.  0.
         25    2    1    2    0    0  0.36819535827E+02  0.77700618764E+01  0.19939031768E+02  0.13214048791E+03  0.12508993356E+03 0.  0.
         24    2    1    2    0    0 -0.79114131288E+01 -0.14132776770E+02  0.21342889547E+03  0.22853083222E+03  0.80075726775E+02 0.  0.
        -13    1    5    5    0    0  0.29741939940E+02 -0.27980893785E+02  0.12301578357E+03  0.12961634317E+03  0.00000000000E+00 0.  1.
         14    1    5    5    0    0 -0.37653353068E+02  0.13848117015E+02  0.90413111894E+02  0.98914489052E+02  0.00000000000E+00 0. -1.
         11    1    3    3    0    0 -0.33253306510E+02  0.23542589600E+01 -0.50043921747E+02  0.60130849262E+02  0.00000000000E+00 0. -1.
        -12    1    3    3    0    0  0.43451838116E+01  0.40084559334E+01 -0.31722958875E+03  0.31728466764E+03  0.00000000000E+00 0.  1.
          5    1    4    4  501    0  0.10510376131E+02  0.33002833172E+02  0.65156416636E+02  0.73908633005E+02  0.41800000000E+01 0. -1.
         -5    1    4    4    0  501  0.26309159696E+02 -0.25232771296E+02 -0.45217384869E+02  0.58231854904E+02  0.41800000000E+01 0. -1.
</event>
<event>
11    1  0.9802129E-009  0.1535123E+03  0.7561462E-02  0.1093343E+00
         22   -1    0    0    0    0  0.00000000000E+00  0.00000000000E+00  0.96932225366E+03  0.96932225366E+03  0.00000000000E+00 0.  1.
         22   -1    0    0    0    0 -0.00000000000E+00 -0.00000000000E+00 -0.79966502752E+03  0.79966502752E+03  0.00000000000E+00 0.  1.
        -24    2    1    2    0    0 -0.46191493603E+01  0.89487168406E+02 -0.69636679915E+03  0.70690138464E+03  0.82180038890E+02 0.  0.
         25    2    1    2    0    0 -0.73327256004E+02 -0.81146887384E+02 -0.21503853423E+02  0.16757654657E+03  0.12513104907E+03 0.  0.
         24    2    1    2    0    0  0.77946405364E+02 -0.83402810226E+01  0.88752787872E+03  0.89450934997E+03  0.79347585204E+02 0.  0.
        -13    1    5    5    0    0  0.61020231913E+02 -0.11388688347E+02  0.85870221618E+03  0.86094289415E+03  0.00000000000E+00 0.  1.
         14    1    5    5    0    0  0.16926173452E+02  0.30484073248E+01  0.28825662544E+02  0.33566455816E+02  0.00000000000E+00 0. -1.
         13    1    3    3    0    0 -0.36467914708E+02  0.44292521168E+02 -0.22083722074E+03  0.22816839022E+03  0.00000000000E+00 0. -1.
        -14    1    3    3    0    0  0.31848765347E+02  0.45194647238E+02 -0.47552957842E+03  0.47873299442E+03  0.00000000000E+00 0.  1.
          5    1    4    4  501    0  0.23018174850E+02 -0.30928658978E+02 -0.41747298785E+02  0.56980063842E+02  0.41800000000E+01 0. -1.
         -5    1    4    4    0  501 -0.96345430854E+02 -0.50218228406E+02  0.20243445362E+02  0.11059648272E+03  0.41800000000E+01 0. -1.
</event>
<event>
11    1  0.8864208E-009  0.1330328E+03  0.7561462E-02  0.1115598E+00
         22   -1    0    0    0    0  0.00000000000E+00  0.00000000000E+00  0.32315810168E+04  0.32315810168E+04  0.00000000000E+00 0.  1.
         22   -1    0    0    0    0 -0.00000000000E+00 -0.00000000000E+00 -0.11739846411E+03  0.11739846411E+03  0.00000000000E+00 0.  1.
        -24    2    1    2    0    0  0.36568634577E+02  0.33768188070E+02 -0.52900993769E+02  0.10914665000E+03  0.81467297144E+02 0.  0.
         25    2    1    2    0    0 -0.12026594346E+02  0.56717819548E+01  0.75992378535E+02  0.14696567915E+03  0.12508901299E+03 0.  0.
         24    2    1    2    0    0 -0.24542040231E+02 -0.39439970025E+02  0.30910911679E+04  0.30928671517E+04  0.93940337480E+02 0.  0.
        -13    1    5    5    0    0  0.14477151430E+02 -0.34164400733E+02  0.25781464877E+04  0.25784134863E+04  0.00000000000E+00 0.  1.
         14    1    5    5    0    0 -0.39019191661E+02 -0.52755692919E+01  0.51294468020E+03  0.51445366545E+03  0.00000000000E+00 0. -1.
         13    1    3    3    0    0 -0.37255213016E+01  0.22737710998E+02  0.16362353100E+02  0.28259681693E+02  0.00000000000E+00 0. -1.
        -14    1    3    3    0    0  0.40294155879E+02  0.11030477072E+02 -0.69263346869E+02  0.80886968307E+02  0.00000000000E+00 0.  1.
          5    1    4    4  501    0  0.19560966322E+02  0.49811690565E+02  0.23652339063E+00  0.53678340732E+02  0.41800000000E+01 0. -1.
         -5    1    4    4    0  501 -0.31587560668E+02 -0.44139908610E+02  0.75755855145E+02  0.93287338421E+02  0.41800000000E+01 0. -1.
</event>
<event>
11    1  0.8864208E-009  0.1824803E+03  0.7561462E-02  0.1067654E+00
         22   -1    0    0    0    0  0.00000000000E+00  0.00000000000E+00  0.61709466334E+03  0.61709466334E+03  0.00000000000E+00 0.  1.
         22   -1    0    0    0    0 -0.00000000000E+00 -0.00000000000E+00 -0.79874642265E+03  0.79874642265E+03  0.00000000000E+00 0. -1.
        -24    2    1    2    0    0 -0.95134339223E+02 -0.85483211247E+02 -0.54942223312E+03  0.56991214548E+03  0.81099577184E+02 0.  0.
         25    2    1    2    0    0  0.71417184808E+02  0.14831439758E+03 -0.18856611807E+03  0.27982503297E+03  0.12508914172E+03 0.  0.
         24    2    1    2    0    0  0.23717154415E+02 -0.62831186332E+02  0.55633659188E+03  0.56610390753E+03  0.80330375778E+02 0.  0.
        -11    1    5    5    0    0  0.52007718092E+02 -0.25741998542E+02  0.30184001586E+03  0.30736761118E+03  0.00000000000E+00 0.  1.
         12    1    5    5    0    0 -0.28290563677E+02 -0.37089187790E+02  0.25449657602E+03  0.25873629635E+03  0.00000000000E+00 0. -1.
         11    1    3    3    0    0 -0.53512547746E+02 -0.94262886760E+02 -0.37267578945E+03  0.38811896195E+03  0.00000000000E+00 0. -1.
        -12    1    3    3    0    0 -0.41621791477E+02  0.87796755123E+01 -0.17674644367E+03  0.18179318353E+03  0.00000000000E+00 0.  1.
          5    1    4    4  501    0  0.44980489993E+02  0.50429969677E+02 -0.16102013179E+03  0.17467507425E+03  0.41800000000E+01 0. -1.
         -5    1    4    4    0  501  0.26436694815E+02  0.97884427902E+02 -0.27545986280E+02  0.10514995872E+03  0.41800000000E+01 0. -1.
</event>
<event>
11    1  0.8864208E-009  0.1597625E+03  0.7561462E-02  0.1087301E+00
         22   -1    0    0    0    0  0.00000000000E+00  0.00000000000E+00  0.48053585720E+03  0.48053585720E+03  0.00000000000E+00 0. -1.
         22   -1    0    0    0    0 -0.00000000000E+00 -0.00000000000E+00 -0.69296731684E+03  0.69296731684E+03  0.00000000000E+00 0.  1.
        -24    2    1    2    0    0  0.92888665136E+02 -0.43065319963E+02 -0.52467164616E+03  0.54061587340E+03  0.80636594651E+02 0.  0.
         25    2    1    2    0    0 -0.79019187610E+02  0.32958748600E+02 -0.11979465904E+03  0.19320438086E+03  0.12508741475E+03 0.  0.
         24    2    1    2    0    0 -0.13869477526E+02  0.10106571363E+02  0.43203484556E+03  0.43968291978E+03  0.79827670527E+02 0.  0.
        -13    1    5    5    0    0 -0.15571882371E+02  0.19842399417E+02  0.38516472841E+02  0.46040449773E+02  0.00000000000E+00 0.  1.
         14    1    5    5    0    0  0.17024048449E+01 -0.97358280541E+01  0.39351837272E+03  0.39364247001E+03  0.00000000000E+00 0. -1.
         13    1    3    3    0    0  0.10746680382E+02  0.22686740908E+02 -0.10325298830E+03  0.10626080625E+03  0.00000000000E+00 0. -1.
        -14    1    3    3    0    0  0.82141984755E+02 -0.65752060871E+02 -0.42141865786E+03  0.43435506715E+03  0.00000000000E+00 0.  1.
          5    1    4    4  501    0  0.22344454168E+02 -0.20758547324E+02 -0.50423028260E+02  0.59077458459E+02  0.41800000000E+01 0.  1.
         -5    1    4    4    0  501 -0.10136364178E+03  0.53717295924E+02 -0.69371630775E+02  0.13412692240E+03  0.41800000000E+01 0.  1.
</event>
<event>
11    1  0.8864208E-009  0.1723634E+03  0.7561462E-02  0.1075993E+00
         22   -1    0    0    0    0  0.00000000000E+00  0.00000000000E+00  0.16651871740E+03  0.16651871740E+03  0.00000000000E+00 0.  1.
         22   -1    0    0    0    0 -0.00000000000E+00 -0.00000000000E+00 -0.55595979320E+03  0.55595979320E+03  0.00000000000E+00 0. -1.
         24    2    1    2    0    0  0.23589817420E+02  0.12132355838E+03 -0.22945756987E+03  0.27429589753E+03  0.85507764115E+02 0.  0.
         25    2    1    2    0    0 -0.55416131672E+02 -0.10178831261E+03 -0.26231000441E+03  0.31286698484E+03  0.12508958212E+03 0.  0.
        -24    2    1    2    0    0  0.31826314252E+02 -0.19535245771E+02  0.10232649849E+03  0.13531562823E+03  0.80281173669E+02 0.  0.
        -11    1    3    3    0    0 -0.14295804497E+02  0.14556409615E+02 -0.23979835109E+01  0.20542867668E+02  0.00000000000E+00 0.  1.
         12    1    3    3    0    0  0.37885621917E+02  0.10676714877E+03 -0.22705958636E+03  0.25375302986E+03  0.00000000000E+00 0. -1.
         13    1    5    5    0    0  0.83608316107E+01 -0.29128503757E+02  0.42450270259E+00  0.30307646542E+02  0.00000000000E+00 0. -1.
        -14    1    5    5    0    0  0.23465482642E+02  0.95932579859E+01  0.10190199578E+03  0.10500798169E+03  0.00000000000E+00 0.  1.
          5    1    4    4  501    0 -0.70258352504E+02 -0.92325172503E+02 -0.11146617579E+03  0.16094208374E+03  0.41800000000E+01 0. -1.
         -5    1    4    4    0  501  0.14842220832E+02 -0.94631401065E+01 -0.15084382863E+03  0.15192490110E+03  0.41800000000E+01 0. -1.
</event>
<event>
11    1  0.8864208E-009  0.1334860E+03  0.7561462E-02  0.1115059E+00
         22   -1    0    0    0    0  0.00000000000E+00  0.00000000000E+00  0.35075045767E+03  0.35075045767E+03  0.00000000000E+00 0.  1.
         22   -1    0    0    0    0 -0.00000000000E+00 -0.00000000000E+00 -0.11650037136E+04  0.11650037136E+04  0.00000000000E+00 0.  1.
        -24    2    1    2    0    0  0.45122424955E+02 -0.12713621942E+02 -0.82705019568E+03  0.83226290007E+03  0.80323341747E+02 0.  0.
         25    2    1    2    0    0 -0.31300282276E+02  0.46811671978E+02 -0.31510146450E+03  0.34366737458E+03  0.12508913267E+03 0.  0.
         24    2    1    2    0    0 -0.13822142678E+02 -0.34098050036E+02  0.32789840429E+03  0.33982389660E+03  0.81296915819E+02 0.  0.
        -13    1    5    5    0    0 -0.31681072085E+02 -0.20961644806E+01  0.26601421158E+03  0.26790230495E+03  0.00000000000E+00 0.  1.
         14    1    5    5    0    0  0.17858929407E+02 -0.32001885555E+02  0.61884192706E+02  0.71921591651E+02  0.00000000000E+00 0. -1.
         13    1    3    3    0    0  0.12664593062E+02  0.16209710107E+02 -0.50948421899E+02  0.54944411118E+02  0.00000000000E+00 0. -1.
        -14    1    3    3    0    0  0.32457831893E+02 -0.28923332049E+02 -0.77610177378E+03  0.77731848895E+03  0.00000000000E+00 0.  1.
          5    1    4    4  501    0 -0.32095392939E+02 -0.38287985915E+02 -0.14491910386E+03  0.15334635039E+03  0.41800000000E+01 0.  1.
         -5    1    4    4    0  501  0.79511066257E+00  0.85099657893E+02 -0.17018236064E+03  0.19032102419E+03  0.41800000000E+01 0.  1.
</event>
<event>
11    1  0.8864208E-009  0.1300606E+03  0.7561462E-02  0.1119194E+00
         22   -1    0    0    0    0  0.00000000000E+00  0.00000000000E+00  0.16242205160E+03  0.16242205160E+03  0.00000000000E+00 0.  1.
         22   -1    0    0    0    0 -0.00000000000E+00 -0.00000000000E+00 -0.19667175724E+04  0.19667175724E+04  0.00000000000E+00 0.  1.
         24    2    1    2    0    0  0.38651307404E+02  0.11558146015E+02 -0.18578966398E+04  0.18599861082E+04  0.78363792928E+02 0.  0.
         25    2    1    2    0    0 -0.38347384604E+01  0.11655968926E+02 -0.46489293088E+02  0.13400902542E+03  0.12508636093E+03 0.  0.
        -24    2    1    2    0    0 -0.34816568944E+02 -0.23214114942E+02  0.10009041211E+03  0.13514449042E+03  0.80590657572E+02 0.  0.
        -13    1    3    3    0    0  0.57158180811E+01  0.36536414409E+02 -0.13142766633E+04  0.13147968390E+04  0.00000000000E+00 0.  1.
         14    1    3    3    0    0  0.32935489323E+02 -0.24978268393E+02 -0.54361997655E+03  0.54518926920E+03  0.00000000000E+00 0. -1.
         13    1    5    5    0    0 -0.45293973729E+01 -0.33214242330E+02  0.38327103973E+01  0.33740050432E+02  0.00000000000E+00 0. -1.
        -14    1    5    5    0    0 -0.30287171571E+02  0.10000127389E+02  0.96257701712E+02  0.10140443998E+03  0.00000000000E+00 0.  1.
          5    1    4    4  501    0  0.59460231937E+02 -0.94052892345E+00 -0.32287978465E+02  0.67796679343E+02  0.41800000000E+01 0. -1.
         -5    1    4    4    0  501 -0.63294970397E+02  0.12596497850E+02 -0.14201314623E+02  0.66212346074E+02  0.41800000000E+01 0. -1.
</event>
<event>
11    1  0.8864208E-009  0.1657448E+03  0.7561462E-02  0.1081795E+00
         22   -1    0    0    0    0  0.00000000000E+00  0.00000000000E+00  0.17608387444E+03  0.17608387444E+03  0.00000000000E+00 0.  1.
         22   -1    0    0    0    0 -0.00000000000E+00 -0.00000000000E+00 -0.15839741902E+04  0.15839741902E+04  0.00000000000E+00 0.  1.
        -24    2    1    2    0    0 -0.89709590332E+02  0.63891797635E+02 -0.15001274345E+04  0.15062972287E+04  0.80118968712E+02 0.  0.
         25    2    1    2    0    0  0.62064346949E+02 -0.29340880615E+02  0.34891675151E+02  0.14689220004E+03  0.12508804500E+03 0.  0.
         24    2    1    2    0    0  0.27645243383E+02 -0.34550917020E+02  0.57345443595E+02  0.10686863586E+03  0.78577223683E+02 0.  0.
        -13    1    5    5    0    0 -0.13076825100E+02 -0.13602885939E+02  0.58080350811E+02  0.61068559922E+02  0.00000000000E+00 0.  1.
         14    1    5    5    0    0  0.40722068483E+02 -0.20948031081E+02 -0.73490721631E+00  0.45800075943E+02  0.00000000000E+00 0. -1.
         13    1    3    3    0    0 -0.43288362567E+02  0.47547678081E+02 -0.40572643956E+03  0.41079022357E+03  0.00000000000E+00 0. -1.
        -14    1    3    3    0    0 -0.46421227766E+02  0.16344119554E+02 -0.10944009949E+04  0.10955070051E+04  0.00000000000E+00 0.  1.
          5    1    4    4  501    0  0.73965961445E+02 -0.24347813899E+02 -0.27769509091E+02  0.82779209523E+02  0.41800000000E+01 0. -1.
         -5    1    4    4    0  501 -0.11901614496E+02 -0.49930667152E+01  0.62661184242E+02  0.64112990520E+02  0.41800000000E+01 0. -1.
</event>
<event>
11    1  0.8864208E-009  0.1298904E+03  0.7561462E-02  0.1119404E+00
         22   -1    0    0    0    0  0.00000000000E+00  0.00000000000E+00  0.67818227115E+03  0.67818227115E+03  0.00000000000E+00 0. -1.
         22   -1    0    0    0    0 -0.00000000000E+00 -0.00000000000E+00 -0.62374078293E+03  0.62374078293E+03  0.00000000000E+00 0. -1.
        -24    2    1    2    0    0 -0.35030965943E+02  0.15057181425E+01 -0.54692845019E+03  0.55395150294E+03  0.80635613828E+02 0.  0.
         25    2    1    2    0    0  0.32951598497E+02  0.84208028046E+01 -0.11208699033E+02  0.13013032678E+03  0.12510615193E+03 0.  0.
         24    2    1    2    0    0  0.20793674459E+01 -0.99265209471E+01  0.61257863745E+03  0.61784122435E+03  0.79826886823E+02 0.  0.
        -11    1    5    5    0    0  0.22740769330E+02 -0.21061037254E+02  0.99271820695E+02  0.10399809741E+03  0.00000000000E+00 0.  1.
         12    1    5    5    0    0 -0.20661401884E+02  0.11134516307E+02  0.51330681675E+03  0.51384312694E+03  0.00000000000E+00 0. -1.
         11    1    3    3    0    0  0.98162114429E+01 -0.23012848590E+02 -0.33554586936E+03  0.33647730926E+03  0.00000000000E+00 0. -1.
        -12    1    3    3    0    0 -0.44847177386E+02  0.24518566733E+02 -0.21138258084E+03  0.21747419368E+03  0.00000000000E+00 0.  1.
          5    1    4    4  501    0 -0.64626641281E+01 -0.40812760383E+02 -0.42654916113E+02  0.59534542128E+02  0.41800000000E+01 0.  1.
         -5    1    4    4    0  501  0.39414262625E+02  0.49233563188E+02  0.31446217081E+02  0.70595784656E+02  0.41800000000E+01 0.  1.
</event>
<event>
11    1  0.8864208E-009  0.1449600E+03  0.7561462E-02  0.1102143E+00
         22   -1    0    0    0    0  0.00000000000E+00  0.00000000000E+00  0.30439922588E+03  0.30439922588E+03  0.00000000000E+00 0. -1.
         22   -1    0    0    0    0 -0.00000000000E+00 -0.00000000000E+00 -0.10802998193E+04  0.10802998193E+04  0.00000000000E+00 0.  1.
        -24    2    1    2    0    0  0.86218619201E+02  0.57704230725E+01 -0.86275010102E+03  0.87091280355E+03  0.81758342093E+02 0.  0.
         25    2    1    2    0    0 -0.69753418407E+01  0.33160095189E+02 -0.18026279491E+03  0.22201151240E+03  0.12508472770E+03 0.  0.
         24    2    1    2    0    0 -0.79243277360E+02 -0.38930518262E+02  0.26711230255E+03  0.29177472917E+03  0.77384934918E+02 0.  0.
        -11    1    5    5    0    0 -0.84679944634E+01 -0.11538275990E+02  0.23229245282E+00  0.14314073594E+02  0.00000000000E+00 0.  1.
         12    1    5    5    0    0 -0.70775282896E+02 -0.27392242271E+02  0.26688001010E+03  0.27746065558E+03  0.00000000000E+00 0. -1.
         11    1    3    3    0    0  0.18980608515E+02 -0.35136901714E+02 -0.26101517017E+03  0.26405261676E+03  0.00000000000E+00 0. -1.
        -12    1    3    3    0    0  0.67238010685E+02  0.40907324786E+02 -0.60173493085E+03  0.60686018679E+03  0.00000000000E+00 0.  1.
          5    1    4    4  501    0 -0.65666352277E+02  0.15644013624E+02 -0.10482692193E+03  0.12475159696E+03  0.41800000000E+01 0. -1.
         -5    1    4    4    0  501  0.58691010436E+02  0.17516081565E+02 -0.75435872979E+02  0.97259915440E+02  0.41800000000E+01 0. -1.
</event>
<event>
11    1  0.8864208E-009  0.1377158E+03  0.7561462E-02  0.1110136E+00
         22   -1    0    0    0    0  0.00000000000E+00  0.00000000000E+00  0.16373937542E+03  0.16373937542E+03  0.00000000000E+00 0.  1.
         22   -1    0    0    0    0 -0.00000000000E+00 -0.00000000000E+00 -0.66391613678E+03  0.66391613678E+03  0.00000000000E+00 0. -1.
         24    2    1    2    0    0 -0.53121889971E+02 -0.86147126379E+01 -0.43001940246E+03  0.44067737073E+03  0.79898123317E+02 0.  0.
         25    2    1    2    0    0  0.79203824002E+02 -0.23184698420E+02 -0.18702922498E+03  0.23966197592E+03  0.12508859151E+03 0.  0.
        -24    2    1    2    0    0 -0.26081934031E+02  0.31799411058E+02  0.11687186608E+03  0.14731616555E+03  0.79696610498E+02 0.  0.
        -13    1    3    3    0    0 -0.84533812459E+01  0.18760869790E+02 -0.25441645339E+02  0.32721662661E+02  0.00000000000E+00 0.  1.
         14    1    3    3    0    0 -0.44668508725E+02 -0.27375582428E+02 -0.40457775712E+03  0.40795570807E+03  0.00000000000E+00 0. -1.
         11    1    5    5    0    0 -0.38138860120E+02  0.20380474663E+02  0.17636549341E+02  0.46701009319E+02  0.00000000000E+00 0. -1.
        -12    1    5    5    0    0  0.12056926089E+02  0.11418936395E+02  0.99235316739E+02  0.10061515623E+03  0.00000000000E+00 0.  1.
          5    1    4    4  501    0  0.55950421187E+02 -0.39406949242E+02 -0.21769578669E+02  0.71935695138E+02  0.41800000000E+01 0.  1.
         -5    1    4    4    0  501  0.23253402814E+02  0.16222250822E+02 -0.16525964632E+03  0.16772628078E+03  0.41800000000E+01 0.  1.
</event>
<event>
11    1  0.8864208E-009  0.1303194E+03  0.7561462E-02  0.1118877E+00
         22   -1    0    0    0    0  0.00000000000E+00  0.00000000000E+00  0.15223165495E+04  0.15223165495E+04  0.00000000000E+00 0. -1.
         22   -1    0    0    0    0 -0.00000000000E+00 -0.00000000000E+00 -0.30491583940E+04  0.30491583940E+04  0.00000000000E+00 0.  1.
        -24    2    1    2    0    0  0.98483984713E+01  0.76877911213E+00 -0.30109291787E+04  0.30120176079E+04  0.80361489089E+02 0.  0.
         25    2    1    2    0    0  0.27068829036E+02 -0.10862647495E+01  0.76491023190E+02  0.14910204137E+03  0.12508653259E+03 0.  0.
         24    2    1    2    0    0 -0.36917227507E+02  0.31748563740E+00  0.14075963111E+04  0.14103552942E+04  0.80073082069E+02 0.  0.
        -11    1    5    5    0    0 -0.40527015755E+02  0.33631365482E+02  0.70740628532E+03  0.70936391243E+03  0.00000000000E+00 0.  1.
         12    1    5    5    0    0  0.36097882484E+01 -0.33313879844E+02  0.70019002575E+03  0.70099138177E+03  0.00000000000E+00 0. -1.
         11    1    3    3    0    0 -0.21022371830E+02 -0.20280293617E+02 -0.22335684505E+04  0.22337594440E+04  0.00000000000E+00 0. -1.
        -12    1    3    3    0    0  0.30870770301E+02  0.21049072730E+02 -0.77736072822E+03  0.77825816392E+03  0.00000000000E+00 0.  1.
          5    1    4    4  501    0 -0.33348015522E+02 -0.16731681700E+02 -0.13163466010E+02  0.39784275149E+02  0.41800000000E+01 0.  1.
         -5    1    4    4    0  501  0.60416844557E+02  0.15645416950E+02  0.89654489201E+02  0.10931776622E+03  0.41800000000E+01 0.  1.
</event>
<event>
11    1  0.8864208E-009  0.1283777E+03  0.7561462E-02  0.1121278E+00
         22   -1    0    0    0    0  0.00000000000E+00  0.00000000000E+00  0.14829610360E+04  0.14829610360E+04  0.00000000000E+00 0. -1.
         22   -1    0    0    0    0 -0.00000000000E+00 -0.00000000000E+00 -0.12396007088E+04  0.12396007088E+04  0.00000000000E+00 0.  1.
        -24    2    1    2    0    0  0.27812433864E+02  0.74666278899E+01 -0.12243041993E+04  0.12276895431E+04  0.86438184926E+02 0.  0.
         25    2    1    2    0    0 -0.33362628211E+02 -0.45707685582E+02  0.38676498519E+03  0.41041104378E+03  0.12509122114E+03 0.  0.
         24    2    1    2    0    0  0.55501943470E+01  0.38241057692E+02  0.10808995413E+04  0.10844611579E+04  0.78860646342E+02 0.  0.
        -13    1    5    5    0    0 -0.57911892589E+01 -0.80851318352E+01  0.18603325495E+02  0.21094808586E+02  0.00000000000E+00 0.  1.
         14    1    5    5    0    0  0.11341383606E+02  0.46326189527E+02  0.10622962158E+04  0.10633663493E+04  0.00000000000E+00 0. -1.
         11    1    3    3    0    0  0.19788021716E+02 -0.26574166502E+01 -0.58490259602E+02  0.61804030087E+02  0.00000000000E+00 0. -1.
        -12    1    3    3    0    0  0.80244121485E+01  0.10124044540E+02 -0.11658139397E+04  0.11658855130E+04  0.00000000000E+00 0.  1.
          5    1    4    4  501    0 -0.26661875203E+02 -0.87099671095E+02  0.30623503233E+03  0.31952241818E+03  0.41800000000E+01 0. -1.
         -5    1    4    4    0  501 -0.67007530084E+01  0.41391985514E+02  0.80529952862E+02  0.90888625600E+02  0.41800000000E+01 0. -1.
</event>
<event>
11    1  0.8864208E-009  0.1464953E+03  0.7561462E-02  0.1100515E+00
         22   -1    0    0    0    0  0.00000000000E+00  0.00000000000E+00  0.60078785006E+03  0.60078785006E+03  0.00000000000E+00 0. -1.
         22   -1    0    0    0    0 -0.00000000000E+00 -0.00000000000E+00 -0.43891634426E+03  0.43891634426E+03  0.00000000000E+00 0. -1.
        -24    2    1    2    0    0 -0.23923289685E+02  0.30298436354E+02 -0.35332203425E+03  0.36452103555E+03  0.80924696061E+02 0.  0.
         25    2    1    2    0    0 -0.57732902023E+01 -0.98982975371E+02  0.12118477499E+02  0.16007712621E+03  0.12508744360E+03 0.  0.
         24    2    1    2    0    0  0.29696579887E+02  0.68684539017E+02  0.50307506256E+03  0.51510603257E+03  0.81549086220E+02 0.  0.
        -13    1    5    5    0    0 -0.20467370234E+02  0.34266109433E+01  0.19928584048E+03  0.20036342262E+03  0.00000000000E+00 0.  1.
         14    1    5    5    0    0  0.50163950121E+02  0.65257928073E+02  0.30378922207E+03  0.31474260994E+03  0.00000000000E+00 0. -1.
         13    1    3    3    0    0 -0.30931194169E+02  0.53137758433E+02 -0.29774098886E+03  0.30402311851E+03  0.00000000000E+00 0. -1.
        -14    1    3    3    0    0  0.70079044847E+01 -0.22839322079E+02 -0.55581045396E+02  0.60497917035E+02  0.00000000000E+00 0.  1.
          5    1    4    4  501    0  0.52957550533E+02 -0.15676661140E+02  0.17028464337E+02  0.57945671630E+02  0.41800000000E+01 0. -1.
         -5    1    4    4    0  501 -0.58730840736E+02 -0.83306314231E+02 -0.49099868373E+01  0.10213145458E+03  0.41800000000E+01 0. -1.
</event>
<event>
11    1  0.8864208E-009  0.1531038E+03  0.7561462E-02  0.1093749E+00
         22   -1    0    0    0    0  0.00000000000E+00  0.00000000000E+00  0.28515603576E+03  0.28515603576E+03  0.00000000000E+00 0. -1.
         22   -1    0    0    0    0 -0.00000000000E+00 -0.00000000000E+00 -0.24088342659E+03  0.24088342659E+03  0.00000000000E+00 0.  1.
        -24    2    1    2    0    0 -0.30608324487E+02 -0.20216734622E+02 -0.11210852320E+03  0.15961831803E+03  0.10753650817E+03 0.  0.
         25    2    1    2    0    0 -0.29058058233E+02 -0.52943068111E+02 -0.30864561286E+02  0.14229404526E+03  0.12509050709E+03 0.  0.
         24    2    1    2    0    0  0.59666382720E+02  0.73159802733E+02  0.18724569365E+03  0.22412709906E+03  0.79117461895E+02 0.  0.
        -13    1    5    5    0    0  0.27804308085E+01 -0.68095053144E+01  0.73624118552E+02  0.73990614207E+02  0.00000000000E+00 0.  1.
         14    1    5    5    0    0  0.56885951911E+02  0.79969308047E+02  0.11362157510E+03  0.15013648485E+03  0.00000000000E+00 0. -1.
         13    1    3    3    0    0 -0.30029465115E+02 -0.19448323619E+02  0.10280964469E+02  0.37225049323E+02  0.00000000000E+00 0. -1.
        -14    1    3    3    0    0 -0.57885937214E+00 -0.76841100248E+00 -0.12238948767E+03  0.12239326871E+03  0.00000000000E+00 0.  1.
          5    1    4    4  501    0 -0.26914339182E+02 -0.73408176582E+01 -0.74094386140E+02  0.79282530957E+02  0.41800000000E+01 0. -1.
         -5    1    4    4    0  501 -0.21437190508E+01 -0.45602250453E+02  0.43229824853E+02  0.63011514302E+02  0.41800000000E+01 0. -1.
</event>
<event>
11    1  0.8864208E-009  0.1676971E+03  0.7561462E-02  0.1080053E+00
         22   -1    0    0    0    0  0.00000000000E+00  0.00000000000E+00  0.16268028523E+03  0.16268028523E+03  0.00000000000E+00 0.  1.
         22   -1    0    0    0    0 -0.00000000000E+00 -0.00000000000E+00 -0.23159744624E+04  0.23159744624E+04  0.00000000000E+00 0. -1.
         24    2    1    2    0    0 -0.11723244650E+02  0.16623380693E+02 -0.20381434732E+04  0.20397530891E+04  0.78422419554E+02 0.  0.
         25    2    1    2    0    0 -0.39121543048E+02  0.85747415531E+02 -0.21544192168E+03  0.26636053482E+03  0.12509835527E+03 0.  0.
        -24    2    1    2    0    0  0.50844787698E+02 -0.10237079622E+03  0.10029121777E+03  0.17254112366E+03  0.81529986115E+02 0.  0.
        -13    1    3    3    0    0  0.22607372609E+02  0.31852569469E+02 -0.70545201704E+03  0.70653253841E+03  0.00000000000E+00 0.  1.
         14    1    3    3    0    0 -0.34330617258E+02 -0.15229188775E+02 -0.13326914562E+04  0.13332205507E+04  0.00000000000E+00 0. -1.
         11    1    5    5    0    0  0.36850546452E+02 -0.26543920764E+02  0.81307238016E+02  0.93131141178E+02  0.00000000000E+00 0. -1.
        -12    1    5    5    0    0  0.13994241246E+02 -0.75826875460E+02  0.18983979750E+02  0.79409982478E+02  0.00000000000E+00 0.  1.
          5    1    4    4  501    0  0.42783988477E+02  0.82592305353E+01 -0.58050870346E+02  0.72705299030E+02  0.41800000000E+01 0.  1.
         -5    1    4    4    0  501 -0.81905531525E+02  0.77488184995E+02 -0.15739105134E+03  0.19365523579E+03  0.41800000000E+01 0.  1.
</event>
<event>
11    1  0.8864208E-009  0.1598370E+03  0.7561462E-02  0.1087231E+00
         22   -1    0    0    0    0  0.00000000000E+00  0.00000000000E+00  0.11555866471E+04  0.11555866471E+04  0.00000000000E+00 0. -1.
         22   -1    0    0    0    0 -0.00000000000E+00 -0.00000000000E+00 -0.96909785479E+03  0.96909785479E+03  0.00000000000E+00 0. -1.
         24    2    1    2    0    0  0.98575372612E+02  0.13118285668E+02 -0.91292180364E+03  0.92181753293E+03  0.80200691750E+02 0.  0.
         25    2    1    2    0    0 -0.96392057976E+02 -0.40901676582E+02  0.83215438367E+02  0.18313216367E+03  0.12509278236E+03 0.  0.
        -24    2    1    2    0    0 -0.21833146360E+01  0.27783390914E+02  0.10161951576E+04  0.10197348053E+04  0.80185978451E+02 0.  0.
        -11    1    3    3    0    0  0.14449987726E+02 -0.31338519348E+01 -0.20412745326E+02  0.25205224557E+02  0.00000000000E+00 0.  1.
         12    1    3    3    0    0  0.84125384886E+02  0.16252137603E+02 -0.89250905831E+03  0.89661230838E+03  0.00000000000E+00 0. -1.
         11    1    5    5    0    0  0.15161411616E+02 -0.33410225979E+01  0.83089516127E+03  0.83104019148E+03  0.00000000000E+00 0. -1.
        -12    1    5    5    0    0 -0.17344726252E+02  0.31124413512E+02  0.18529999634E+03  0.18869461383E+03  0.00000000000E+00 0.  1.
          5    1    4    4  501    0 -0.72850380797E+02 -0.85505772583E+02  0.54166967425E+02  0.12477959724E+03  0.41800000000E+01 0. -1.
         -5    1    4    4    0  501 -0.23541677179E+02  0.44604096001E+02  0.29048470942E+02  0.58352566426E+02  0.41800000000E+01 0. -1.
</event>
<event>
11    1  0.8864208E-009  0.1824399E+03  0.7561462E-02  0.1067686E+00
         22   -1    0    0    0    0  0.00000000000E+00  0.00000000000E+00  0.14661959321E+04  0.14661959321E+04  0.00000000000E+00 0.  1.
         22   -1    0    0    0    0 -0.00000000000E+00 -0.00000000000E+00 -0.30475482041E+04  0.30475482041E+04  0.00000000000E+00 0.  1.
        -24    2    1    2    0    0 -0.43818405215E+02  0.11344780615E+02 -0.30111711508E+04  0.30125742123E+04  0.80018302538E+02 0.  0.
         25    2    1    2    0    0  0.11987635397E+03 -0.11381625449E+03  0.32193520839E+03  0.38290210628E+03  0.12508902656E+03 0.  0.
         24    2    1    2    0    0 -0.76057948759E+02  0.10247147388E+03  0.11078836704E+04  0.11182678176E+04  0.82652708488E+02 0.  0.
        -13    1    5    5    0    0 -0.45418069627E+02  0.89457702597E+02  0.52911726662E+03  0.53854485741E+03  0.00000000000E+00 0.  1.
         14    1    5    5    0    0 -0.30639879132E+02  0.13013771282E+02  0.57876640378E+03  0.57972296020E+03  0.00000000000E+00 0. -1.
         13    1    3    3    0    0  0.60279508069E+01 -0.71246202544E+01 -0.46538727693E+02  0.47465246023E+02  0.00000000000E+00 0. -1.
        -14    1    3    3    0    0 -0.49846356021E+02  0.18469400870E+02 -0.29646324231E+04  0.29651089663E+04  0.00000000000E+00 0.  1.
          5    1    4    4  501    0  0.12606957512E+03 -0.39251834180E+02  0.19620629874E+03  0.23653462394E+03  0.41800000000E+01 0. -1.
         -5    1    4    4    0  501 -0.61932211504E+01 -0.74564420315E+02  0.12572890965E+03  0.14636748234E+03  0.41800000000E+01 0. -1.
</event>
<event>
11    1  0.8864208E-009  0.2429705E+03  0.7561462E-02  0.1027712E+00
         22   -1    0    0    0    0  0.00000000000E+00  0.00000000000E+00  0.59142462747E+03  0.59142462747E+03  0.00000000000E+00 0. -1.
         22   -1    0    0    0    0 -0.00000000000E+00 -0.00000000000E+00 -0.42851220766E+03  0.42851220766E+03  0.00000000000E+00 0. -1.
        -24    2    1    2    0    0  0.13743219913E+03 -0.41293719193E+02 -0.30059521732E+03  0.34297046527E+03  0.81721935638E+02 0.  0.
         25    2    1    2    0    0 -0.28509031352E+03  0.73850190330E+02  0.33459870995E+03  0.46296276145E+03  0.12509150380E+03 0.  0.
         24    2    1    2    0    0  0.14765811438E+03 -0.32556471138E+02  0.12890892718E+03  0.21400360841E+03  0.79480754571E+02 0.  0.
        -13    1    5    5    0    0  0.88767418109E+00 -0.16455056511E+02 -0.20974083846E+01  0.16611922591E+02  0.00000000000E+00 0.  1.
         14    1    5    5    0    0  0.14677044020E+03 -0.16101414627E+02  0.13100633557E+03  0.19739168582E+03  0.00000000000E+00 0. -1.
         13    1    3    3    0    0  0.13586613095E+03 -0.46471330930E+02 -0.30425622172E+03  0.33643875905E+03  0.00000000000E+00 0. -1.
        -14    1    3    3    0    0  0.15660681861E+01  0.51776117378E+01  0.36610043976E+01  0.65317062143E+01  0.00000000000E+00 0.  1.
          5    1    4    4  501    0 -0.21172685581E+03  0.61573756096E+02  0.15800779825E+03  0.27129969705E+03  0.41800000000E+01 0.  1.
         -5    1    4    4    0  501 -0.73363457710E+02  0.12276434235E+02  0.17659091169E+03  0.19166306441E+03  0.41800000000E+01 0.  1.
</event>
<event>
11    1  0.8864208E-009  0.1629210E+03  0.7561462E-02  0.1084362E+00
         22   -1    0    0    0    0  0.00000000000E+00  0.00000000000E+00  0.13378015058E+03  0.13378015058E+03  0.00000000000E+00 0. -1.
         22   -1    0    0    0    0 -0.00000000000E+00 -0.00000000000E+00 -0.17395311148E+04  0.17395311148E+04  0.00000000000E+00 0.  1.
        -24    2    1    2    0    0 -0.29935903108E+01 -0.10617257895E+03 -0.12568715751E+04  0.12639488716E+04  0.80987750846E+02 0.  0.
         25    2    1    2    0    0 -0.77316370621E+02  0.92555181019E+02 -0.43252686727E+03  0.46612375720E+03  0.12509030106E+03 0.  0.
         24    2    1    2    0    0  0.80309960932E+02  0.13617397935E+02  0.83647478118E+02  0.14323863653E+03  0.82977605708E+02 0.  0.
        -11    1    5    5    0    0  0.11726967279E+02 -0.16333431217E+01 -0.16864328744E+02  0.20605706862E+02  0.00000000000E+00 0.  1.
         12    1    5    5    0    0  0.68582993653E+02  0.15250741056E+02  0.10051180686E+03  0.12263292967E+03  0.00000000000E+00 0. -1.
         13    1    3    3    0    0 -0.14939690624E+02 -0.19312713485E+02 -0.75979673969E+02  0.79806554333E+02  0.00000000000E+00 0. -1.
        -14    1    3    3    0    0  0.11946100314E+02 -0.86859865468E+02 -0.11808919011E+04  0.11841423173E+04  0.00000000000E+00 0.  1.
          5    1    4    4  501    0  0.13940510142E+01 -0.22644026820E+02 -0.19694206844E+02  0.30331988264E+02  0.41800000000E+01 0.  1.
         -5    1    4    4    0  501 -0.78710421635E+02  0.11519920784E+03 -0.41283266042E+03  0.43579176894E+03  0.41800000000E+01 0.  1.
</event>
<event>
11    1  0.8864208E-009  0.2247795E+03  0.7561462E-02  0.1038264E+00
         22   -1    0    0    0    0  0.00000000000E+00  0.00000000000E+00  0.60390797382E+03  0.60390797382E+03  0.00000000000E+00 0. -1.
         22   -1    0    0    0    0 -0.00000000000E+00 -0.00000000000E+00 -0.23113356770E+04  0.23113356770E+04  0.00000000000E+00 0. -1.
         24    2    1    2    0    0  0.52951659021E+02 -0.35236048812E+02 -0.18724063541E+04  0.18751968254E+04  0.80075724891E+02 0.  0.
         25    2    1    2    0    0 -0.73089726549E+02 -0.15163990800E+03 -0.39321619156E+03  0.44564906946E+03  0.12508936801E+03 0.  0.
        -24    2    1    2    0    0  0.20138067528E+02  0.18687595681E+03  0.55819484246E+03  0.59439775599E+03  0.79994032156E+02 0.  0.
        -11    1    3    3    0    0  0.31353086338E+02 -0.14607452566E+02 -0.23632055925E+03  0.23883843999E+03  0.00000000000E+00 0.  1.
         12    1    3    3    0    0  0.21598572683E+02 -0.20628596246E+02 -0.16360857948E+04  0.16363583854E+04  0.00000000000E+00 0. -1.
         11    1    5    5    0    0 -0.16905878776E+02  0.11762103460E+03  0.40738791703E+03  0.42436473871E+03  0.00000000000E+00 0. -1.
        -12    1    5    5    0    0  0.37043946304E+02  0.69254922212E+02  0.15080692542E+03  0.17003301728E+03  0.00000000000E+00 0.  1.
          5    1    4    4  501    0 -0.74725291256E+02 -0.51126739196E+02 -0.96744159602E+02  0.13256967010E+03  0.41800000000E+01 0.  1.
         -5    1    4    4    0  501  0.16355647068E+01 -0.10051316880E+03 -0.29647203195E+03  0.31307939936E+03  0.41800000000E+01 0.  1.
</event>
<event>
11    1  0.8864208E-009  0.1725554E+03  0.7561462E-02  0.1075829E+00
         22   -1    0    0    0    0  0.00000000000E+00  0.00000000000E+00  0.49801415798E+03  0.49801415798E+03  0.00000000000E+00 0.  1.
         22   -1    0    0    0    0 -0.00000000000E+00 -0.00000000000E+00 -0.22725677680E+03  0.22725677680E+03  0.00000000000E+00 0.  1.
         24    2    1    2    0    0  0.69481780732E+02  0.95451858977E+02 -0.15414304688E+03  0.21044533385E+03  0.81168863510E+02 0.  0.
         25    2    1    2    0    0 -0.47625724318E+02 -0.11918373249E+03  0.17417904597E+03  0.24991713390E+03  0.12508901652E+03 0.  0.
        -24    2    1    2    0    0 -0.21856056414E+02  0.23731873512E+02  0.25072138209E+03  0.26490846703E+03  0.79211081589E+02 0.  0.
        -13    1    3    3    0    0  0.83338650490E+02  0.62753119895E+02 -0.13329108939E+03  0.16926251573E+03  0.00000000000E+00 0.  1.
         14    1    3    3    0    0 -0.13856869758E+02  0.32698739082E+02 -0.20851957489E+02  0.41182818118E+02  0.00000000000E+00 0. -1.
         13    1    5    5    0    0 -0.22661138823E+02 -0.24483822569E+02  0.65422603258E+02  0.73437740961E+02  0.00000000000E+00 0. -1.
        -14    1    5    5    0    0  0.80508240886E+00  0.48215696081E+02  0.18529877883E+03  0.19147072607E+03  0.00000000000E+00 0.  1.
          5    1    4    4  501    0 -0.17299758791E+01 -0.94699134465E+02  0.17351514549E+03  0.19772682417E+03  0.41800000000E+01 0.  1.
         -5    1    4    4    0  501 -0.45895748439E+02 -0.24484598024E+02  0.66390048187E+00  0.52190309724E+02  0.41800000000E+01 0.  1.
</event>
<event>
11    1  0.8864208E-009  0.1469106E+03  0.7561462E-02  0.1100078E+00
         22   -1    0    0    0    0  0.00000000000E+00  0.00000000000E+00  0.15156807323E+04  0.15156807323E+04  0.00000000000E+00 0. -1.
         22   -1    0    0    0    0 -0.00000000000E+00 -0.00000000000E+00 -0.46655329385E+02  0.46655329385E+02  0.00000000000E+00 0. -1.
        -24    2    1    2    0    0  0.40247597199E+02 -0.68562167719E+02  0.63090110505E+02  0.12938622503E+03  0.80248322485E+02 0.  0.
         25    2    1    2    0    0 -0.24683190435E+02  0.61439261544E+02  0.43798824458E+03  0.46028701049E+03  0.12508551828E+03 0.  0.
         24    2    1    2    0    0 -0.15564406764E+02  0.71229061752E+01  0.96794704784E+03  0.97266282617E+03  0.94119601869E+02 0.  0.
        -13    1    5    5    0    0  0.28923016812E+02  0.16340373931E+02  0.15860335935E+03  0.16204497622E+03  0.00000000000E+00 0.  1.
         14    1    5    5    0    0 -0.44487423577E+02 -0.92174677559E+01  0.80934368849E+03  0.81061784995E+03  0.00000000000E+00 0. -1.
         11    1    3    3    0    0  0.32918299652E+02 -0.27649678498E+02 -0.11052788118E+02  0.44387873324E+02  0.00000000000E+00 0. -1.
        -12    1    3    3    0    0  0.73292975472E+01 -0.40912489221E+02  0.74142898623E+02  0.84998351707E+02  0.00000000000E+00 0.  1.
          5    1    4    4  501    0 -0.39595184137E+02  0.60597157556E+02  0.43880575007E+03  0.44475583505E+03  0.41800000000E+01 0. -1.
         -5    1    4    4    0  501  0.14911993702E+02  0.84210398751E+00 -0.81750549313E+00  0.15531175439E+02  0.41800000000E+01 0. -1.
</event>
<event>
11    1  0.8864208E-009  0.1610607E+03  0.7561462E-02  0.1086084E+00
         22   -1    0    0    0    0  0.00000000000E+00  0.00000000000E+00  0.64614257651E+03  0.64614257651E+03  0.00000000000E+00 0. -1.
         22   -1    0    0    0    0 -0.00000000000E+00 -0.00000000000E+00 -0.78727244540E+03  0.78727244540E+03  0.00000000000E+00 0. -1.
         24    2    1    2    0    0  0.91531811702E+02 -0.69502769483E+02 -0.62733928858E+03  0.64286772488E+03  0.80719397804E+02 0.  0.
         25    2    1    2    0    0 -0.48874474348E+02  0.13881034187E+02 -0.11600196698E+03  0.17800346573E+03  0.12508948844E+03 0.  0.
        -24    2    1    2    0    0 -0.42657337354E+02  0.55621735296E+02  0.60221138667E+03  0.61254383129E+03  0.87395452718E+02 0.  0.
        -13    1    3    3    0    0 -0.14076535233E+01  0.15963930683E+01  0.18923467958E+01  0.28479704467E+01  0.00000000000E+00 0.  1.
         14    1    3    3    0    0  0.92939465225E+02 -0.71099162552E+02 -0.62923163538E+03  0.64001975444E+03  0.00000000000E+00 0. -1.
         13    1    5    5    0    0 -0.34667517193E+02  0.28575498040E+02  0.55987308139E+03  0.56167273665E+03  0.00000000000E+00 0. -1.
        -14    1    5    5    0    0 -0.79898201611E+01  0.27046237256E+02  0.42338305278E+02  0.50871094639E+02  0.00000000000E+00 0.  1.
          5    1    4    4  501    0 -0.77552167328E+02 -0.27428464022E+02 -0.55983284088E+02  0.99590460352E+02  0.41800000000E+01 0. -1.
         -5    1    4    4    0  501  0.28677692980E+02  0.41309498209E+02 -0.60018682888E+02  0.78413005379E+02  0.41800000000E+01 0. -1.
</event>
<event>
11    1  0.8864208E-009  0.2989784E+03  0.7561462E-02  0.1000624E+00
         22   -1    0    0    0    0  0.00000000000E+00  0.00000000000E+00  0.81522081733E+03  0.81522081733E+03  0.00000000000E+00 0. -1.
         22   -1    0    0    0    0 -0.00000000000E+00 -0.00000000000E+00 -0.45491407351E+03  0.45491407351E+03  0.00000000000E+00 0. -1.
         24    2    1    2    0    0 -0.20397202879E+03 -0.17748619502E+03 -0.32661137628E+03  0.43126024403E+03  0.78768451889E+02 0.  0.
         25    2    1    2    0    0  0.21316234454E+03  0.17974943579E+03  0.25204491584E+03  0.39613418505E+03  0.12509039997E+03 0.  0.
        -24    2    1    2    0    0 -0.91903157503E+01 -0.22632407703E+01  0.43487320426E+03  0.44274046177E+03  0.82551974781E+02 0.  0.
        -11    1    3    3    0    0 -0.13987344552E+03 -0.97030900426E+02 -0.15007861575E+03  0.22694309266E+03  0.00000000000E+00 0.  1.
         12    1    3    3    0    0 -0.64098583275E+02 -0.80455294593E+02 -0.17653276052E+03  0.20431715137E+03  0.00000000000E+00 0. -1.
         13    1    5    5    0    0 -0.11601201687E+02 -0.20067693632E+01  0.43834654797E+03  0.43850463067E+03  0.00000000000E+00 0. -1.
        -14    1    5    5    0    0  0.24108859368E+01 -0.25647140711E+00 -0.34733437071E+01  0.42358310980E+01  0.00000000000E+00 0.  1.
          5    1    4    4  501    0  0.10924842499E+03  0.16481512821E+03  0.13858909531E+03  0.24150290804E+03  0.41800000000E+01 0. -1.
         -5    1    4    4    0  501  0.10391391955E+03  0.14934307580E+02  0.11345582052E+03  0.15463127701E+03  0.41800000000E+01 0. -1.
</event>
<event>
11    1  0.8864208E-009  0.1385894E+03  0.7561462E-02  0.1109144E+00
         22   -1    0    0    0    0  0.00000000000E+00  0.00000000000E+00  0.20849633421E+04  0.20849633421E+04  0.00000000000E+00 0.  1.
         22   -1    0    0    0    0 -0.00000000000E+00 -0.00000000000E+00 -0.14319356096E+04  0.14319356096E+04  0.00000000000E+00 0. -1.
         24    2    1    2    0    0 -0.22200167806E+01  0.60594194628E+02 -0.13500611865E+04  0.13537531247E+04  0.79408629852E+02 0.  0.
         25    2    1    2    0    0  0.51130147254E+02 -0.24426114118E+02 -0.19123283485E+02  0.13866700365E+03  0.12510759737E+03 0.  0.
        -24    2    1    2    0    0 -0.48910130474E+02 -0.36168080510E+02  0.20222122025E+04  0.20244788234E+04  0.73972855180E+02 0.  0.
        -11    1    3    3    0    0 -0.12294424761E+02 -0.12687447443E+02 -0.10332978009E+03  0.10482923092E+03  0.00000000000E+00 0.  1.
         12    1    3    3    0    0  0.10074407980E+02  0.73281642071E+02 -0.12467314064E+04  0.12489238938E+04  0.00000000000E+00 0. -1.
         13    1    5    5    0    0  0.35573407248E+01  0.10894088765E+02  0.65316761767E+02  0.66314517346E+02  0.00000000000E+00 0. -1.
        -14    1    5    5    0    0 -0.52467471199E+02 -0.47062169275E+02  0.19568954408E+04  0.19581643060E+04  0.00000000000E+00 0.  1.
          5    1    4    4  501    0  0.77607452218E+02 -0.16691352292E+02 -0.52425461253E+02  0.95222997583E+02  0.41800000000E+01 0. -1.
         -5    1    4    4    0  501 -0.26477304963E+02 -0.77347618256E+01  0.33302177769E+02  0.43444006063E+02  0.41800000000E+01 0. -1.
</event>
<event>
11    1  0.8864208E-009  0.1795967E+03  0.7561462E-02  0.1069969E+00
         22   -1    0    0    0    0  0.00000000000E+00  0.00000000000E+00  0.52224276285E+03  0.52224276285E+03  0.00000000000E+00 0. -1.
         22   -1    0    0    0    0 -0.00000000000E+00 -0.00000000000E+00 -0.47951029513E+03  0.47951029513E+03  0.00000000000E+00 0.  1.
         24    2    1    2    0    0 -0.18248937919E+01  0.37060218898E+02 -0.38112274343E+03  0.39128234685E+03  0.80439662682E+02 0.  0.
         25    2    1    2    0    0  0.11578587767E+02 -0.15997886404E+03  0.51112392459E+02  0.20973200447E+03  0.12509091254E+03 0.  0.
        -24    2    1    2    0    0 -0.97536939754E+01  0.12291864515E+03  0.37274281869E+03  0.40073870667E+03  0.80312976963E+02 0.  0.
        -13    1    3    3    0    0 -0.72838485200E+01  0.19725202179E+02 -0.36862836689E+03  0.36922758689E+03  0.00000000000E+00 0.  1.
         14    1    3    3    0    0  0.54589547281E+01  0.17335016718E+02 -0.12494376542E+02  0.22054759952E+02  0.00000000000E+00 0. -1.
         11    1    5    5    0    0 -0.44247247974E+02  0.65525974769E+02  0.22625427073E+03  0.23967158226E+03  0.00000000000E+00 0. -1.
        -12    1    5    5    0    0  0.34493553998E+02  0.57392670377E+02  0.14648854796E+03  0.16106712440E+03  0.00000000000E+00 0.  1.
          5    1    4    4  501    0 -0.56043496531E+02 -0.62600421991E+02  0.12954854095E+02  0.85117489281E+02  0.41800000000E+01 0.  1.
         -5    1    4    4    0  501  0.67622084298E+02 -0.97378442053E+02  0.38157538364E+02  0.12461451519E+03  0.41800000000E+01 0.  1.
</event>
<event>
11    1  0.8864208E-009  0.1405448E+03  0.7561462E-02  0.1106952E+00
         22   -1    0    0    0    0  0.00000000000E+00  0.00000000000E+00  0.41490914718E+03  0.41490914718E+03  0.00000000000E+00 0. -1.
         22   -1    0    0    0    0 -0.00000000000E+00 -0.00000000000E+00 -0.29163046525E+03  0.29163046525E+03  0.00000000000E+00 0.  1.
         24    2    1    2    0    0  0.59090284877E+02  0.26336146009E+02 -0.24512857983E+03  0.26585093228E+03  0.80021517069E+02 0.  0.
         25    2    1    2    0    0 -0.48345818280E+02 -0.25989425229E+02  0.12838287557E+03  0.18746035980E+03  0.12508579212E+03 0.  0.
        -24    2    1    2    0    0 -0.10744466597E+02 -0.34672077941E+00  0.24002438619E+03  0.25322832035E+03  0.79983201259E+02 0.  0.
        -13    1    3    3    0    0  0.75162396511E+02  0.35560387750E+02 -0.21450266684E+03  0.23005503930E+03  0.00000000000E+00 0.  1.
         14    1    3    3    0    0 -0.16072111634E+02 -0.92242417408E+01 -0.30625912984E+02  0.35795892979E+02  0.00000000000E+00 0. -1.
         13    1    5    5    0    0 -0.12174375328E+01  0.12022869194E+02  0.23702106187E+03  0.23732891798E+03  0.00000000000E+00 0. -1.
        -14    1    5    5    0    0 -0.95270290640E+01 -0.12369589973E+02  0.30033243208E+01  0.15899402375E+02  0.00000000000E+00 0.  1.
          5    1    4    4  501    0 -0.61517693778E+02 -0.36599937223E+02  0.15653679983E+02  0.73392725453E+02  0.41800000000E+01 0.  1.
         -5    1    4    4    0  501  0.13171875498E+02  0.10610511993E+02  0.11272919558E+03  0.11406763435E+03  0.41800000000E+01 0.  1.
</event>
<event>
11    1  0.8864208E-009  0.1422398E+03  0.7561462E-02  0.1105083E+00
         22   -1    0    0    0    0  0.00000000000E+00  0.00000000000E+00  0.65909666298E+03  0.65909666298E+03  0.00000000000E+00 0.  1.
         22   -1    0    0    0    0 -0.00000000000E+00 -0.00000000000E+00 -0.27031768612E+03  0.27031768612E+03  0.00000000000E+00 0. -1.
        -24    2    1    2    0    0 -0.60011432603E+02 -0.25065558261E+02 -0.21211628895E+03  0.23635805371E+03  0.81499418760E+02 0.  0.
         25    2    1    2    0    0  0.10105763176E+03  0.23114838567E+02  0.11505031221E+03  0.19907639869E+03  0.12509155638E+03 0.  0.
         24    2    1    2    0    0 -0.41046199156E+02  0.19507196944E+01  0.48584495360E+03  0.49397989670E+03  0.79260479616E+02 0.  0.
        -11    1    5    5    0    0 -0.37434192722E+02  0.31265457376E+02  0.40466420825E+03  0.40759289622E+03  0.00000000000E+00 0.  1.
         12    1    5    5    0    0 -0.36120064332E+01 -0.29314737682E+02  0.81180745349E+02  0.86387000476E+02  0.00000000000E+00 0. -1.
         13    1    3    3    0    0 -0.79703599268E+02 -0.14639657007E+02 -0.17842132700E+03  0.19596212191E+03  0.00000000000E+00 0. -1.
        -14    1    3    3    0    0  0.19692166665E+02 -0.10425901254E+02 -0.33694961952E+02  0.40395931798E+02  0.00000000000E+00 0.  1.
          5    1    4    4  501    0 -0.23127481845E+02 -0.15733671871E+02  0.39417409979E+02  0.48514260342E+02  0.41800000000E+01 0. -1.
         -5    1    4    4    0  501  0.12418511360E+03  0.38848510438E+02  0.75632902236E+02  0.15056213835E+03  0.41800000000E+01 0. -1.
</event>
<event>
11    1  0.8864208E-009  0.1427843E+03  0.7561462E-02  0.1104488E+00
         22   -1    0    0    0    0  0.00000000000E+00  0.00000000000E+00  0.51914991382E+03  0.51914991382E+03  0.00000000000E+00 0. -1.
         22   -1    0    0    0    0 -0.00000000000E+00 -0.00000000000E+00 -0.11474772042E+04  0.11474772042E+04  0.00000000000E+00 0. -1.
         24    2    1    2    0    0 -0.19557784199E+02 -0.58966403333E+02 -0.11131043786E+04  0.11176942747E+04  0.79872338207E+02 0.  0.
         25    2    1    2    0    0 -0.50448975944E+02  0.20091097161E+02  0.17371448919E+03  0.22084428548E+03  0.12508686309E+03 0.  0.
        -24    2    1    2    0    0  0.70006760143E+02  0.38875306172E+02  0.31106259896E+03  0.32808855792E+03  0.66857501225E+02 0.  0.
        -11    1    3    3    0    0  0.94247047822E+01 -0.49227983593E+02 -0.31147267710E+03  0.31547971093E+03  0.00000000000E+00 0.  1.
         12    1    3    3    0    0 -0.28982488982E+02 -0.97384197397E+01 -0.80163170146E+03  0.80221456373E+03  0.00000000000E+00 0. -1.
         11    1    5    5    0    0  0.52912848285E+02 -0.18739502569E+01  0.22729303012E+03  0.23337823965E+03  0.00000000000E+00 0. -1.
        -12    1    5    5    0    0  0.17093911858E+02  0.40749256429E+02  0.83769568839E+02  0.94710318263E+02  0.00000000000E+00 0.  1.
          5    1    4    4  501    0 -0.83240608082E+02 -0.10585940002E+02  0.14437939128E+03  0.16704473050E+03  0.41800000000E+01 0.  1.
         -5    1    4    4    0  501  0.32791632139E+02  0.30677037162E+02  0.29335097902E+02  0.53799554982E+02  0.41800000000E+01 0.  1.
</event>
<event>
11    1  0.8864208E-009  0.1384819E+03  0.7561462E-02  0.1109266E+00
         22   -1    0    0    0    0  0.00000000000E+00  0.00000000000E+00  0.10875818638E+04  0.10875818638E+04  0.00000000000E+00 0.  1.
         22   -1    0    0    0    0 -0.00000000000E+00 -0.00000000000E+00 -0.45953006206E+03  0.45953006206E+03  0.00000000000E+00 0.  1.
        -24    2    1    2    0    0 -0.40552797045E+02 -0.32848952786E+02 -0.43626516611E+03  0.44651678488E+03  0.79538424520E+02 0.  0.
         25    2    1    2    0    0  0.83306396886E+02  0.46637454889E+02  0.46964435969E+03  0.49530472240E+03  0.12508371389E+03 0.  0.
         24    2    1    2    0    0 -0.42753599841E+02 -0.13788502103E+02  0.59467260817E+03  0.60529041859E+03  0.10355185579E+03 0.  0.
        -11    1    5    5    0    0 -0.17180913500E+02  0.68110235448E+01  0.54751109945E+03  0.54782294389E+03  0.00000000000E+00 0.  1.
         12    1    5    5    0    0 -0.25572686341E+02 -0.20599525648E+02  0.47161508718E+02  0.57467474698E+02  0.00000000000E+00 0. -1.
         13    1    3    3    0    0 -0.41757604417E+02 -0.36677115249E+02 -0.14595146071E+03  0.15617534118E+03  0.00000000000E+00 0. -1.
        -14    1    3    3    0    0  0.12048073718E+01  0.38281624625E+01 -0.29031370540E+03  0.29034144370E+03  0.00000000000E+00 0.  1.
          5    1    4    4  501    0  0.25522255682E+02  0.79272560706E+02  0.18383343980E+03  0.20186067077E+03  0.41800000000E+01 0.  1.
         -5    1    4    4    0  501  0.57784141204E+02 -0.32635105817E+02  0.28581091989E+03  0.29344405163E+03  0.41800000000E+01 0.  1.
</event>
<event>
11    1  0.8864208E-009  0.2652132E+03  0.7561462E-02  0.1016093E+00
         22   -1    0    0    0    0  0.00000000000E+00  0.00000000000E+00  0.94207478454E+03  0.94207478454E+03  0.00000000000E+00 0. -1.
         22   -1    0    0    0    0 -0.00000000000E+00 -0.00000000000E+00 -0.10120715142E+04  0.10120715142E+04  0.00000000000E+00 0.  1.
        -24    2    1    2    0    0  0.30716770069E+02 -0.64154307430E+02 -0.88462161902E+03  0.89194436531E+03  0.89163035221E+02 0.  0.
         25    2    1    2    0    0  0.20815508461E+03  0.55743274202E+02  0.46299203897E+02  0.25342805332E+03  0.12508521120E+03 0.  0.
         24    2    1    2    0    0 -0.23887185467E+03  0.84110332281E+01  0.76832568543E+03  0.80877388015E+03  0.81610795147E+02 0.  0.
        -11    1    5    5    0    0 -0.75967924326E+01  0.18167675615E+02  0.86937458399E+02  0.89139763099E+02  0.00000000000E+00 0.  1.
         12    1    5    5    0    0 -0.23127506224E+03 -0.97566423874E+01  0.68138822703E+03  0.71963411705E+03  0.00000000000E+00 0. -1.
         13    1    3    3    0    0 -0.36962404465E+01  0.12587983097E+01  0.32333022340E+00  0.39180746619E+01  0.00000000000E+00 0. -1.
        -14    1    3    3    0    0  0.34413010516E+02 -0.65413105740E+02 -0.88494494924E+03  0.88802629065E+03  0.00000000000E+00 0.  1.
          5    1    4    4  501    0  0.50956805837E+02  0.28499721002E+02 -0.41047655882E+02  0.71492745168E+02  0.41800000000E+01 0.  1.
         -5    1    4    4    0  501  0.15719827877E+03  0.27243553200E+02  0.87346859779E+02  0.18193530815E+03  0.41800000000E+01 0.  1.
</event>
<event>
11    1  0.8864208E-009  0.1384696E+03  0.7561462E-02  0.1109279E+00
         22   -1    0    0    0    0  0.00000000000E+00  0.00000000000E+00  0.39496976069E+03  0.39496976069E+03  0.00000000000E+00 0. -1.
         22   -1    0    0    0    0 -0.00000000000E+00 -0.00000000000E+00 -0.58166004783E+03  0.58166004783E+03  0.00000000000E+00 0.  1.
         24    2    1    2    0    0 -0.56683241754E+02 -0.77085461164E+01 -0.47368278421E+03  0.48408501903E+03  0.81795562347E+02 0.  0.
         25    2    1    2    0    0  0.80556018963E+02  0.31486592536E+02 -0.37296580127E+02  0.15658654310E+03  0.12509049881E+03 0.  0.
        -24    2    1    2    0    0 -0.23872777209E+02 -0.23778046419E+02  0.32428907719E+03  0.33595824639E+03  0.81050803491E+02 0.  0.
        -11    1    3    3    0    0 -0.15351022151E+02 -0.41016430498E+02 -0.15742337039E+03  0.16340171051E+03  0.00000000000E+00 0.  1.
         12    1    3    3    0    0 -0.41332219603E+02  0.33307884381E+02 -0.31625941382E+03  0.32068330853E+03  0.00000000000E+00 0. -1.
         11    1    5    5    0    0  0.29304425527E+01 -0.50091822272E+02  0.18061139532E+03  0.18745200525E+03  0.00000000000E+00 0. -1.
        -12    1    5    5    0    0 -0.26803219762E+02  0.26313775853E+02  0.14367768187E+03  0.14850624114E+03  0.00000000000E+00 0.  1.
          5    1    4    4  501    0  0.11842307147E+02  0.39403382114E+02 -0.68952378229E+02  0.80403791105E+02  0.41800000000E+01 0. -1.
         -5    1    4    4    0  501  0.68713711817E+02 -0.79167895778E+01  0.31655798102E+02  0.76182752000E+02  0.41800000000E+01 0. -1.
</event>
<event>
11    1  0.8864208E-009  0.1763460E+03  0.7561462E-02  0.1072637E+00
         22   -1    0    0    0    0  0.00000000000E+00  0.00000000000E+00  0.83748933002E+03  0.83748933002E+03  0.00000000000E+00 0.  1.
         22   -1    0    0    0    0 -0.00000000000E+00 -0.00000000000E+00 -0.13005387880E+03  0.13005387880E+03  0.00000000000E+00 0.  1.
         24    2    1    2    0    0 -0.10344802034E+02  0.10614293121E+02 -0.61363176824E+02  0.10424160005E+03  0.82952959943E+02 0.  0.
         25    2    1    2    0    0  0.12478748731E+03  0.35118526665E+02  0.17116780007E+03  0.24849923661E+03  0.12509287314E+03 0.  0.
        -24    2    1    2    0    0 -0.11444268528E+03 -0.45732819786E+02  0.59763082797E+03  0.61480237216E+03  0.75038198677E+02 0.  0.
        -11    1    3    3    0    0 -0.10638563619E+02 -0.24539566595E+02 -0.63620579177E+02  0.69014110582E+02  0.00000000000E+00 0.  1.
         12    1    3    3    0    0  0.29376158510E+00  0.35153859716E+02  0.22574023529E+01  0.35227489468E+02  0.00000000000E+00 0. -1.
         11    1    5    5    0    0 -0.19677549129E+02 -0.25192542245E+02  0.55327652569E+02  0.63898507520E+02  0.00000000000E+00 0. -1.
        -12    1    5    5    0    0 -0.94765136147E+02 -0.20540277541E+02  0.54230317540E+03  0.55090386464E+03  0.00000000000E+00 0.  1.
          5    1    4    4  501    0  0.67013944369E+02  0.35663356396E+02  0.93194104846E+01  0.76596785449E+02  0.41800000000E+01 0.  1.
         -5    1    4    4    0  501  0.57773542942E+02 -0.54482973130E+00  0.16184838958E+03  0.17190245116E+03  0.41800000000E+01 0.  1.
</event>
<event>
11    1  0.8864208E-009  0.1670371E+03  0.7561462E-02  0.1080639E+00
         22   -1    0    0    0    0  0.00000000000E+00  0.00000000000E+00  0.61320782763E+02  0.61320782763E+02  0.00000000000E+00 0.  1.
         22   -1    0    0    0    0 -0.00000000000E+00 -0.00000000000E+00 -0.25459878152E+04  0.25459878152E+04  0.00000000000E+00 0. -1.
         24    2    1    2    0    0  0.93277690698E+02  0.49812623359E+02 -0.16554864155E+04  0.16608457059E+04  0.81185972009E+02 0.  0.
         25    2    1    2    0    0 -0.11680651040E+03 -0.53035429374E+02 -0.84304593343E+03  0.86187645335E+03  0.12509219530E+03 0.  0.
        -24    2    1    2    0    0  0.23528819702E+02  0.32228060152E+01  0.13865316420E+02  0.84586438732E+02  0.79991416932E+02 0.  0.
        -13    1    3    3    0    0  0.60563712356E+02 -0.73121123930E+01 -0.54358499950E+03  0.54699733265E+03  0.00000000000E+00 0.  1.
         14    1    3    3    0    0  0.32713978341E+02  0.57124735752E+02 -0.11119014160E+04  0.11138483733E+04  0.00000000000E+00 0. -1.
         11    1    5    5    0    0  0.50174194458E+02 -0.13025078081E+02  0.12628946918E+02  0.53353469885E+02  0.00000000000E+00 0. -1.
        -12    1    5    5    0    0 -0.26645374756E+02  0.16247884096E+02  0.12363695020E+01  0.31232968847E+02  0.00000000000E+00 0.  1.
          5    1    4    4  501    0 -0.40696563814E+02  0.27996912116E+02 -0.11290474875E+03  0.12330852397E+03  0.41800000000E+01 0. -1.
         -5    1    4    4    0  501 -0.76109946586E+02 -0.81032341491E+02 -0.73014118468E+03  0.73856792937E+03  0.41800000000E+01 0. -1.
</event>
<event>
11    1  0.8864208E-009  0.1686396E+03  0.7561462E-02  0.1079222E+00
         22   -1    0    0    0    0  0.00000000000E+00  0.00000000000E+00  0.86323261074E+03  0.86323261074E+03  0.00000000000E+00 0. -1.
         22   -1    0    0    0    0 -0.00000000000E+00 -0.00000000000E+00 -0.16885452411E+04  0.16885452411E+04  0.00000000000E+00 0. -1.
         24    2    1    2    0    0  0.55454659530E+02 -0.94275676494E+02 -0.13501177158E+04  0.13569314445E+04  0.80510719139E+02 0.  0.
         25    2    1    2    0    0 -0.89010939665E+02  0.11340062113E+03 -0.30523501650E+03  0.35999741822E+03  0.12508827912E+03 0.  0.
        -24    2    1    2    0    0  0.33556280135E+02 -0.19124944637E+02  0.83004010199E+03  0.83484898916E+03  0.80712306108E+02 0.  0.
        -13    1    3    3    0    0  0.59168166290E+02 -0.21646227088E+02 -0.60283412501E+03  0.60611749135E+03  0.00000000000E+00 0.  1.
         14    1    3    3    0    0 -0.37135067605E+01 -0.72629449406E+02 -0.74728359084E+03  0.75081395311E+03  0.00000000000E+00 0. -1.
         13    1    5    5    0    0  0.42707232290E+02 -0.28080525646E+02  0.80593689549E+03  0.80755600618E+03  0.00000000000E+00 0. -1.
        -14    1    5    5    0    0 -0.91509521546E+01  0.89555810086E+01  0.24103206496E+02  0.27292982980E+02  0.00000000000E+00 0.  1.
          5    1    4    4  501    0 -0.11280432741E+03  0.70442830807E+02 -0.16882139593E+03  0.21495382020E+03  0.41800000000E+01 0. -1.
         -5    1    4    4    0  501  0.23793387742E+02  0.42957790324E+02 -0.13641362057E+03  0.14504359802E+03  0.41800000000E+01 0. -1.
</event>
<event>
11    1  0.8864208E-009  0.2533380E+03  0.7561462E-02  0.1022136E+00
         22   -1    0    0    0    0  0.00000000000E+00  0.00000000000E+00  0.40088067878E+03  0.40088067878E+03  0.00000000000E+00 0.  1.
         22   -1    0    0    0    0 -0.00000000000E+00 -0.00000000000E+00 -0.12810222500E+04  0.12810222500E+04  0.00000000000E+00 0.  1.
         24    2    1    2    0    0  0.38744282661E+01 -0.22162579659E+03 -0.12062728310E+04  0.12291078335E+04  0.80491730155E+02 0.  0.
         25    2    1    2    0    0  0.19490486335E+02  0.18580017419E+03  0.24967040761E+03  0.33598241871E+03  0.12508912606E+03 0.  0.
        -24    2    1    2    0    0 -0.23364914601E+02  0.35825622395E+02  0.76460852213E+02  0.11681267654E+03  0.77262830817E+02 0.  0.
        -11    1    3    3    0    0 -0.36806806176E+02 -0.85251204375E+02 -0.52162758825E+03  0.52982813218E+03  0.00000000000E+00 0.  1.
         12    1    3    3    0    0  0.40681234442E+02 -0.13637459221E+03 -0.68464524275E+03  0.69927970130E+03  0.00000000000E+00 0. -1.
         13    1    5    5    0    0 -0.35526996551E+01  0.39065224393E+02  0.86046744137E+02  0.94566144091E+02  0.00000000000E+00 0. -1.
        -14    1    5    5    0    0 -0.19812214946E+02 -0.32396019974E+01 -0.95858919244E+01  0.22246532453E+02  0.00000000000E+00 0.  1.
          5    1    4    4  501    0 -0.45862805555E+02  0.31909104458E+02  0.80669146474E+02  0.98216961231E+02  0.41800000000E+01 0. -1.
         -5    1    4    4    0  501  0.65353291890E+02  0.15389106973E+03  0.16900126114E+03  0.23776545748E+03  0.41800000000E+01 0. -1.
</event>
<event>
11    1  0.8864208E-009  0.1563405E+03  0.7561462E-02  0.1090571E+00
         22   -1    0    0    0    0  0.00000000000E+00  0.00000000000E+00  0.31489676588E+03  0.31489676588E+03  0.00000000000E+00 0.  1.
         22   -1    0    0    0    0 -0.00000000000E+00 -0.00000000000E+00 -0.42106718563E+03  0.42106718563E+03  0.00000000000E+00 0. -1.
        -24    2    1    2    0    0  0.98490714955E+02 -0.28847246717E+02 -0.28251370403E+03  0.31096340524E+03  0.79697313998E+02 0.  0.
         25    2    1    2    0    0 -0.96625559421E+02 -0.68408559117E+02 -0.34935258995E+02  0.17573941830E+03  0.12509053174E+03 0.  0.
         24    2    1    2    0    0 -0.18651555341E+01  0.97255805834E+02  0.21127854327E+03  0.24926112797E+03  0.89612033220E+02 0.  0.
        -11    1    5    5    0    0  0.23592474755E+02  0.72335988596E+02  0.19645775163E+03  0.21067688124E+03  0.00000000000E+00 0.  1.
         12    1    5    5    0    0 -0.25457630289E+02  0.24919817238E+02  0.14820791631E+02  0.38584246729E+02  0.00000000000E+00 0. -1.
         11    1    3    3    0    0  0.47329725420E+02  0.67004598149E+00 -0.21969945184E+03  0.22474074177E+03  0.00000000000E+00 0. -1.
        -12    1    3    3    0    0  0.51160989535E+02 -0.29517292699E+02 -0.62814252183E+02  0.86222663470E+02  0.00000000000E+00 0.  1.
          5    1    4    4  501    0 -0.20976230433E+01  0.89755865149E+01  0.33953024964E+02  0.35429387236E+02  0.41800000000E+01 0.  1.
         -5    1    4    4    0  501 -0.94527936378E+02 -0.77384145632E+02 -0.68888283960E+02  0.14031003107E+03  0.41800000000E+01 0.  1.
</event>
<event>
11    1  0.8864208E-009  0.1313399E+03  0.7561462E-02  0.1117634E+00
         22   -1    0    0    0    0  0.00000000000E+00  0.00000000000E+00  0.21061652451E+04  0.21061652451E+04  0.00000000000E+00 0.  1.
         22   -1    0    0    0    0 -0.00000000000E+00 -0.00000000000E+00 -0.40726893215E+03  0.40726893215E+03  0.00000000000E+00 0.  1.
         24    2    1    2    0    0  0.18144079154E+02 -0.50287385698E+02 -0.33906131273E+03  0.35336972649E+03  0.83961664126E+02 0.  0.
         25    2    1    2    0    0  0.14113103257E+02  0.73420334370E+02  0.29157764471E+02  0.14862042676E+03  0.12509248914E+03 0.  0.
        -24    2    1    2    0    0 -0.32257182412E+02 -0.23132948672E+02  0.20087998612E+04  0.20114440239E+04  0.95155242128E+02 0.  0.
        -13    1    3    3    0    0  0.29841092219E+02 -0.67816194277E+02 -0.29969718525E+03  0.30871982418E+03  0.00000000000E+00 0.  1.
         14    1    3    3    0    0 -0.11697013064E+02  0.17528808579E+02 -0.39364127476E+02  0.44649902315E+02  0.00000000000E+00 0. -1.
         11    1    5    5    0    0 -0.34548335240E+01 -0.77614921684E+01  0.13993640109E+02  0.16370662750E+02  0.00000000000E+00 0. -1.
        -12    1    5    5    0    0 -0.28802348888E+02 -0.15371456503E+02  0.19948062211E+04  0.19950733612E+04  0.00000000000E+00 0.  1.
          5    1    4    4  501    0  0.48558784486E+02  0.93215267112E+02  0.27084507736E+02  0.10861898790E+03  0.41800000000E+01 0. -1.
         -5    1    4    4    0  501 -0.34445681228E+02 -0.19794932742E+02  0.20732567351E+01  0.40001438862E+02  0.41800000000E+01 0. -1.
</event>
<event>
11    1  0.8864208E-009  0.1419586E+03  0.7561462E-02  0.1105391E+00
         22   -1    0    0    0    0  0.00000000000E+00  0.00000000000E+00  0.38429928657E+03  0.38429928657E+03  0.00000000000E+00 0.  1.
         22   -1    0    0    0    0 -0.00000000000E+00 -0.00000000000E+00 -0.18454611078E+04  0.18454611078E+04  0.00000000000E+00 0. -1.
        -24    2    1    2    0    0 -0.72102381866E+02  0.88464043528E+01 -0.13526884790E+04  0.13570665498E+04  0.81157174904E+02 0.  0.
         25    2    1    2    0    0  0.44362666443E+02  0.41962829514E+02 -0.47426543681E+03  0.49427064216E+03  0.12508732117E+03 0.  0.
         24    2    1    2    0    0  0.27739715422E+02 -0.50809233866E+02  0.36579209457E+03  0.37842320242E+03  0.77776562153E+02 0.  0.
        -11    1    5    5    0    0  0.54350012930E+02 -0.39806362212E+02  0.27720132991E+03  0.28527013107E+03  0.00000000000E+00 0.  1.
         12    1    5    5    0    0 -0.26610297507E+02 -0.11002871654E+02  0.88590764663E+02  0.93153071348E+02  0.00000000000E+00 0. -1.
         13    1    3    3    0    0 -0.86130813501E+02  0.17713425074E+02 -0.95735234554E+03  0.96138223198E+03  0.00000000000E+00 0. -1.
        -14    1    3    3    0    0  0.14028431635E+02 -0.88670207210E+01 -0.39533613346E+03  0.39568431782E+03  0.00000000000E+00 0.  1.
          5    1    4    4  501    0  0.75845808887E+02 -0.10326239128E+02 -0.29748158518E+03  0.30720023415E+03  0.41800000000E+01 0. -1.
         -5    1    4    4    0  501 -0.31483142443E+02  0.52289068641E+02 -0.17678385162E+03  0.18707040801E+03  0.41800000000E+01 0. -1.
</event>
<event>
11    1  0.8864208E-009  0.1301789E+03  0.7561462E-02  0.1119049E+00
         22   -1    0    0    0    0  0.00000000000E+00  0.00000000000E+00  0.36242486059E+04  0.36242486059E+04  0.00000000000E+00 0.  1.
         22   -1    0    0    0    0 -0.00000000000E+00 -0.00000000000E+00 -0.20271195122E+02  0.20271195122E+02  0.00000000000E+00 0.  1.
        -24    2    1    2    0    0 -0.11137406474E+02 -0.38785894769E+02  0.11625402490E+03  0.14689846990E+03  0.80223280283E+02 0.  0.
         25    2    1    2    0    0 -0.27210569426E+01  0.64293533540E+01  0.93248700802E+03  0.94086519077E+03  0.12508615566E+03 0.  0.
         24    2    1    2    0    0  0.13858463417E+02  0.32356541415E+02  0.25552363779E+04  0.25567561404E+04  0.80808487731E+02 0.  0.
        -13    1    5    5    0    0  0.27827840136E+02  0.42326473237E+02  0.89582214218E+03  0.89725315795E+03  0.00000000000E+00 0.  1.
         14    1    5    5    0    0 -0.13969376719E+02 -0.99699318219E+01  0.16594142357E+04  0.16595029824E+04  0.00000000000E+00 0. -1.
         11    1    3    3    0    0  0.98217221001E+00 -0.18322133384E+02  0.12122114931E+03  0.12260192606E+03  0.00000000000E+00 0. -1.
        -12    1    3    3    0    0 -0.12119578684E+02 -0.20463761385E+02 -0.49671244173E+01  0.24296543838E+02  0.00000000000E+00 0.  1.
          5    1    4    4  501    0 -0.33083496571E+02 -0.38654573516E+02  0.70860372471E+03  0.71044028945E+03  0.41800000000E+01 0.  1.
         -5    1    4    4    0  501  0.30362439629E+02  0.45083926870E+02  0.22388328330E+03  0.23042490131E+03  0.41800000000E+01 0.  1.
</event>
<event>
11    1  0.8864208E-009  0.1427357E+03  0.7561462E-02  0.1104541E+00
         22   -1    0    0    0    0  0.00000000000E+00  0.00000000000E+00  0.12295452246E+04  0.12295452246E+04  0.00000000000E+00 0.  1.
         22   -1    0    0    0    0 -0.00000000000E+00 -0.00000000000E+00 -0.81739783216E+03  0.81739783216E+03  0.00000000000E+00 0. -1.
        -24    2    1    2    0    0 -0.55782296958E+01 -0.30525461156E+01 -0.79994355488E+03  0.80412911516E+03  0.81691542788E+02 0.  0.
         25    2    1    2    0    0 -0.63716942723E+02 -0.74127246843E+01  0.40239499136E+03  0.42624394168E+03  0.12508945386E+03 0.  0.
         24    2    1    2    0    0  0.69295172418E+02  0.10465270800E+02  0.80969595592E+03  0.81656999988E+03  0.79168686096E+02 0.  0.
        -13    1    5    5    0    0  0.17657418123E+02  0.12706514335E+02  0.60694245264E+03  0.60733218319E+03  0.00000000000E+00 0.  1.
         14    1    5    5    0    0  0.51637754295E+02 -0.22412435354E+01  0.20275350328E+03  0.20923781669E+03  0.00000000000E+00 0. -1.
         13    1    3    3    0    0  0.36037107276E+01 -0.71719895426E+01 -0.78979841409E+03  0.78983919823E+03  0.00000000000E+00 0. -1.
        -14    1    3    3    0    0 -0.91819404234E+01  0.41194434270E+01 -0.10145140796E+02  0.14289916930E+02  0.00000000000E+00 0.  1.
          5    1    4    4  501    0 -0.98011166946E+02 -0.25278278510E+02  0.27626243821E+03  0.29425089189E+03  0.41800000000E+01 0.  1.
         -5    1    4    4    0  501  0.34294224224E+02  0.17865553826E+02  0.12613255315E+03  0.13199304979E+03  0.41800000000E+01 0.  1.
</event>
<event>
11    1  0.8864208E-009  0.1342799E+03  0.7561462E-02  0.1114119E+00
         22   -1    0    0    0    0  0.00000000000E+00  0.00000000000E+00  0.82881099935E+03  0.82881099935E+03  0.00000000000E+00 0. -1.
         22   -1    0    0    0    0 -0.00000000000E+00 -0.00000000000E+00 -0.33759516038E+03  0.33759516038E+03  0.00000000000E+00 0.  1.
        -24    2    1    2    0    0  0.37261469541E+02 -0.31337368401E+02 -0.31510957318E+03  0.32859706619E+03  0.79445207718E+02 0.  0.
         25    2    1    2    0    0 -0.37881367885E+02  0.47552661457E+02  0.41451569230E+03  0.43722250629E+03  0.12507600570E+03 0.  0.
         24    2    1    2    0    0  0.61989834411E+00 -0.16215293056E+02  0.39180971985E+03  0.40058658726E+03  0.81801206093E+02 0.  0.
        -11    1    5    5    0    0 -0.74204350856E+00  0.26884030751E+02  0.57168877671E+02  0.63178970490E+02  0.00000000000E+00 0.  1.
         12    1    5    5    0    0  0.13619418527E+01 -0.43099323807E+02  0.33464084218E+03  0.33740761677E+03  0.00000000000E+00 0. -1.
         13    1    3    3    0    0  0.38190985784E+01  0.73374345411E+01  0.10425893319E+01  0.83372928527E+01  0.00000000000E+00 0. -1.
        -14    1    3    3    0    0  0.33442370963E+02 -0.38674802942E+02 -0.31615216251E+03  0.32025977333E+03  0.00000000000E+00 0.  1.
          5    1    4    4  501    0 -0.67982815408E+02 -0.13791364239E+02  0.18113998001E+03  0.19401296265E+03  0.41800000000E+01 0. -1.
         -5    1    4    4    0  501  0.30101447523E+02  0.61344025696E+02  0.23337571229E+03  0.24320954364E+03  0.41800000000E+01 0. -1.
</event>
<event>
11    1  0.8864208E-009  0.1412308E+03  0.7561462E-02  0.1106192E+00
         22   -1    0    0    0    0  0.00000000000E+00  0.00000000000E+00  0.10541260345E+03  0.10541260345E+03  0.00000000000E+00 0.  1.
         22   -1    0    0    0    0 -0.00000000000E+00 -0.00000000000E+00 -0.11975962272E+04  0.11975962272E+04  0.00000000000E+00 0.  1.
        -24    2    1    2    0    0 -0.35009747663E+02 -0.25020492718E+02 -0.93829617825E+03  0.94271493965E+03  0.80374323271E+02 0.  0.
         25    2    1    2    0    0  0.52576470338E+02  0.83524658241E+02 -0.19523910538E+03  0.25199411575E+03  0.12506827069E+03 0.  0.
         24    2    1    2    0    0 -0.17566722675E+02 -0.58504165523E+02  0.41351659874E+02  0.10829977526E+03  0.79294100780E+02 0.  0.
        -11    1    5    5    0    0 -0.75705972435E+01 -0.76281050519E+02  0.20982980785E+02  0.79475770481E+02  0.00000000000E+00 0.  1.
         12    1    5    5    0    0 -0.99961254318E+01  0.17776884996E+02  0.20368679089E+02  0.28824004782E+02  0.00000000000E+00 0. -1.
         11    1    3    3    0    0 -0.27513785410E+02  0.24680400944E+02 -0.53934068008E+03  0.54060567863E+03  0.00000000000E+00 0. -1.
        -12    1    3    3    0    0 -0.74959622528E+01 -0.49700893662E+02 -0.39895549817E+03  0.40210926102E+03  0.00000000000E+00 0.  1.
          5    1    4    4  501    0  0.89910552385E+02  0.81126941866E+02 -0.15715381588E+03  0.19844465821E+03  0.41800000000E+01 0.  1.
         -5    1    4    4    0  501 -0.37334082047E+02  0.23977163752E+01 -0.38085289498E+02  0.53549457534E+02  0.41800000000E+01 0.  1.
</event>
<event>
11    1  0.8864208E-009  0.4244678E+03  0.7561462E-02  0.9580201E-01
         22   -1    0    0    0    0  0.00000000000E+00  0.00000000000E+00  0.89236121262E+03  0.89236121262E+03  0.00000000000E+00 0. -1.
         22   -1    0    0    0    0 -0.00000000000E+00 -0.00000000000E+00 -0.18776434149E+04  0.18776434149E+04  0.00000000000E+00 0. -1.
         24    2    1    2    0    0  0.39552195092E+03 -0.87761656872E+02 -0.14696498470E+04  0.15264681130E+04  0.78067312356E+02 0.  0.
         25    2    1    2    0    0 -0.42358287056E+03 -0.44327221118E+02 -0.23810337921E+03  0.50370771844E+03  0.12506356648E+03 0.  0.
        -24    2    1    2    0    0  0.28060919636E+02  0.13208887799E+03  0.72247102393E+03  0.73982879604E+03  0.84542179649E+02 0.  0.
        -11    1    3    3    0    0  0.13926541509E+03 -0.56323938188E+02 -0.64926558085E+03  0.66641806423E+03  0.00000000000E+00 0.  1.
         12    1    3    3    0    0  0.25625653583E+03 -0.31437718683E+02 -0.82038426613E+03  0.86005004879E+03  0.00000000000E+00 0. -1.
         11    1    5    5    0    0  0.41413282836E+02  0.13517603766E+03  0.59233799444E+03  0.60897612500E+03  0.00000000000E+00 0. -1.
        -12    1    5    5    0    0 -0.13352363200E+02 -0.30871596665E+01  0.13013302948E+03  0.13085267105E+03  0.00000000000E+00 0.  1.
          5    1    4    4  501    0 -0.42771761039E+03 -0.51593005182E+02 -0.24132521460E+03  0.49382134828E+03  0.41800000000E+01 0. -1.
         -5    1    4    4    0  501  0.41347398287E+01  0.72657840634E+01  0.32218353947E+01  0.98863701538E+01  0.41800000000E+01 0. -1.
</event>
<event>
11    1  0.8864208E-009  0.1821246E+03  0.7561462E-02  0.1067937E+00
         22   -1    0    0    0    0  0.00000000000E+00  0.00000000000E+00  0.34796898989E+03  0.34796898989E+03  0.00000000000E+00 0. -1.
         22   -1    0    0    0    0 -0.00000000000E+00 -0.00000000000E+00 -0.31643533838E+04  0.31643533838E+04  0.00000000000E+00 0.  1.
        -24    2    1    2    0    0 -0.92942216866E+01  0.19197142663E+02 -0.29415409590E+04  0.29426315800E+04  0.77217155364E+02 0.  0.
         25    2    1    2    0    0 -0.81135452280E+02  0.79993975773E+02 -0.16655274986E+03  0.23742740194E+03  0.12509977989E+03 0.  0.
         24    2    1    2    0    0  0.90429673966E+02 -0.99191118436E+02  0.29170931502E+03  0.33226339171E+03  0.85371149077E+02 0.  0.
        -11    1    5    5    0    0 -0.12840647646E+02 -0.34386167431E+02  0.78475656460E+02  0.86635555053E+02  0.00000000000E+00 0.  1.
         12    1    5    5    0    0  0.10327032161E+03 -0.64804951004E+02  0.21323365856E+03  0.24562783666E+03  0.00000000000E+00 0. -1.
         11    1    3    3    0    0 -0.48270569831E+00  0.44382337640E+02 -0.10968615987E+04  0.10977592594E+04  0.00000000000E+00 0. -1.
        -12    1    3    3    0    0 -0.88115159883E+01 -0.25185194977E+02 -0.18446793603E+04  0.18448723205E+04  0.00000000000E+00 0.  1.
          5    1    4    4  501    0 -0.88855970222E+02  0.64256767393E+02 -0.18277122819E+03  0.21318327761E+03  0.41800000000E+01 0. -1.
         -5    1    4    4    0  501  0.77205179425E+01  0.15737208380E+02  0.16218478330E+02  0.24244124323E+02  0.41800000000E+01 0. -1.
</event>
<event>
11    1  0.8864208E-009  0.1845964E+03  0.7561462E-02  0.1065984E+00
         22   -1    0    0    0    0  0.00000000000E+00  0.00000000000E+00  0.26597337554E+03  0.26597337554E+03  0.00000000000E+00 0.  1.
         22   -1    0    0    0    0 -0.00000000000E+00 -0.00000000000E+00 -0.21600164919E+04  0.21600164919E+04  0.00000000000E+00 0.  1.
         24    2    1    2    0    0 -0.12707589043E+03 -0.51196067133E+02 -0.17298231942E+04  0.17370556403E+04  0.79402109886E+02 0.  0.
         25    2    1    2    0    0  0.12001938368E+03  0.47676777050E+02 -0.40084450457E+03  0.43931744186E+03  0.12508305382E+03 0.  0.
        -24    2    1    2    0    0  0.70565067547E+01  0.35192900837E+01  0.23662458240E+03  0.24961678529E+03  0.79089612547E+02 0.  0.
        -13    1    3    3    0    0 -0.13002154250E+03 -0.54577124606E+02 -0.13764844217E+04  0.13836884140E+04  0.00000000000E+00 0.  1.
         14    1    3    3    0    0  0.29456520725E+01  0.33810574726E+01 -0.35333877255E+03  0.35336722627E+03  0.00000000000E+00 0. -1.
         13    1    5    5    0    0  0.14169131419E+02 -0.12779783988E+02  0.86508946109E+01  0.20950540363E+02  0.00000000000E+00 0. -1.
        -14    1    5    5    0    0 -0.71126246640E+01  0.16299074072E+02  0.22797368779E+03  0.22866624493E+03  0.00000000000E+00 0.  1.
          5    1    4    4  501    0  0.97232696088E+02  0.48114873526E+02 -0.40171807308E+03  0.41612993269E+03  0.41800000000E+01 0.  1.
         -5    1    4    4    0  501  0.22786687588E+02 -0.43809647643E+00  0.87356850614E+00  0.23187509173E+02  0.41800000000E+01 0.  1.
</event>
<event>
11    1  0.8864208E-009  0.1576964E+03  0.7561462E-02  0.1089264E+00
         22   -1    0    0    0    0  0.00000000000E+00  0.00000000000E+00  0.94701955810E+03  0.94701955810E+03  0.00000000000E+00 0. -1.
         22   -1    0    0    0    0 -0.00000000000E+00 -0.00000000000E+00 -0.78337636576E+03  0.78337636576E+03  0.00000000000E+00 0.  1.
        -24    2    1    2    0    0 -0.40943514646E+02 -0.86957861215E+02 -0.70397748638E+03  0.71520631849E+03  0.81839694934E+02 0.  0.
         25    2    1    2    0    0  0.32994699081E+02  0.89002754337E+02  0.14005741886E+02  0.15765245017E+03  0.12509194136E+03 0.  0.
         24    2    1    2    0    0  0.79488155652E+01 -0.20448931222E+01  0.85361493683E+03  0.85753715519E+03  0.81511636587E+02 0.  0.
        -13    1    5    5    0    0 -0.26438305051E+02 -0.23391386682E+01  0.11110207957E+03  0.11422840115E+03  0.00000000000E+00 0.  1.
         14    1    5    5    0    0  0.34387120617E+02  0.29424554594E+00  0.74251285726E+03  0.74330875405E+03  0.00000000000E+00 0. -1.
         13    1    3    3    0    0 -0.61846809385E+02 -0.84834674751E+02 -0.56921083457E+03  0.57881164817E+03  0.00000000000E+00 0. -1.
        -14    1    3    3    0    0  0.20903294739E+02 -0.21231864640E+01 -0.13476665181E+03  0.13639467032E+03  0.00000000000E+00 0.  1.
          5    1    4    4  501    0  0.77654196753E+02  0.79283059695E+02  0.76570249834E+01  0.11131972089E+03  0.41800000000E+01 0.  1.
         -5    1    4    4    0  501 -0.44659497672E+02  0.97196946417E+01  0.63487169026E+01  0.46332729280E+02  0.41800000000E+01 0.  1.
</event>
<event>
11    1  0.8864208E-009  0.5659282E+03  0.7561462E-02  0.9257183E-01
         22   -1    0    0    0    0  0.00000000000E+00  0.00000000000E+00  0.59947754758E+03  0.59947754758E+03  0.00000000000E+00 0.  1.
         22   -1    0    0    0    0 -0.00000000000E+00 -0.00000000000E+00 -0.77200065410E+03  0.77200065410E+03  0.00000000000E+00 0.  1.
        -24    2    1    2    0    0  0.62907739808E+02  0.58828637885E+02 -0.68723383197E+02  0.13659319744E+03  0.80725496757E+02 0.  0.
         25    2    1    2    0    0  0.26537202356E+03 -0.49829682862E+03 -0.29393808334E+03  0.64866698606E+03  0.12508885506E+03 0.  0.
         24    2    1    2    0    0 -0.32827976337E+03  0.43946819073E+03  0.19013836002E+03  0.58621801818E+03  0.81234691989E+02 0.  0.
        -13    1    5    5    0    0 -0.79054550073E+02  0.16093823280E+03  0.81764134138E+02  0.19706879584E+03  0.00000000000E+00 0.  1.
         14    1    5    5    0    0 -0.24922521330E+03  0.27852995794E+03  0.10837422589E+03  0.38914922234E+03  0.00000000000E+00 0. -1.
         13    1    3    3    0    0  0.55291664030E+02  0.13376783392E+02 -0.70358265103E+02  0.90478682094E+02  0.00000000000E+00 0. -1.
        -14    1    3    3    0    0  0.76160757777E+01  0.45451854493E+02  0.16348819057E+01  0.46114515350E+02  0.00000000000E+00 0.  1.
          5    1    4    4  501    0  0.20737159934E+03 -0.32825829134E+03 -0.25573079110E+03  0.46494321800E+03  0.41800000000E+01 0. -1.
         -5    1    4    4    0  501  0.58000424226E+02 -0.17003853727E+03 -0.38207292242E+02  0.18372376806E+03  0.41800000000E+01 0. -1.
</event>
<event>
11    1  0.8864208E-009  0.1332480E+03  0.7561462E-02  0.1115341E+00
         22   -1    0    0    0    0  0.00000000000E+00  0.00000000000E+00  0.15563722373E+03  0.15563722373E+03  0.00000000000E+00 0. -1.
         22   -1    0    0    0    0 -0.00000000000E+00 -0.00000000000E+00 -0.69936915002E+03  0.69936915002E+03  0.00000000000E+00 0.  1.
         24    2    1    2    0    0 -0.15731435135E+02  0.20914185242E+02 -0.59239422093E+03  0.59818987563E+03  0.78837384026E+02 0.  0.
         25    2    1    2    0    0  0.54975119718E+02  0.88427856294E+00 -0.24718964125E+02  0.13882800408E+03  0.12505655437E+03 0.  0.
        -24    2    1    2    0    0 -0.39243684583E+02 -0.21798463805E+02  0.73381258771E+02  0.11798849404E+03  0.80754168825E+02 0.  0.
        -13    1    3    3    0    0  0.44000386387E+01  0.17129027441E+02 -0.55710985656E+03  0.55739048808E+03  0.00000000000E+00 0.  1.
         14    1    3    3    0    0 -0.20131473774E+02  0.37851578009E+01 -0.35284364372E+02  0.40799387557E+02  0.00000000000E+00 0. -1.
         13    1    5    5    0    0 -0.19989431465E+02 -0.16671882082E+02  0.88963957306E+02  0.92693660635E+02  0.00000000000E+00 0. -1.
        -14    1    5    5    0    0 -0.19254253118E+02 -0.51265817226E+01 -0.15582698534E+02  0.25294833403E+02  0.00000000000E+00 0.  1.
          5    1    4    4  501    0  0.93543522354E+01 -0.57073946431E+01 -0.71832479345E+02  0.72783622803E+02  0.41800000000E+01 0. -1.
         -5    1    4    4    0  501  0.45620767483E+02  0.65916732060E+01  0.47113515220E+02  0.66044381274E+02  0.41800000000E+01 0. -1.
</event>
<event>
11    1  0.8864208E-009  0.1833354E+03  0.7561462E-02  0.1066976E+00
         22   -1    0    0    0    0  0.00000000000E+00  0.00000000000E+00  0.68517866898E+03  0.68517866898E+03  0.00000000000E+00 0.  1.
         22   -1    0    0    0    0 -0.00000000000E+00 -0.00000000000E+00 -0.22560055214E+03  0.22560055214E+03  0.00000000000E+00 0.  1.
         24    2    1    2    0    0  0.50924267178E+02  0.23779762705E+02 -0.15991090040E+03  0.18694499859E+03  0.78855426763E+02 0.  0.
         25    2    1    2    0    0 -0.66958606262E+02  0.11326794818E+03  0.17676891181E+03  0.25339266634E+03  0.12509001612E+03 0.  0.
        -24    2    1    2    0    0  0.16034339084E+02 -0.13704771089E+03  0.44272010542E+03  0.47044155619E+03  0.79214840530E+02 0.  0.
        -11    1    3    3    0    0  0.47703745663E+02 -0.20804405444E+02 -0.90058406572E+02  0.10401436069E+03  0.00000000000E+00 0.  1.
         12    1    3    3    0    0  0.32205215150E+01  0.44584168148E+02 -0.69852493824E+02  0.82930637896E+02  0.00000000000E+00 0. -1.
         13    1    5    5    0    0 -0.15163559658E+02 -0.49672678981E+02  0.26415708537E+03  0.26921417928E+03  0.00000000000E+00 0. -1.
        -14    1    5    5    0    0  0.31197898742E+02 -0.87375031905E+02  0.17856302005E+03  0.20122737691E+03  0.00000000000E+00 0.  1.
          5    1    4    4  501    0 -0.16177923615E+02  0.80390872438E+02  0.17433706403E+03  0.19270522016E+03  0.41800000000E+01 0. -1.
         -5    1    4    4    0  501 -0.50780682647E+02  0.32877075743E+02  0.24318477836E+01  0.60687446174E+02  0.41800000000E+01 0. -1.
</event>
<event>
11    1  0.8864208E-009  0.2528901E+03  0.7561462E-02  0.1022371E+00
         22   -1    0    0    0    0  0.00000000000E+00  0.00000000000E+00  0.75338023044E+03  0.75338023044E+03  0.00000000000E+00 0. -1.
         22   -1    0    0    0    0 -0.00000000000E+00 -0.00000000000E+00 -0.25482354519E+03  0.25482354519E+03  0.00000000000E+00 0.  1.
         24    2    1    2    0    0 -0.14686371619E+03 -0.15775363051E+03 -0.12039847542E+03  0.25943648395E+03  0.79726640754E+02 0.  0.
         25    2    1    2    0    0  0.10431335821E+03  0.23096998623E+03  0.31773004185E+03  0.42524055266E+03  0.12509491151E+03 0.  0.
        -24    2    1    2    0    0  0.42550357978E+02 -0.73216355723E+02  0.30122511882E+03  0.32352673902E+03  0.82230231350E+02 0.  0.
        -13    1    3    3    0    0 -0.22749244009E+02 -0.63766520271E+02 -0.65920755089E+02  0.94494672664E+02  0.00000000000E+00 0.  1.
         14    1    3    3    0    0 -0.12411447218E+03 -0.93987110241E+02 -0.54477720331E+02  0.16494181128E+03  0.00000000000E+00 0. -1.
         13    1    5    5    0    0  0.79005009010E+01 -0.72142752119E+02  0.25856611917E+03  0.26855806185E+03  0.00000000000E+00 0. -1.
        -14    1    5    5    0    0  0.34649857077E+02 -0.10736036034E+01  0.42658999642E+02  0.54968677177E+02  0.00000000000E+00 0.  1.
          5    1    4    4  501    0  0.13035820227E+03  0.16417167074E+03  0.25265233148E+03  0.32832342496E+03  0.41800000000E+01 0. -1.
         -5    1    4    4    0  501 -0.26044844053E+02  0.66798315493E+02  0.65077710369E+02  0.96917127699E+02  0.41800000000E+01 0. -1.
</event>
<event>
11    1  0.8864208E-009  0.1575138E+03  0.7561462E-02  0.1089439E+00
         22   -1    0    0    0    0  0.00000000000E+00  0.00000000000E+00  0.23484540372E+04  0.23484540372E+04  0.00000000000E+00 0.  1.
         22   -1    0    0    0    0 -0.00000000000E+00 -0.00000000000E+00 -0.42017841184E+03  0.42017841184E+03  0.00000000000E+00 0.  1.
         24    2    1    2    0    0 -0.53564050107E+02 -0.34086026944E+02 -0.40015036777E+03  0.41251330739E+03  0.77562537647E+02 0.  0.
         25    2    1    2    0    0  0.53611797845E+02 -0.66776910543E+02  0.48380986580E+03  0.50700354252E+03  0.12508886935E+03 0.  0.
        -24    2    1    2    0    0 -0.47747738378E-01  0.10086293749E+03  0.18446161274E+04  0.18491155992E+04  0.80290144528E+02 0.  0.
        -13    1    3    3    0    0 -0.21674821351E+02 -0.53342593448E+01 -0.32649120346E+03  0.32725335467E+03  0.00000000000E+00 0.  1.
         14    1    3    3    0    0 -0.31889228756E+02 -0.28751767599E+02 -0.73659164309E+02  0.85259952718E+02  0.00000000000E+00 0. -1.
         13    1    5    5    0    0 -0.26976840475E+02  0.55917970872E+02  0.55993414493E+03  0.56336561490E+03  0.00000000000E+00 0. -1.
        -14    1    5    5    0    0  0.26929092737E+02  0.44944966615E+02  0.12846819824E+04  0.12857499843E+04  0.00000000000E+00 0.  1.
          5    1    4    4  501    0 -0.19365521856E+02  0.90626163551E+01  0.24536021184E+03  0.24632551716E+03  0.41800000000E+01 0. -1.
         -5    1    4    4    0  501  0.72977319701E+02 -0.75839526898E+02  0.23844965396E+03  0.26067802536E+03  0.41800000000E+01 0. -1.
</event>
<event>
11    1  0.8864208E-009  0.1628173E+03  0.7561462E-02  0.1084457E+00
         22   -1    0    0    0    0  0.00000000000E+00  0.00000000000E+00  0.14322070252E+04  0.14322070252E+04  0.00000000000E+00 0. -1.
         22   -1    0    0    0    0 -0.00000000000E+00 -0.00000000000E+00 -0.21100934455E+03  0.21100934455E+03  0.00000000000E+00 0.  1.
         24    2    1    2    0    0  0.14996921381E+02  0.10407081483E+03 -0.14121330893E+03  0.19375261838E+03  0.80890273569E+02 0.  0.
         25    2    1    2    0    0  0.37532293117E+02 -0.10300099047E+03  0.12443529746E+03  0.20772562648E+03  0.12509162874E+03 0.  0.
        -24    2    1    2    0    0 -0.52529214498E+02 -0.10698243641E+01  0.12379756921E+04  0.12417381249E+04  0.81051179043E+02 0.  0.
        -13    1    3    3    0    0 -0.27652605187E+02  0.64224927663E+02 -0.10111939098E+03  0.12294160866E+03  0.00000000000E+00 0.  1.
         14    1    3    3    0    0  0.42649526569E+02  0.39845887170E+02 -0.40093917947E+02  0.70811009718E+02  0.00000000000E+00 0. -1.
         13    1    5    5    0    0 -0.42925160614E+02  0.35019123563E+02  0.55962775305E+03  0.56236298812E+03  0.00000000000E+00 0. -1.
        -14    1    5    5    0    0 -0.96040538839E+01 -0.36088947928E+02  0.67834793907E+03  0.67937513676E+03  0.00000000000E+00 0.  1.
          5    1    4    4  501    0  0.94190188765E+01 -0.74247817589E+02 -0.19973068813E+01  0.74986118503E+02  0.41800000000E+01 0.  1.
         -5    1    4    4    0  501  0.28113274240E+02 -0.28753172880E+02  0.12643260434E+03  0.13273950798E+03  0.41800000000E+01 0.  1.
</event>
<event>
11    1  0.8864208E-009  0.9043599E+03  0.7561462E-02  0.8775712E-01
         22   -1    0    0    0    0  0.00000000000E+00  0.00000000000E+00  0.11184335980E+04  0.11184335980E+04  0.00000000000E+00 0. -1.
         22   -1    0    0    0    0 -0.00000000000E+00 -0.00000000000E+00 -0.16462839315E+04  0.16462839315E+04  0.00000000000E+00 0. -1.
         24    2    1    2    0    0  0.10913029725E+03  0.64456460019E+03 -0.11024867527E+04  0.12842046331E+04  0.79571063707E+02 0.  0.
         25    2    1    2    0    0 -0.12884966986E+03 -0.93742143986E+03  0.66499168463E+03  0.11632802880E+04  0.12508355039E+03 0.  0.
        -24    2    1    2    0    0  0.19719372611E+02  0.29285683967E+03 -0.90355265486E+02  0.31723260835E+03  0.79488814295E+02 0.  0.
        -11    1    3    3    0    0  0.11911740549E+03  0.54530144570E+03 -0.91427735717E+03  0.10711889230E+04  0.00000000000E+00 0.  1.
         12    1    3    3    0    0 -0.99871082419E+01  0.99263154482E+02 -0.18820939551E+03  0.21301571005E+03  0.00000000000E+00 0. -1.
         11    1    5    5    0    0 -0.93466772146E+00  0.18720153181E+03 -0.94076926076E+02  0.20951313834E+03  0.00000000000E+00 0. -1.
        -12    1    5    5    0    0  0.20654040333E+02  0.10565530786E+03  0.37216605902E+01  0.10771947001E+03  0.00000000000E+00 0.  1.
          5    1    4    4  501    0 -0.48749139131E+02 -0.70193055917E+03  0.45705356547E+03  0.83904613852E+03  0.41800000000E+01 0. -1.
         -5    1    4    4    0  501 -0.80100530731E+02 -0.23549088069E+03  0.20793811916E+03  0.32423414951E+03  0.41800000000E+01 0. -1.
</event>
<event>
11    1  0.8864208E-009  0.1524550E+03  0.7561462E-02  0.1094396E+00
         22   -1    0    0    0    0  0.00000000000E+00  0.00000000000E+00  0.23623938984E+03  0.23623938984E+03  0.00000000000E+00 0. -1.
         22   -1    0    0    0    0 -0.00000000000E+00 -0.00000000000E+00 -0.10679420308E+04  0.10679420308E+04  0.00000000000E+00 0. -1.
         24    2    1    2    0    0  0.72435491453E+02  0.45363504592E+02 -0.90777231110E+03  0.91554112824E+03  0.82826570256E+02 0.  0.
         25    2    1    2    0    0 -0.10148645583E+03 -0.40052412214E+02 -0.99710384487E+02  0.19363327929E+03  0.12509192473E+03 0.  0.
        -24    2    1    2    0    0  0.29050964375E+02 -0.53110923784E+01  0.17578005465E+03  0.19500701308E+03  0.79100829976E+02 0.  0.
        -13    1    3    3    0    0  0.39030469370E+01  0.35397564677E+02 -0.13317871889E+03  0.13785787074E+03  0.00000000000E+00 0.  1.
         14    1    3    3    0    0  0.68532444516E+02  0.99659399155E+01 -0.77459359221E+03  0.77768325750E+03  0.00000000000E+00 0. -1.
         13    1    5    5    0    0  0.33788912600E+02 -0.74221528099E+01  0.18293075412E+03  0.18617314460E+03  0.00000000000E+00 0. -1.
        -14    1    5    5    0    0 -0.47379482252E+01  0.21110604316E+01 -0.71506994647E+01  0.88338684824E+01  0.00000000000E+00 0.  1.
          5    1    4    4  501    0 -0.11675592228E+03 -0.60405197009E+02 -0.10377043334E+03  0.16753061944E+03  0.41800000000E+01 0. -1.
         -5    1    4    4    0  501  0.15269466455E+02  0.20352784795E+02  0.40600488505E+01  0.26102659853E+02  0.41800000000E+01 0. -1.
</event>
<event>
11    1  0.8864208E-009  0.1422047E+03  0.7561462E-02  0.1105121E+00
         22   -1    0    0    0    0  0.00000000000E+00  0.00000000000E+00  0.40026325367E+02  0.40026325367E+02  0.00000000000E+00 0.  1.
         22   -1    0    0    0    0 -0.00000000000E+00 -0.00000000000E+00 -0.35699771849E+04  0.35699771849E+04  0.00000000000E+00 0.  1.
        -24    2    1    2    0    0  0.13138887378E+02 -0.11129002551E+02 -0.27583764337E+04  0.27595944888E+04  0.80154271558E+02 0.  0.
         25    2    1    2    0    0 -0.72073759014E+02 -0.20738721440E+02 -0.72340159270E+03  0.73795789963E+03  0.12508907228E+03 0.  0.
         24    2    1    2    0    0  0.58934871636E+02  0.31867723991E+02 -0.48172833074E+02  0.11245112183E+03  0.76392159467E+02 0.  0.
        -11    1    5    5    0    0  0.37810749828E+02  0.27636698230E+02  0.12160169624E+02  0.48387081095E+02  0.00000000000E+00 0.  1.
         12    1    5    5    0    0  0.21124121808E+02  0.42310257605E+01 -0.60333002698E+02  0.64064040738E+02  0.00000000000E+00 0. -1.
         11    1    3    3    0    0  0.12302053845E+02 -0.16412059447E+02 -0.17287355794E+03  0.17408608003E+03  0.00000000000E+00 0. -1.
        -12    1    3    3    0    0  0.83683353309E+00  0.52830568962E+01 -0.25855028758E+04  0.25855084088E+04  0.00000000000E+00 0.  1.
          5    1    4    4  501    0  0.74254608812E+01 -0.34799233712E+02 -0.48301736806E+03  0.48434427258E+03  0.41800000000E+01 0.  1.
         -5    1    4    4    0  501 -0.79499219895E+02  0.14060512272E+02 -0.24038422464E+03  0.25361362705E+03  0.41800000000E+01 0.  1.
</event>
<event>
11    1  0.8864208E-009  0.1497757E+03  0.7561462E-02  0.1097108E+00
         22   -1    0    0    0    0  0.00000000000E+00  0.00000000000E+00  0.20482354940E+04  0.20482354940E+04  0.00000000000E+00 0.  1.
         22   -1    0    0    0    0 -0.00000000000E+00 -0.00000000000E+00 -0.52796068819E+02  0.52796068819E+02  0.00000000000E+00 0. -1.
         24    2    1    2    0    0 -0.61873322637E+01  0.29862849374E+02  0.28586977564E+01  0.89461913283E+02  0.84054678169E+02 0.  0.
         25    2    1    2    0    0  0.59106339567E+02 -0.81712051510E+02  0.99339370246E+03  0.10063048231E+04  0.12509168675E+03 0.  0.
        -24    2    1    2    0    0 -0.52919007303E+02  0.51849202135E+02  0.99918702499E+03  0.10052648265E+04  0.81816253839E+02 0.  0.
        -13    1    3    3    0    0  0.36782165225E+02  0.23418493511E+00 -0.31771206238E+01  0.36919867506E+02  0.00000000000E+00 0.  1.
         14    1    3    3    0    0 -0.42969497489E+02  0.29628664439E+02  0.60358183801E+01  0.52542045777E+02  0.00000000000E+00 0. -1.
         11    1    5    5    0    0  0.12123248430E+02  0.10278685467E+02  0.40991903413E+02  0.43965448626E+02  0.00000000000E+00 0. -1.
        -12    1    5    5    0    0 -0.65042255733E+02  0.41570516669E+02  0.95819512158E+03  0.96129937788E+03  0.00000000000E+00 0.  1.
          5    1    4    4  501    0  0.85378577575E+02 -0.19519987910E+02  0.42874527808E+03  0.43761914642E+03  0.41800000000E+01 0. -1.
         -5    1    4    4    0  501 -0.26272238008E+02 -0.62192063599E+02  0.56464842438E+03  0.56868567664E+03  0.41800000000E+01 0. -1.
</event>
<event>
11    1  0.8864208E-009  0.1840351E+03  0.7561462E-02  0.1066425E+00
         22   -1    0    0    0    0  0.00000000000E+00  0.00000000000E+00  0.15639291694E+03  0.15639291694E+03  0.00000000000E+00 0.  1.
         22   -1    0    0    0    0 -0.00000000000E+00 -0.00000000000E+00 -0.11049439873E+04  0.11049439873E+04  0.00000000000E+00 0. -1.
        -24    2    1    2    0    0  0.14325847407E+03  0.97640976110E+01 -0.71075840340E+03  0.72928382989E+03  0.77840018859E+02 0.  0.
         25    2    1    2    0    0 -0.10598502618E+03 -0.69163330648E+02 -0.34019187819E+03  0.38392036141E+03  0.12509171768E+03 0.  0.
         24    2    1    2    0    0 -0.37273447884E+02  0.59399233037E+02  0.10239921120E+03  0.14813271298E+03  0.80871029407E+02 0.  0.
        -13    1    5    5    0    0  0.70596883853E+01  0.29633864007E+02  0.87564014632E+02  0.92711713147E+02  0.00000000000E+00 0.  1.
         14    1    5    5    0    0 -0.44333136270E+02  0.29765369030E+02  0.14835196565E+02  0.55420999830E+02  0.00000000000E+00 0. -1.
         13    1    3    3    0    0  0.10710114897E+03  0.40667798691E+02 -0.45975254803E+03  0.47381107140E+03  0.00000000000E+00 0. -1.
        -14    1    3    3    0    0  0.36157325094E+02 -0.30903701080E+02 -0.25100585537E+03  0.25547275849E+03  0.00000000000E+00 0.  1.
          5    1    4    4  501    0 -0.17373469197E+02 -0.81079629699E+02 -0.11713555741E+03  0.14357560723E+03  0.41800000000E+01 0.  1.
         -5    1    4    4    0  501 -0.88611556985E+02  0.11916299051E+02 -0.22305632079E+03  0.24034475417E+03  0.41800000000E+01 0.  1.
</event>
<event>
11    1  0.8864208E-009  0.1381741E+03  0.7561462E-02  0.1109615E+00
         22   -1    0    0    0    0  0.00000000000E+00  0.00000000000E+00  0.50095740249E+03  0.50095740249E+03  0.00000000000E+00 0.  1.
         22   -1    0    0    0    0 -0.00000000000E+00 -0.00000000000E+00 -0.58566777263E+02  0.58566777263E+02  0.00000000000E+00 0. -1.
         24    2    1    2    0    0 -0.10897102375E+02  0.55822160694E+02  0.12806268736E+03  0.16173468031E+03  0.80766295290E+02 0.  0.
         25    2    1    2    0    0 -0.13486694753E+02 -0.61792520903E+02  0.11737285527E+03  0.18279870756E+03  0.12505508289E+03 0.  0.
        -24    2    1    2    0    0  0.24383797128E+02  0.59703602090E+01  0.19695508260E+03  0.21499079189E+03  0.82459209747E+02 0.  0.
        -13    1    3    3    0    0  0.18891010349E+02 -0.12081800967E+02  0.45737961877E+02  0.50939192605E+02  0.00000000000E+00 0.  1.
         14    1    3    3    0    0 -0.29788112724E+02  0.67903961661E+02  0.82324725488E+02  0.11079548770E+03  0.00000000000E+00 0. -1.
         11    1    5    5    0    0  0.10928649702E+02 -0.14920428302E+02  0.21636878847E+01  0.18620851492E+02  0.00000000000E+00 0. -1.
        -12    1    5    5    0    0  0.13455147426E+02  0.20890788511E+02  0.19479139471E+03  0.19636994040E+03  0.00000000000E+00 0.  1.
          5    1    4    4  501    0  0.27590322359E+02 -0.59618348553E+02  0.12451123457E+03  0.14084066638E+03  0.41800000000E+01 0.  1.
         -5    1    4    4    0  501 -0.41077017112E+02 -0.21741723502E+01 -0.71383793053E+01  0.41958041176E+02  0.41800000000E+01 0.  1.
</event>
<event>
11    1  0.8864208E-009  0.1517494E+03  0.7561462E-02  0.1095105E+00
         22   -1    0    0    0    0  0.00000000000E+00  0.00000000000E+00  0.39404663915E+03  0.39404663915E+03  0.00000000000E+00 0. -1.
         22   -1    0    0    0    0 -0.00000000000E+00 -0.00000000000E+00 -0.71748424986E+03  0.71748424986E+03  0.00000000000E+00 0.  1.
        -24    2    1    2    0    0 -0.14843014869E+02 -0.89438156000E+02 -0.65415354396E+03  0.66520715127E+03  0.79775912338E+02 0.  0.
         25    2    1    2    0    0 -0.20516767156E+02  0.13866615323E+02  0.41242044757E+02  0.13402336896E+03  0.12509251143E+03 0.  0.
         24    2    1    2    0    0  0.35359782024E+02  0.75571540677E+02  0.28947388850E+03  0.31230036878E+03  0.82310487032E+02 0.  0.
        -11    1    5    5    0    0 -0.49553718183E+01  0.47513256490E+02  0.55506453877E+02  0.73232722700E+02  0.00000000000E+00 0.  1.
         12    1    5    5    0    0  0.40315153842E+02  0.28058284187E+02  0.23396743462E+03  0.23906764608E+03  0.00000000000E+00 0. -1.
         13    1    3    3    0    0 -0.17853698556E+02 -0.83233273347E+01 -0.30597156844E+02  0.36389810895E+02  0.00000000000E+00 0. -1.
        -14    1    3    3    0    0  0.30106836874E+01 -0.81114828665E+02 -0.62355638712E+03  0.62881734038E+03  0.00000000000E+00 0.  1.
          5    1    4    4  501    0  0.39727905029E+02  0.11707347343E+02  0.57928151977E+02  0.71333804128E+02  0.41800000000E+01 0.  1.
         -5    1    4    4    0  501 -0.60244672185E+02  0.21592679802E+01 -0.16686107220E+02  0.62689564834E+02  0.41800000000E+01 0.  1.
</event>
<event>
11    1  0.8864208E-009  0.1499114E+03  0.7561462E-02  0.1096969E+00
         22   -1    0    0    0    0  0.00000000000E+00  0.00000000000E+00  0.22922988541E+03  0.22922988541E+03  0.00000000000E+00 0.  1.
         22   -1    0    0    0    0 -0.00000000000E+00 -0.00000000000E+00 -0.90960837114E+03  0.90960837114E+03  0.00000000000E+00 0.  1.
        -24    2    1    2    0    0 -0.81238209918E+02  0.11208442840E+02 -0.80665973755E+03  0.81490776694E+03  0.81544224144E+02 0.  0.
         25    2    1    2    0    0  0.87904898896E+02 -0.56165811784E+02 -0.55492555953E+01  0.16294659338E+03  0.12505570117E+03 0.  0.
         24    2    1    2    0    0 -0.66666889776E+01  0.44957368943E+02  0.13183050742E+03  0.16098389623E+03  0.80442043691E+02 0.  0.
        -11    1    5    5    0    0 -0.36929139009E+02  0.49253035747E+02  0.82195614492E+02  0.10269246263E+03  0.00000000000E+00 0.  1.
         12    1    5    5    0    0  0.30262450032E+02 -0.42956668039E+01  0.49634892931E+02  0.58291433603E+02  0.00000000000E+00 0. -1.
         13    1    3    3    0    0 -0.57389191584E+02  0.62661362735E+00 -0.21068767781E+03  0.21836485417E+03  0.00000000000E+00 0. -1.
        -14    1    3    3    0    0 -0.23849018334E+02  0.10581829213E+02 -0.59597205974E+03  0.59654291277E+03  0.00000000000E+00 0.  1.
          5    1    4    4  501    0  0.54188036206E+02 -0.95977623565E+02 -0.76858079614E+01  0.11056487479E+03  0.41800000000E+01 0.  1.
         -5    1    4    4    0  501  0.33716862690E+02  0.39811811781E+02  0.21365523660E+01  0.52381718595E+02  0.41800000000E+01 0.  1.
</event>
<event>
11    1  0.8864208E-009  0.2044974E+03  0.7561462E-02  0.1051388E+00
         22   -1    0    0    0    0  0.00000000000E+00  0.00000000000E+00  0.20638699728E+04  0.20638699728E+04  0.00000000000E+00 0.  1.
         22   -1    0    0    0    0 -0.00000000000E+00 -0.00000000000E+00 -0.73544204047E+03  0.73544204047E+03  0.00000000000E+00 0. -1.
        -24    2    1    2    0    0  0.30732689745E+02 -0.12826333118E+03 -0.68808087923E+03  0.70539607029E+03  0.82050833535E+02 0.  0.
         25    2    1    2    0    0 -0.10887154074E+03  0.25098668021E+03  0.63808337560E+03  0.70544017038E+03  0.12509242075E+03 0.  0.
         24    2    1    2    0    0  0.78138850998E+02 -0.12272334904E+03  0.13784254359E+04  0.13884757726E+04  0.81495939544E+02 0.  0.
        -13    1    5    5    0    0  0.75703645951E+02 -0.78352663145E+02  0.11856334484E+04  0.11906287649E+04  0.00000000000E+00 0.  1.
         14    1    5    5    0    0  0.24352050466E+01 -0.44370685890E+02  0.19279198752E+03  0.19784700767E+03  0.00000000000E+00 0. -1.
         13    1    3    3    0    0  0.15499613673E+02 -0.49444583087E+02 -0.47286443925E+03  0.47569505225E+03  0.00000000000E+00 0. -1.
        -14    1    3    3    0    0  0.15233076072E+02 -0.78818748091E+02 -0.21521643997E+03  0.22970101805E+03  0.00000000000E+00 0.  1.
          5    1    4    4  501    0 -0.10582067300E+03  0.16306174462E+03  0.31161119176E+03  0.36729573183E+03  0.41800000000E+01 0. -1.
         -5    1    4    4    0  501 -0.30508677387E+01  0.87924935593E+02  0.32647218384E+03  0.33814443854E+03  0.41800000000E+01 0. -1.
</event>
<event>
11    1  0.8864208E-009  0.1276205E+03  0.7561462E-02  0.1122228E+00
         22   -1    0    0    0    0  0.00000000000E+00  0.00000000000E+00  0.40904365938E+03  0.40904365938E+03  0.00000000000E+00 0. -1.
         22   -1    0    0    0    0 -0.00000000000E+00 -0.00000000000E+00 -0.42114407235E+03  0.42114407235E+03  0.00000000000E+00 0.  1.
         24    2    1    2    0    0  0.79039069721E+01  0.22043864299E+02 -0.29301020668E+03  0.30476382967E+03  0.80483581912E+02 0.  0.
         25    2    1    2    0    0 -0.15878274496E+02 -0.33299328622E+02 -0.81767380684E+02  0.15393036062E+03  0.12509071304E+03 0.  0.
        -24    2    1    2    0    0  0.79743675241E+01  0.11255464323E+02  0.36267717440E+03  0.37149354143E+03  0.79261860212E+02 0.  0.
        -11    1    3    3    0    0  0.38577909178E+02 -0.92975831431E+01 -0.15177228335E+03  0.15687423664E+03  0.00000000000E+00 0.  1.
         12    1    3    3    0    0 -0.30674002206E+02  0.31341447442E+02 -0.14123792333E+03  0.14788959303E+03  0.00000000000E+00 0. -1.
         13    1    5    5    0    0 -0.33020912770E+02  0.15920907629E+02  0.21747550344E+03  0.22054353443E+03  0.00000000000E+00 0. -1.
        -14    1    5    5    0    0  0.40995280294E+02 -0.46654433065E+01  0.14520167096E+03  0.15095000701E+03  0.00000000000E+00 0.  1.
          5    1    4    4  501    0 -0.65211198846E+02 -0.44593772583E+02 -0.42998339339E+02  0.90041293827E+02  0.41800000000E+01 0. -1.
         -5    1    4    4    0  501  0.49332924350E+02  0.11294443961E+02 -0.38769041345E+02  0.63889066796E+02  0.41800000000E+01 0. -1.
</event>
<event>
11    1  0.8864208E-009  0.1414891E+03  0.7561462E-02  0.1105907E+00
         22   -1    0    0    0    0  0.00000000000E+00  0.00000000000E+00  0.21086972610E+03  0.21086972610E+03  0.00000000000E+00 0.  1.
         22   -1    0    0    0    0 -0.00000000000E+00 -0.00000000000E+00 -0.36519730975E+03  0.36519730975E+03  0.00000000000E+00 0.  1.
        -24    2    1    2    0    0 -0.13246038522E+02 -0.61857143575E+02 -0.25290931194E+03  0.27345529158E+03  0.82540369998E+02 0.  0.
         25    2    1    2    0    0  0.34818984573E+02  0.78270049661E+02 -0.24185899177E+02  0.15352670017E+03  0.12508767959E+03 0.  0.
         24    2    1    2    0    0 -0.21572946051E+02 -0.16412906086E+02  0.12276762746E+03  0.14908504411E+03  0.80122933908E+02 0.  0.
        -13    1    5    5    0    0 -0.28651851385E+02 -0.32777590314E+02  0.26041489546E+02  0.50729263668E+02  0.00000000000E+00 0.  1.
         14    1    5    5    0    0  0.70789053340E+01  0.16364684228E+02  0.96726137918E+02  0.98355780446E+02  0.00000000000E+00 0. -1.
         13    1    3    3    0    0 -0.98195221017E+00 -0.31863165102E+02 -0.18583426508E+02  0.36899447980E+02  0.00000000000E+00 0. -1.
        -14    1    3    3    0    0 -0.12264086312E+02 -0.29993978473E+02 -0.23432588543E+03  0.23655584360E+03  0.00000000000E+00 0.  1.
          5    1    4    4  501    0 -0.16082834658E+02  0.95462831041E+02 -0.78499700162E+01  0.97215760607E+02  0.41800000000E+01 0. -1.
         -5    1    4    4    0  501  0.50901819231E+02 -0.17192781380E+02 -0.16335929160E+02  0.56310939560E+02  0.41800000000E+01 0. -1.
</event>
<event>
11    1  0.8864208E-009  0.2501365E+03  0.7561462E-02  0.1023826E+00
         22   -1    0    0    0    0  0.00000000000E+00  0.00000000000E+00  0.70224591284E+03  0.70224591284E+03  0.00000000000E+00 0.  1.
         22   -1    0    0    0    0 -0.00000000000E+00 -0.00000000000E+00 -0.12426977323E+03  0.12426977323E+03  0.00000000000E+00 0.  1.
        -24    2    1    2    0    0  0.12430512974E+02  0.45127804044E+01  0.11622696593E+02  0.82335206223E+02  0.80430816656E+02 0.  0.
         25    2    1    2    0    0 -0.22146750105E+03  0.20592034136E+02  0.33242415030E+03  0.41907631412E+03  0.12508899015E+03 0.  0.
         24    2    1    2    0    0  0.20903698808E+03 -0.25104814541E+02  0.23392929271E+03  0.32510416573E+03  0.81505156219E+02 0.  0.
        -11    1    5    5    0    0  0.20538481703E+03 -0.51680842093E+01  0.21477332921E+03  0.29721577196E+03  0.00000000000E+00 0.  1.
         12    1    5    5    0    0  0.36521710497E+01 -0.19936730332E+02  0.19155963497E+02  0.27888393772E+02  0.00000000000E+00 0. -1.
         13    1    3    3    0    0  0.18542594982E+02  0.35980866517E+02 -0.12335090813E+02  0.42315541464E+02  0.00000000000E+00 0. -1.
        -14    1    3    3    0    0 -0.61120820082E+01 -0.31468086113E+02  0.23957787405E+02  0.40019664759E+02  0.00000000000E+00 0.  1.
          5    1    4    4  501    0 -0.62774507092E+02 -0.62208653059E+01  0.17841445328E+02  0.65689629906E+02  0.41800000000E+01 0. -1.
         -5    1    4    4    0  501 -0.15869299396E+03  0.26812899442E+02  0.31458270497E+03  0.35338668421E+03  0.41800000000E+01 0. -1.
</event>
<event>
11    1  0.8864208E-009  0.1350901E+03  0.7561462E-02  0.1113168E+00
         22   -1    0    0    0    0  0.00000000000E+00  0.00000000000E+00  0.11130168155E+03  0.11130168155E+03  0.00000000000E+00 0.  1.
         22   -1    0    0    0    0 -0.00000000000E+00 -0.00000000000E+00 -0.78292324485E+03  0.78292324485E+03  0.00000000000E+00 0. -1.
        -24    2    1    2    0    0 -0.17389835925E+02  0.34307746185E+01 -0.60566842165E+03  0.61105620526E+03  0.79001723933E+02 0.  0.
         25    2    1    2    0    0  0.12289652251E+02 -0.53808283575E+02 -0.11253728435E+03  0.17708370435E+03  0.12509049142E+03 0.  0.
         24    2    1    2    0    0  0.51001836748E+01  0.50377508956E+02  0.46584142704E+02  0.10608501679E+03  0.80746784168E+02 0.  0.
        -11    1    5    5    0    0  0.34232539787E+02  0.55712928231E+02  0.35925408060E+02  0.74608525629E+02  0.00000000000E+00 0.  1.
         12    1    5    5    0    0 -0.29132356112E+02 -0.53354192748E+01  0.10658734644E+02  0.31476491159E+02  0.00000000000E+00 0. -1.
         13    1    3    3    0    0  0.14681005735E+02 -0.10778204048E+02 -0.48629067197E+03  0.48663160528E+03  0.00000000000E+00 0. -1.
        -14    1    3    3    0    0 -0.32070841660E+02  0.14208978666E+02 -0.11937774968E+03  0.12442459998E+03  0.00000000000E+00 0.  1.
          5    1    4    4  501    0 -0.40108524195E+02 -0.66562410436E+02 -0.88620998229E+02  0.11794236696E+03  0.41800000000E+01 0. -1.
         -5    1    4    4    0  501  0.52398176445E+02  0.12754126861E+02 -0.23916286119E+02  0.59141337392E+02  0.41800000000E+01 0. -1.
</event>
<event>
11    1  0.8864208E-009  0.1782106E+03  0.7561462E-02  0.1071099E+00
         22   -1    0    0    0    0  0.00000000000E+00  0.00000000000E+00  0.68686114238E+02  0.68686114238E+02  0.00000000000E+00 0. -1.
         22   -1    0    0    0    0 -0.00000000000E+00 -0.00000000000E+00 -0.11090783962E+04  0.11090783962E+04  0.00000000000E+00 0.  1.
         24    2    1    2    0    0 -0.20452953574E+02 -0.95437106369E+01 -0.55737485889E+03  0.56369550256E+03  0.81095502718E+02 0.  0.
         25    2    1    2    0    0  0.54065534943E+02  0.12853570363E+03 -0.40796453263E+03  0.44891753103E+03  0.12508949037E+03 0.  0.
        -24    2    1    2    0    0 -0.33612581369E+02 -0.11899199299E+03 -0.75052890420E+02  0.16515147683E+03  0.79706799696E+02 0.  0.
        -13    1    3    3    0    0 -0.26632341558E+01 -0.37563333971E+02 -0.13914339177E+03  0.14414916007E+03  0.00000000000E+00 0.  1.
         14    1    3    3    0    0 -0.17789719418E+02  0.28019623334E+02 -0.41823146711E+03  0.41954634249E+03  0.00000000000E+00 0. -1.
         11    1    5    5    0    0 -0.36560427858E+02 -0.13031018503E+03 -0.70477949581E+02  0.15259276059E+03  0.00000000000E+00 0. -1.
        -12    1    5    5    0    0  0.29478464889E+01  0.11318192040E+02 -0.45749408397E+01  0.12558716242E+02  0.00000000000E+00 0.  1.
          5    1    4    4  501    0 -0.20405115675E+02  0.57427695413E+01 -0.65659836510E+01  0.22581689242E+02  0.41800000000E+01 0. -1.
         -5    1    4    4    0  501  0.74470650618E+02  0.12279293409E+03 -0.40139854898E+03  0.42633584179E+03  0.41800000000E+01 0. -1.
</event>
<event>
11    1  0.8864208E-009  0.2131064E+03  0.7561462E-02  0.1045624E+00
         22   -1    0    0    0    0  0.00000000000E+00  0.00000000000E+00  0.65494219590E+03  0.65494219590E+03  0.00000000000E+00 0. -1.
         22   -1    0    0    0    0 -0.00000000000E+00 -0.00000000000E+00 -0.14885244462E+04  0.14885244462E+04  0.00000000000E+00 0. -1.
        -24    2    1    2    0    0  0.10027523259E+03 -0.13332839174E+03 -0.12568600375E+04  0.12703990560E+04  0.79906354680E+02 0.  0.
         25    2    1    2    0    0 -0.12045715275E+03  0.21898835748E+03 -0.12989201325E+03  0.30819518048E+03  0.12508600164E+03 0.  0.
         24    2    1    2    0    0  0.20181920167E+02 -0.85659965737E+02  0.55316980038E+03  0.56487240560E+03  0.73068918967E+02 0.  0.
        -13    1    5    5    0    0 -0.23830243901E+02 -0.57132886104E+02  0.29266695862E+03  0.29914209979E+03  0.00000000000E+00 0.  1.
         14    1    5    5    0    0  0.44012164068E+02 -0.28527079633E+02  0.26050284176E+03  0.26573030581E+03  0.00000000000E+00 0. -1.
         13    1    3    3    0    0  0.87786181100E+02 -0.13713282338E+03 -0.99675020905E+03  0.10099617835E+04  0.00000000000E+00 0. -1.
        -14    1    3    3    0    0  0.12489051488E+02  0.38044316390E+01 -0.26010982842E+03  0.26043727257E+03  0.00000000000E+00 0.  1.
          5    1    4    4  501    0 -0.13140884892E+03  0.16135598576E+03 -0.13666256260E+03  0.24899431345E+03  0.41800000000E+01 0.  1.
         -5    1    4    4    0  501  0.10951696166E+02  0.57632371719E+02  0.67705493504E+01  0.59200867033E+02  0.41800000000E+01 0.  1.
</event>
<event>
11    1  0.8864208E-009  0.1690606E+03  0.7561462E-02  0.1078852E+00
         22   -1    0    0    0    0  0.00000000000E+00  0.00000000000E+00  0.40645717572E+03  0.40645717572E+03  0.00000000000E+00 0. -1.
         22   -1    0    0    0    0 -0.00000000000E+00 -0.00000000000E+00 -0.72586709583E+03  0.72586709583E+03  0.00000000000E+00 0.  1.
         24    2    1    2    0    0  0.20664018019E+02  0.22591819877E+02 -0.56036498566E+03  0.56696811301E+03  0.80663077310E+02 0.  0.
         25    2    1    2    0    0 -0.80709611374E+02  0.74808279060E+02 -0.10171463611E+03  0.19519566766E+03  0.12508061997E+03 0.  0.
        -24    2    1    2    0    0  0.60045593355E+02 -0.97400098937E+02  0.34266970166E+03  0.37016049088E+03  0.80647455152E+02 0.  0.
        -13    1    3    3    0    0  0.50744612334E+01  0.49856797388E+02 -0.42820154463E+03  0.43112412740E+03  0.00000000000E+00 0.  1.
         14    1    3    3    0    0  0.15589556785E+02 -0.27264977511E+02 -0.13216344104E+03  0.13584398561E+03  0.00000000000E+00 0. -1.
         11    1    5    5    0    0  0.13854476304E+02 -0.60633569942E+01  0.16046332164E+03  0.16117440368E+03  0.00000000000E+00 0. -1.
        -12    1    5    5    0    0  0.46191117051E+02 -0.91336741943E+02  0.18220638002E+03  0.20898608720E+03  0.00000000000E+00 0.  1.
          5    1    4    4  501    0 -0.61417381550E+02  0.83580377154E+02 -0.13860826241E+02  0.10472520759E+03  0.41800000000E+01 0.  1.
         -5    1    4    4    0  501 -0.19292229824E+02 -0.87720980938E+01 -0.87853809869E+02  0.90470460069E+02  0.41800000000E+01 0.  1.
</event>
<event>
11    1  0.8864208E-009  0.1659330E+03  0.7561462E-02  0.1081626E+00
         22   -1    0    0    0    0  0.00000000000E+00  0.00000000000E+00  0.60042350236E+03  0.60042350236E+03  0.00000000000E+00 0. -1.
         22   -1    0    0    0    0 -0.00000000000E+00 -0.00000000000E+00 -0.85873913241E+03  0.85873913241E+03  0.00000000000E+00 0.  1.
         24    2    1    2    0    0 -0.52654421872E+02 -0.21410824386E+02 -0.69231165325E+03  0.69983835511E+03  0.85131583541E+02 0.  0.
         25    2    1    2    0    0  0.25067783616E+02  0.12646292951E+03 -0.10215125151E+03  0.20664860534E+03  0.12508997398E+03 0.  0.
        -24    2    1    2    0    0  0.27586638256E+02 -0.10505210512E+03  0.53614727471E+03  0.55267567432E+03  0.78737115797E+02 0.  0.
        -13    1    3    3    0    0 -0.51480165175E+01 -0.17214116841E+02 -0.53856756306E+03  0.53886718946E+03  0.00000000000E+00 0.  1.
         14    1    3    3    0    0 -0.47506405354E+02 -0.41967075450E+01 -0.15374409019E+03  0.16097116565E+03  0.00000000000E+00 0. -1.
         11    1    5    5    0    0  0.52388809940E+01 -0.23111603704E+02  0.31324878375E+03  0.31414390432E+03  0.00000000000E+00 0. -1.
        -12    1    5    5    0    0  0.22347757262E+02 -0.81940501415E+02  0.22289849096E+03  0.23853177000E+03  0.00000000000E+00 0.  1.
          5    1    4    4  501    0 -0.21428315447E+01  0.14424488791E+03 -0.95916086774E+02  0.17328747075E+03  0.41800000000E+01 0. -1.
         -5    1    4    4    0  501  0.27210615160E+02 -0.17781958408E+02 -0.62351647347E+01  0.33361134596E+02  0.41800000000E+01 0. -1.
</event>
<event>
11    1  0.8864208E-009  0.1369169E+03  0.7561462E-02  0.1111051E+00
         22   -1    0    0    0    0  0.00000000000E+00  0.00000000000E+00  0.81841375655E+03  0.81841375655E+03  0.00000000000E+00 0.  1.
         22   -1    0    0    0    0 -0.00000000000E+00 -0.00000000000E+00 -0.12453326556E+03  0.12453326556E+03  0.00000000000E+00 0.  1.
        -24    2    1    2    0    0  0.18737050047E+02 -0.54781727900E+02 -0.63993192483E+02  0.11850797793E+03  0.81221286578E+02 0.  0.
         25    2    1    2    0    0 -0.50424428020E+02  0.25866762862E+02  0.12679249970E+03  0.18690925998E+03  0.12508805348E+03 0.  0.
         24    2    1    2    0    0  0.31687377973E+02  0.28914965038E+02  0.63108118378E+03  0.63752978420E+03  0.79627885130E+02 0.  0.
        -13    1    5    5    0    0  0.58287254558E+02  0.14423575126E+02  0.40430065465E+03  0.40873519902E+03  0.00000000000E+00 0.  1.
         14    1    5    5    0    0 -0.26599876585E+02  0.14491389912E+02  0.22678052913E+03  0.22879458518E+03  0.00000000000E+00 0. -1.
         13    1    3    3    0    0  0.46297789528E+02 -0.51698603857E+02 -0.32770354348E+02  0.76747163335E+02  0.00000000000E+00 0. -1.
        -14    1    3    3    0    0 -0.27560739481E+02 -0.30831240436E+01 -0.31222838136E+02  0.41760814598E+02  0.00000000000E+00 0.  1.
          5    1    4    4  501    0  0.31256426510E+02 -0.83235602923E+01  0.80601633685E+02  0.86950224881E+02  0.41800000000E+01 0. -1.
         -5    1    4    4    0  501 -0.81680854531E+02  0.34190323154E+02  0.46190866012E+02  0.99959035095E+02  0.41800000000E+01 0. -1.
</event>
<event>
11    1  0.8864208E-009  0.4674763E+03  0.7561462E-02  0.9469285E-01
         22   -1    0    0    0    0  0.00000000000E+00  0.00000000000E+00  0.29600597296E+04  0.29600597296E+04  0.00000000000E+00 0. -1.
         22   -1    0    0    0    0 -0.00000000000E+00 -0.00000000000E+00 -0.13319824195E+03  0.13319824195E+03  0.00000000000E+00 0. -1.
        -24    2    1    2    0    0 -0.82634471029E+02 -0.43712757713E+03  0.42259163338E+03  0.61879290075E+03  0.80074908179E+02 0.  0.
         25    2    1    2    0    0  0.50404615958E+02  0.47159770711E+03  0.20920478568E+04  0.21487802814E+04  0.12508972825E+03 0.  0.
         24    2    1    2    0    0  0.32229855071E+02 -0.34470129981E+02  0.31222199749E+03  0.32568478939E+03  0.79756209167E+02 0.  0.
        -11    1    5    5    0    0  0.58260704300E+02 -0.31825621899E+02  0.21631378022E+03  0.22627158767E+03  0.00000000000E+00 0.  1.
         12    1    5    5    0    0 -0.26030849229E+02 -0.26445080815E+01  0.95908217271E+02  0.99413201713E+02  0.00000000000E+00 0. -1.
         11    1    3    3    0    0 -0.50770032845E+02 -0.37693736676E+03  0.38417147528E+03  0.54059883196E+03  0.00000000000E+00 0. -1.
        -12    1    3    3    0    0 -0.31864438185E+02 -0.60190210368E+02  0.38420158102E+02  0.78194068787E+02  0.00000000000E+00 0.  1.
          5    1    4    4  501    0  0.11276899267E+02  0.10399969915E+02  0.19436183806E+02  0.25111062746E+02  0.41800000000E+01 0. -1.
         -5    1    4    4    0  501  0.39127716691E+02  0.46119773720E+03  0.20726116729E+04  0.21236692187E+04  0.41800000000E+01 0. -1.
</event>
<event>
11    1  0.8864208E-009  0.1373212E+03  0.7561462E-02  0.1110587E+00
         22   -1    0    0    0    0  0.00000000000E+00  0.00000000000E+00  0.17915962369E+03  0.17915962369E+03  0.00000000000E+00 0.  1.
         22   -1    0    0    0    0 -0.00000000000E+00 -0.00000000000E+00 -0.21275221886E+04  0.21275221886E+04  0.00000000000E+00 0.  1.
        -24    2    1    2    0    0 -0.20921632490E+02  0.52964378843E+02 -0.10147057862E+04  0.10194909827E+04  0.80567308658E+02 0.  0.
         25    2    1    2    0    0 -0.29748141993E+02 -0.78125867919E+02 -0.10908200728E+04  0.11011475811E+04  0.12509580748E+03 0.  0.
         24    2    1    2    0    0  0.50669774482E+02  0.25161489075E+02  0.15716329402E+03  0.18604324847E+03  0.81922296925E+02 0.  0.
        -11    1    5    5    0    0  0.41667466759E+02  0.25218794605E+02  0.27232997930E+02  0.55801447685E+02  0.00000000000E+00 0.  1.
         12    1    5    5    0    0  0.90023077236E+01 -0.57305530217E-01  0.12993029609E+03  0.13024180078E+03  0.00000000000E+00 0. -1.
         13    1    3    3    0    0  0.20645744396E+02  0.16875600888E+02 -0.11288230269E+03  0.11598899485E+03  0.00000000000E+00 0. -1.
        -14    1    3    3    0    0 -0.41567376886E+02  0.36088777956E+02 -0.90182348351E+03  0.90350198789E+03  0.00000000000E+00 0.  1.
          5    1    4    4  501    0  0.18100473991E+02 -0.95885667899E+02 -0.63636274482E+03  0.64381418426E+03  0.41800000000E+01 0.  1.
         -5    1    4    4    0  501 -0.47848615984E+02  0.17759799981E+02 -0.45445732795E+03  0.45733339685E+03  0.41800000000E+01 0.  1.
</event>
<event>
11    1  0.8864208E-009  0.1425379E+03  0.7561462E-02  0.1104757E+00
         22   -1    0    0    0    0  0.00000000000E+00  0.00000000000E+00  0.47808086532E+03  0.47808086532E+03  0.00000000000E+00 0.  1.
         22   -1    0    0    0    0 -0.00000000000E+00 -0.00000000000E+00 -0.91503450692E+03  0.91503450692E+03  0.00000000000E+00 0.  1.
         24    2    1    2    0    0 -0.54424087457E+02 -0.42091287590E+02 -0.76349826747E+03  0.77063674679E+03  0.78852604813E+02 0.  0.
         25    2    1    2    0    0  0.60189704502E+02  0.26514487809E+02 -0.10949479369E+03  0.17877301790E+03  0.12507942873E+03 0.  0.
        -24    2    1    2    0    0 -0.57656170444E+01  0.15576799781E+02  0.43603941956E+03  0.44370560756E+03  0.80426436826E+02 0.  0.
        -11    1    3    3    0    0 -0.11164082217E+02  0.17170545546E+02 -0.35579513074E+03  0.35638411781E+03  0.00000000000E+00 0.  1.
         12    1    3    3    0    0 -0.43260005241E+02 -0.59261833136E+02 -0.40770313673E+03  0.41425262898E+03  0.00000000000E+00 0. -1.
         13    1    5    5    0    0  0.23773042626E+02 -0.19016834517E+02  0.98011670946E+02  0.10263081990E+03  0.00000000000E+00 0. -1.
        -14    1    5    5    0    0 -0.29538659670E+02  0.34593634298E+02  0.33802774861E+03  0.34107478766E+03  0.00000000000E+00 0.  1.
          5    1    4    4  501    0 -0.28801310495E+02 -0.19046138973E+02 -0.68965122096E+01  0.35458499357E+02  0.41800000000E+01 0. -1.
         -5    1    4    4    0  501  0.88991014997E+02  0.45560626782E+02 -0.10259828148E+03  0.14331451854E+03  0.41800000000E+01 0. -1.
</event>
<event>
11    1  0.8864208E-009  0.1459215E+03  0.7561462E-02  0.1101121E+00
         22   -1    0    0    0    0  0.00000000000E+00  0.00000000000E+00  0.27092309538E+03  0.27092309538E+03  0.00000000000E+00 0. -1.
         22   -1    0    0    0    0 -0.00000000000E+00 -0.00000000000E+00 -0.19481811869E+04  0.19481811869E+04  0.00000000000E+00 0. -1.
         24    2    1    2    0    0  0.73617227709E+02 -0.15391610799E+02 -0.18462920328E+04  0.18493564641E+04  0.75290523049E+02 0.  0.
         25    2    1    2    0    0 -0.77514861851E+02 -0.18768781713E+02 -0.30846363294E+02  0.15152596021E+03  0.12509115682E+03 0.  0.
        -24    2    1    2    0    0  0.38976341418E+01  0.34160392511E+02  0.19988030459E+03  0.21822185800E+03  0.80538929567E+02 0.  0.
        -13    1    3    3    0    0  0.59455197711E+02 -0.26552548210E+01 -0.60540369781E+03  0.60832196100E+03  0.00000000000E+00 0.  1.
         14    1    3    3    0    0  0.14162029998E+02 -0.12736355978E+02 -0.12408883350E+04  0.12410345031E+04  0.00000000000E+00 0. -1.
         13    1    5    5    0    0  0.12344171817E+02  0.52180138663E+02  0.18695325595E+03  0.19449078477E+03  0.00000000000E+00 0. -1.
        -14    1    5    5    0    0 -0.84465376748E+01 -0.18019746152E+02  0.12927048640E+02  0.23731073229E+02  0.00000000000E+00 0.  1.
          5    1    4    4  501    0  0.14749965002E+02 -0.66787229419E+01  0.34094930955E+02  0.37975038177E+02  0.41800000000E+01 0. -1.
         -5    1    4    4    0  501 -0.92264826853E+02 -0.12090058771E+02 -0.64941294249E+02  0.11355092203E+03  0.41800000000E+01 0. -1.
</event>
<event>
11    1  0.8864208E-009  0.1393803E+03  0.7561462E-02  0.1108252E+00
         22   -1    0    0    0    0  0.00000000000E+00  0.00000000000E+00  0.22877022558E+04  0.22877022558E+04  0.00000000000E+00 0.  1.
         22   -1    0    0    0    0 -0.00000000000E+00 -0.00000000000E+00 -0.34775920738E+03  0.34775920738E+03  0.00000000000E+00 0. -1.
         24    2    1    2    0    0 -0.48319132331E+02 -0.15495197395E+02 -0.32865060578E+03  0.34100120855E+03  0.75470284599E+02 0.  0.
         25    2    1    2    0    0  0.62992808012E+01 -0.35489029486E+02  0.35648988920E+03  0.37951809298E+03  0.12509911927E+03 0.  0.
        -24    2    1    2    0    0  0.42019851530E+02  0.50984226881E+02  0.19121037650E+04  0.19149421617E+04  0.80607785467E+02 0.  0.
        -13    1    3    3    0    0  0.73484821171E+01  0.31048541838E+01 -0.89003968774E+00  0.80269844633E+01  0.00000000000E+00 0.  1.
         14    1    3    3    0    0 -0.55667614448E+02 -0.18600051578E+02 -0.32776056610E+03  0.33297422408E+03  0.00000000000E+00 0. -1.
         11    1    5    5    0    0  0.38766954679E+02 -0.11524224198E+02  0.89602140943E+03  0.89693369357E+03  0.00000000000E+00 0. -1.
        -12    1    5    5    0    0  0.32528968512E+01  0.62508451079E+02  0.10160823556E+04  0.10180084681E+04  0.00000000000E+00 0.  1.
          5    1    4    4  501    0 -0.22153796060E+02 -0.59833987441E+02  0.90133435217E+02  0.11050975195E+03  0.41800000000E+01 0. -1.
         -5    1    4    4    0  501  0.28453076861E+02  0.24344957955E+02  0.26635645398E+03  0.26900834102E+03  0.41800000000E+01 0. -1.
</event>
<event>
11    1  0.8864208E-009  0.1283975E+03  0.7561462E-02  0.1121254E+00
         22   -1    0    0    0    0  0.00000000000E+00  0.00000000000E+00  0.10409281403E+04  0.10409281403E+04  0.00000000000E+00 0. -1.
         22   -1    0    0    0    0 -0.00000000000E+00 -0.00000000000E+00 -0.14720991711E+04  0.14720991711E+04  0.00000000000E+00 0. -1.
         24    2    1    2    0    0  0.20813668941E+02  0.20125854501E+02 -0.14589533819E+04  0.14615325715E+04  0.81818261752E+02 0.  0.
         25    2    1    2    0    0 -0.15720804128E+02 -0.23362901163E+02  0.44207968624E+03  0.46029914505E+03  0.12509150697E+03 0.  0.
        -24    2    1    2    0    0 -0.50928648133E+01  0.32370466618E+01  0.58570266483E+03  0.59119559489E+03  0.80176081767E+02 0.  0.
        -11    1    3    3    0    0  0.47978368115E+02  0.24488106828E+02 -0.11791670369E+04  0.11803967520E+04  0.00000000000E+00 0.  1.
         12    1    3    3    0    0 -0.27164699174E+02 -0.43622523266E+01 -0.27978634504E+03  0.28113581948E+03  0.00000000000E+00 0. -1.
         13    1    5    5    0    0  0.16203494724E+02  0.18531171148E+01  0.54494211164E+03  0.54518610797E+03  0.00000000000E+00 0. -1.
        -14    1    5    5    0    0 -0.21296359537E+02  0.13839295470E+01  0.40760553192E+02  0.46009486924E+02  0.00000000000E+00 0.  1.
          5    1    4    4  501    0  0.27848235937E+02 -0.14869071832E+02  0.39182615042E+03  0.39311807144E+03  0.41800000000E+01 0.  1.
         -5    1    4    4    0  501 -0.43569040065E+02 -0.84938293310E+01  0.50253535824E+02  0.67181073612E+02  0.41800000000E+01 0.  1.
</event>
<event>
11    1  0.8864208E-009  0.1859958E+03  0.7561462E-02  0.1064894E+00
         22   -1    0    0    0    0  0.00000000000E+00  0.00000000000E+00  0.66164414323E+02  0.66164414323E+02  0.00000000000E+00 0.  1.
         22   -1    0    0    0    0 -0.00000000000E+00 -0.00000000000E+00 -0.14083137146E+04  0.14083137146E+04  0.00000000000E+00 0.  1.
         24    2    1    2    0    0 -0.12994124563E+03  0.61516908669E+02 -0.91151984366E+03  0.92631166255E+03  0.80720588634E+02 0.  0.
         25    2    1    2    0    0  0.93258232486E+02 -0.86210246378E+02 -0.42175551774E+03  0.45788022872E+03  0.12508909868E+03 0.  0.
        -24    2    1    2    0    0  0.36683013140E+02  0.24693337708E+02 -0.88739388670E+01  0.90286237632E+02  0.78214151753E+02 0.  0.
        -11    1    3    3    0    0 -0.12711291422E+03  0.75119872476E+02 -0.76383288301E+03  0.77797259680E+03  0.00000000000E+00 0.  1.
         12    1    3    3    0    0 -0.28283314043E+01 -0.13602963807E+02 -0.14768696065E+03  0.14833906575E+03  0.00000000000E+00 0. -1.
         11    1    5    5    0    0  0.55428869580E+02 -0.23584075311E+01 -0.13373180761E+02  0.57068061406E+02  0.00000000000E+00 0. -1.
        -12    1    5    5    0    0 -0.18745856440E+02  0.27051745239E+02  0.44992418938E+01  0.33218176226E+02  0.00000000000E+00 0.  1.
          5    1    4    4  501    0 -0.10752348844E+02  0.22066181597E+02 -0.95817189489E+02  0.98999674633E+02  0.41800000000E+01 0.  1.
         -5    1    4    4    0  501  0.10401058133E+03 -0.10827642797E+03 -0.32593832825E+03  0.35888055409E+03  0.41800000000E+01 0.  1.
</event>
<event>
11    1  0.8864208E-009  0.1931440E+03  0.7561462E-02  0.1059481E+00
         22   -1    0    0    0    0  0.00000000000E+00  0.00000000000E+00  0.26142493648E+03  0.26142493648E+03  0.00000000000E+00 0. -1.
         22   -1    0    0    0    0 -0.00000000000E+00 -0.00000000000E+00 -0.22973582665E+03  0.22973582665E+03  0.00000000000E+00 0. -1.
        -24    2    1    2    0    0  0.13525666414E+02  0.25631043783E+01 -0.52331862241E+02  0.94159575814E+02  0.77057697577E+02 0.  0.
         25    2    1    2    0    0 -0.14896942889E+03 -0.48699523471E+02 -0.18042902723E+02  0.20133726456E+03  0.12509042103E+03 0.  0.
         24    2    1    2    0    0  0.13544376247E+03  0.46136419093E+02  0.10206387479E+03  0.19566392275E+03  0.85986941844E+02 0.  0.
        -11    1    5    5    0    0 -0.42808988963E+01 -0.12651279693E+02  0.83257428931E+00  0.13381859107E+02  0.00000000000E+00 0.  1.
         12    1    5    5    0    0  0.13972466137E+03  0.58787698785E+02  0.10123130050E+03  0.18228206364E+03  0.00000000000E+00 0. -1.
         13    1    3    3    0    0  0.44657046331E+02  0.10768799518E+02 -0.33579988283E+02  0.56901972226E+02  0.00000000000E+00 0. -1.
        -14    1    3    3    0    0 -0.31131379916E+02 -0.82056951400E+01 -0.18751873957E+02  0.37257603588E+02  0.00000000000E+00 0.  1.
          5    1    4    4  501    0 -0.78306622743E+02 -0.56426622362E+02 -0.64639334921E+02  0.11623943778E+03  0.41800000000E+01 0. -1.
         -5    1    4    4    0  501 -0.70662806146E+02  0.77270988905E+01  0.46596432197E+02  0.85097826783E+02  0.41800000000E+01 0. -1.
</event>
<event>
11    1  0.8864208E-009  0.1376310E+03  0.7561462E-02  0.1110233E+00
         22   -1    0    0    0    0  0.00000000000E+00  0.00000000000E+00  0.14287910106E+04  0.14287910106E+04  0.00000000000E+00 0.  1.
         22   -1    0    0    0    0 -0.00000000000E+00 -0.00000000000E+00 -0.69387606931E+02  0.69387606931E+02  0.00000000000E+00 0. -1.
        -24    2    1    2    0    0  0.35463145848E+02 -0.41731516287E+01 -0.18783159605E+02  0.90219256727E+02  0.80694840552E+02 0.  0.
         25    2    1    2    0    0 -0.42128402691E+02 -0.52557384688E+02  0.39004153659E+03  0.41511118157E+03  0.12509121391E+03 0.  0.
         24    2    1    2    0    0  0.66652568424E+01  0.56730536317E+02  0.98814502670E+03  0.99284817926E+03  0.77808314844E+02 0.  0.
        -13    1    5    5    0    0  0.18007139988E+01  0.27058534454E+02  0.88486039779E+03  0.88527584991E+03  0.00000000000E+00 0.  1.
         14    1    5    5    0    0  0.48645428436E+01  0.29672001862E+02  0.10328462891E+03  0.10757232935E+03  0.00000000000E+00 0. -1.
         11    1    3    3    0    0  0.28876316469E+02  0.36679190904E+02 -0.70767908979E+01  0.47215311792E+02  0.00000000000E+00 0. -1.
        -12    1    3    3    0    0  0.65868293790E+01 -0.40852342533E+02 -0.11706368707E+02  0.43003944935E+02  0.00000000000E+00 0.  1.
          5    1    4    4  501    0 -0.53583080752E+02 -0.32105828638E+02  0.68925279537E+02  0.93113357445E+02  0.41800000000E+01 0. -1.
         -5    1    4    4    0  501  0.11454678061E+02 -0.20451556050E+02  0.32111625705E+03  0.32199782412E+03  0.41800000000E+01 0. -1.
</event>
<event>
11    1  0.8864208E-009  0.1280383E+03  0.7561462E-02  0.1121703E+00
         22   -1    0    0    0    0  0.00000000000E+00  0.00000000000E+00  0.30198193247E+04  0.30198193247E+04  0.00000000000E+00 0.  1.
         22   -1    0    0    0    0 -0.00000000000E+00 -0.00000000000E+00 -0.74771085308E+03  0.74771085308E+03  0.00000000000E+00 0. -1.
         24    2    1    2    0    0  0.74371589654E+01  0.19714887470E+02 -0.48629862862E+03  0.49345697641E+03  0.81052102049E+02 0.  0.
         25    2    1    2    0    0 -0.61891388056E+00  0.68068292321E+01 -0.24195748702E+03  0.27246433866E+03  0.12508666731E+03 0.  0.
        -24    2    1    2    0    0 -0.68182450848E+01 -0.26521716702E+02  0.30003645872E+04  0.30016088627E+04  0.81964738324E+02 0.  0.
        -11    1    3    3    0    0 -0.11760228417E+02  0.11836815699E+02 -0.17429340475E+02  0.24128719148E+02  0.00000000000E+00 0.  1.
         12    1    3    3    0    0  0.19197387383E+02  0.78780717701E+01 -0.46886928815E+03  0.46932825726E+03  0.00000000000E+00 0. -1.
         13    1    5    5    0    0  0.21884599159E+02  0.20496511737E+02  0.13237951276E+04  0.13241346542E+04  0.00000000000E+00 0. -1.
        -14    1    5    5    0    0 -0.28702844243E+02 -0.47018228438E+02  0.16765694597E+04  0.16774742085E+04  0.00000000000E+00 0.  1.
          5    1    4    4  501    0 -0.29850404613E+02  0.54797851610E+02 -0.83769763771E+02  0.10454040807E+03  0.41800000000E+01 0.  1.
         -5    1    4    4    0  501  0.29231490733E+02 -0.47991022378E+02 -0.15818772325E+03  0.16792393059E+03  0.41800000000E+01 0.  1.
</event>
<event>
11    1  0.8864208E-009  0.1408801E+03  0.7561462E-02  0.1106580E+00
         22   -1    0    0    0    0  0.00000000000E+00  0.00000000000E+00  0.23925818045E+04  0.23925818045E+04  0.00000000000E+00 0.  1.
         22   -1    0    0    0    0 -0.00000000000E+00 -0.00000000000E+00 -0.38090515141E+02  0.38090515141E+02  0.00000000000E+00 0. -1.
         24    2    1    2    0    0 -0.49614838700E+02  0.62745928951E+02  0.11409616887E+03  0.16065978362E+03  0.79968409405E+02 0.  0.
         25    2    1    2    0    0 -0.11475517935E+01 -0.37412176480E+02  0.30113469065E+03  0.32822439546E+03  0.12509262184E+03 0.  0.
        -24    2    1    2    0    0  0.50762390493E+02 -0.25333752471E+02  0.19392604299E+04  0.19417881406E+04  0.81188353709E+02 0.  0.
        -13    1    3    3    0    0 -0.66123425939E+00 -0.10854991114E+02 -0.53044743528E+01  0.12099814503E+02  0.00000000000E+00 0.  1.
         14    1    3    3    0    0 -0.48953604440E+02  0.73600920065E+02  0.11940064322E+03  0.14855996912E+03  0.00000000000E+00 0. -1.
         11    1    5    5    0    0  0.77809063473E+01  0.26997590582E+02  0.81976599196E+03  0.82024733707E+03  0.00000000000E+00 0. -1.
        -12    1    5    5    0    0  0.42981484146E+02 -0.52331343053E+02  0.11194944379E+04  0.11215408035E+04  0.00000000000E+00 0.  1.
          5    1    4    4  501    0  0.30143378641E+01 -0.37930262633E+02  0.13591281705E+02  0.40620024551E+02  0.41800000000E+01 0. -1.
         -5    1    4    4    0  501 -0.41618896576E+01  0.51808615264E+00  0.28754340895E+03  0.28760437091E+03  0.41800000000E+01 0. -1.
</event>
<event>
11    1  0.8864208E-009  0.1594666E+03  0.7561462E-02  0.1087580E+00
         22   -1    0    0    0    0  0.00000000000E+00  0.00000000000E+00  0.24336799174E+03  0.24336799174E+03  0.00000000000E+00 0.  1.
         22   -1    0    0    0    0 -0.00000000000E+00 -0.00000000000E+00 -0.63860017043E+03  0.63860017043E+03  0.00000000000E+00 0. -1.
        -24    2    1    2    0    0  0.72079065513E+02 -0.74097830794E+02 -0.46731098283E+03  0.48515528257E+03  0.79436851117E+02 0.  0.
         25    2    1    2    0    0  0.11111251178E+02  0.10765890917E+03 -0.95114888482E+02  0.19081092336E+03  0.12509222931E+03 0.  0.
         24    2    1    2    0    0 -0.83190316692E+02 -0.33561078376E+02  0.16719369263E+03  0.20600195624E+03  0.80225309896E+02 0.  0.
        -13    1    5    5    0    0  0.97765892597E+01 -0.20919978208E+02  0.55623635254E+02  0.60226372833E+02  0.00000000000E+00 0.  1.
         14    1    5    5    0    0 -0.92966905951E+02 -0.12641100167E+02  0.11157005737E+03  0.14577558341E+03  0.00000000000E+00 0. -1.
         13    1    3    3    0    0  0.42573143047E+02 -0.20806030548E+02 -0.34782357583E+03  0.35103647007E+03  0.00000000000E+00 0. -1.
        -14    1    3    3    0    0  0.29505922466E+02 -0.53291800246E+02 -0.11948740700E+03  0.13411881250E+03  0.00000000000E+00 0.  1.
          5    1    4    4  501    0  0.67129346232E+02  0.60351834890E+02 -0.39177795201E+02  0.98493985283E+02  0.41800000000E+01 0.  1.
         -5    1    4    4    0  501 -0.56018095054E+02  0.47307074280E+02 -0.55937093281E+02  0.92316938073E+02  0.41800000000E+01 0.  1.
</event>
<event>
11    1  0.8864208E-009  0.1302353E+03  0.7561462E-02  0.1118980E+00
         22   -1    0    0    0    0  0.00000000000E+00  0.00000000000E+00  0.26555679257E+03  0.26555679257E+03  0.00000000000E+00 0. -1.
         22   -1    0    0    0    0 -0.00000000000E+00 -0.00000000000E+00 -0.96234321399E+03  0.96234321399E+03  0.00000000000E+00 0. -1.
         24    2    1    2    0    0 -0.24925913066E+02 -0.92772247628E+01 -0.78852585389E+03  0.79300790971E+03  0.79882129210E+02 0.  0.
         25    2    1    2    0    0 -0.86128827148E+01 -0.75078570956E+01 -0.13930147746E+03  0.18757028037E+03  0.12508860375E+03 0.  0.
        -24    2    1    2    0    0  0.33538795781E+02  0.16785081858E+02  0.23104090993E+03  0.24732181648E+03  0.79884848704E+02 0.  0.
        -13    1    3    3    0    0 -0.28419473236E+02  0.74210368735E+01 -0.98861911231E+02  0.10313300025E+03  0.00000000000E+00 0.  1.
         14    1    3    3    0    0  0.34935601703E+01 -0.16698261636E+02 -0.68966394266E+03  0.68987490947E+03  0.00000000000E+00 0. -1.
         11    1    5    5    0    0 -0.41879833236E+01 -0.96948099849E+01  0.17245402995E+03  0.17277708468E+03  0.00000000000E+00 0. -1.
        -12    1    5    5    0    0  0.37726779104E+02  0.26479891843E+02  0.58586879972E+02  0.74544731796E+02  0.00000000000E+00 0.  1.
          5    1    4    4  501    0 -0.61431517134E+02 -0.29234412832E+02 -0.80721563179E+02  0.10565001350E+03  0.41800000000E+01 0.  1.
         -5    1    4    4    0  501  0.52818634419E+02  0.21726555736E+02 -0.58579914279E+02  0.81920266863E+02  0.41800000000E+01 0.  1.
</event>
<event>
11    1  0.8864208E-009  0.1294368E+03  0.7561462E-02  0.1119963E+00
         22   -1    0    0    0    0  0.00000000000E+00  0.00000000000E+00  0.32304035478E+03  0.32304035478E+03  0.00000000000E+00 0.  1.
         22   -1    0    0    0    0 -0.00000000000E+00 -0.00000000000E+00 -0.12687476797E+04  0.12687476797E+04  0.00000000000E+00 0.  1.
         24    2    1    2    0    0  0.15120130894E+02  0.39812838120E+02 -0.11822327414E+04  0.11857771206E+04  0.81113774537E+02 0.  0.
         25    2    1    2    0    0 -0.39486883280E+02 -0.14406189890E+02 -0.15344593305E+02  0.13285253019E+03  0.12509031128E+03 0.  0.
        -24    2    1    2    0    0  0.24366752386E+02 -0.25406648230E+02  0.25187000976E+03  0.27315838374E+03  0.99688336287E+02 0.  0.
        -11    1    3    3    0    0  0.68068063081E+01  0.16636391828E+02 -0.10946917424E+04  0.10948393092E+04  0.00000000000E+00 0.  1.
         12    1    3    3    0    0  0.83133245855E+01  0.23176446291E+02 -0.87540998983E+02  0.90937811340E+02  0.00000000000E+00 0. -1.
         13    1    5    5    0    0 -0.26567569129E+02 -0.43022705007E+02  0.10098599647E+03  0.11293786061E+03  0.00000000000E+00 0. -1.
        -14    1    5    5    0    0  0.50934321515E+02  0.17616056777E+02  0.15088401329E+03  0.16022052313E+03  0.00000000000E+00 0.  1.
          5    1    4    4  501    0  0.23116463795E+02  0.16461763430E+02 -0.47812698582E+02  0.55757395019E+02  0.41800000000E+01 0.  1.
         -5    1    4    4    0  501 -0.62603347074E+02 -0.30867953319E+02  0.32468105278E+02  0.77095135173E+02  0.41800000000E+01 0.  1.
</event>
<event>
11    1  0.8864208E-009  0.1855047E+03  0.7561462E-02  0.1065275E+00
         22   -1    0    0    0    0  0.00000000000E+00  0.00000000000E+00  0.20496561630E+03  0.20496561630E+03  0.00000000000E+00 0. -1.
         22   -1    0    0    0    0 -0.00000000000E+00 -0.00000000000E+00 -0.27084111349E+04  0.27084111349E+04  0.00000000000E+00 0. -1.
         24    2    1    2    0    0  0.11096438728E+03 -0.78637979993E+02 -0.23539145348E+04  0.23592534360E+04  0.81646254335E+02 0.  0.
         25    2    1    2    0    0 -0.12223274863E+03  0.81692247294E+02 -0.31533012637E+03  0.36972282447E+03  0.12508960882E+03 0.  0.
        -24    2    1    2    0    0  0.11268361354E+02 -0.30542673002E+01  0.16579914257E+03  0.18440049076E+03  0.79861635330E+02 0.  0.
        -11    1    3    3    0    0  0.41273074189E+02  0.13145336553E+02 -0.67465627263E+03  0.67604537771E+03  0.00000000000E+00 0.  1.
         12    1    3    3    0    0  0.69691313088E+02 -0.91783316547E+02 -0.16792582622E+04  0.16832080583E+04  0.00000000000E+00 0. -1.
         11    1    5    5    0    0  0.12066196013E+01  0.17715137464E+02  0.15948998962E+03  0.16047535268E+03  0.00000000000E+00 0. -1.
        -12    1    5    5    0    0  0.10061741753E+02 -0.20769404764E+02  0.63091529501E+01  0.23925138083E+02  0.00000000000E+00 0.  1.
          5    1    4    4  501    0 -0.61944264190E+02  0.10996749573E+03 -0.20323255788E+03  0.23927157575E+03  0.41800000000E+01 0. -1.
         -5    1    4    4    0  501 -0.60288484442E+02 -0.28275248436E+02 -0.11209756849E+03  0.13045124872E+03  0.41800000000E+01 0. -1.
</event>
<event>
11    1  0.8864208E-009  0.1477957E+03  0.7561462E-02  0.1099153E+00
         22   -1    0    0    0    0  0.00000000000E+00  0.00000000000E+00  0.54758056945E+03  0.54758056945E+03  0.00000000000E+00 0.  1.
         22   -1    0    0    0    0 -0.00000000000E+00 -0.00000000000E+00 -0.10402173518E+04  0.10402173518E+04  0.00000000000E+00 0.  1.
         24    2    1    2    0    0 -0.18197149743E+02  0.23150662713E+02 -0.82356413180E+03  0.82773699279E+03  0.77611600912E+02 0.  0.
         25    2    1    2    0    0  0.95254113747E+02 -0.90579339919E+01 -0.17890745457E+03  0.23834898168E+03  0.12508783879E+03 0.  0.
        -24    2    1    2    0    0 -0.77056964004E+02 -0.14092728722E+02  0.50983480408E+03  0.52171194674E+03  0.78201324870E+02 0.  0.
        -13    1    3    3    0    0 -0.25460645916E+01  0.37331985309E+02 -0.75652098219E+03  0.75744581064E+03  0.00000000000E+00 0.  1.
         14    1    3    3    0    0 -0.15651085152E+02 -0.14181322596E+02 -0.67043149616E+02  0.70291182146E+02  0.00000000000E+00 0. -1.
         11    1    5    5    0    0 -0.68292938590E+02  0.11876773240E+02  0.22188409625E+03  0.23245975000E+03  0.00000000000E+00 0. -1.
        -12    1    5    5    0    0 -0.87640254138E+01 -0.25969501962E+02  0.28795070783E+03  0.28925219673E+03  0.00000000000E+00 0.  1.
          5    1    4    4  501    0  0.99518796168E+02  0.24049420680E+02 -0.17716313626E+03  0.20466219650E+03  0.41800000000E+01 0. -1.
         -5    1    4    4    0  501 -0.42646824211E+01 -0.33107354671E+02 -0.17443183123E+01  0.33686785182E+02  0.41800000000E+01 0. -1.
</event>
<event>
11    1  0.8864208E-009  0.1523685E+03  0.7561462E-02  0.1094483E+00
         22   -1    0    0    0    0  0.00000000000E+00  0.00000000000E+00  0.22195918571E+03  0.22195918571E+03  0.00000000000E+00 0. -1.
         22   -1    0    0    0    0 -0.00000000000E+00 -0.00000000000E+00 -0.19872477703E+03  0.19872477703E+03  0.00000000000E+00 0.  1.
         24    2    1    2    0    0 -0.57193906163E+02 -0.64407183814E+02 -0.51520641348E+02  0.12906698048E+03  0.81144813366E+02 0.  0.
         25    2    1    2    0    0  0.10723215384E+03  0.11147929418E+02  0.11523847841E+02  0.16553971945E+03  0.12509032137E+03 0.  0.
        -24    2    1    2    0    0 -0.50038247682E+02  0.53259254397E+02  0.63231202194E+02  0.12607726281E+03  0.80974791486E+02 0.  0.
        -11    1    3    3    0    0 -0.74585642229E+02 -0.61992276567E+02 -0.54512990133E+02  0.11125523122E+03  0.00000000000E+00 0.  1.
         12    1    3    3    0    0  0.17391736067E+02 -0.24149072477E+01  0.29923487851E+01  0.17811749259E+02  0.00000000000E+00 0. -1.
         11    1    5    5    0    0 -0.68639023555E+02  0.50768377813E+02  0.35204730892E+02  0.92347803534E+02  0.00000000000E+00 0. -1.
        -12    1    5    5    0    0  0.18600775874E+02  0.24908765839E+01  0.28026471302E+02  0.33729459273E+02  0.00000000000E+00 0.  1.
          5    1    4    4  501    0  0.18322848681E+02  0.56832582195E+02 -0.15643333250E+02  0.61869665087E+02  0.41800000000E+01 0. -1.
         -5    1    4    4    0  501  0.88909305163E+02 -0.45684652778E+02  0.27167181091E+02  0.10367005437E+03  0.41800000000E+01 0. -1.
</event>
<event>
11    1  0.8864208E-009  0.1353395E+03  0.7561462E-02  0.1112877E+00
         22   -1    0    0    0    0  0.00000000000E+00  0.00000000000E+00  0.25639351129E+03  0.25639351129E+03  0.00000000000E+00 0.  1.
         22   -1    0    0    0    0 -0.00000000000E+00 -0.00000000000E+00 -0.50234065207E+03  0.50234065207E+03  0.00000000000E+00 0. -1.
         24    2    1    2    0    0 -0.53800367323E+02 -0.17138125809E+02 -0.36663619989E+03  0.38139419616E+03  0.88607194487E+02 0.  0.
         25    2    1    2    0    0  0.35823971286E+02 -0.35769232142E+02 -0.77885454146E+02  0.15580482000E+03  0.12508478357E+03 0.  0.
        -24    2    1    2    0    0  0.17976396036E+02  0.52907357951E+02  0.19857451325E+03  0.22153514720E+03  0.80769083151E+02 0.  0.
        -11    1    3    3    0    0 -0.14052572476E+02  0.13612917923E+02 -0.11447320492E+02  0.22667762881E+02  0.00000000000E+00 0.  1.
         12    1    3    3    0    0 -0.39747794847E+02 -0.30751043732E+02 -0.35518887939E+03  0.35872643328E+03  0.00000000000E+00 0. -1.
         13    1    5    5    0    0 -0.19678423458E+02 -0.18494823719E+01  0.10452014960E+03  0.10637256510E+03  0.00000000000E+00 0. -1.
        -14    1    5    5    0    0  0.37654819495E+02  0.54756840323E+02  0.94054363652E+02  0.11516258210E+03  0.00000000000E+00 0.  1.
          5    1    4    4  501    0  0.54558758196E+02  0.32161464349E+02 -0.45769460798E+02  0.78251733698E+02  0.41800000000E+01 0. -1.
         -5    1    4    4    0  501 -0.18734786909E+02 -0.67930696491E+02 -0.32115993348E+02  0.77553086302E+02  0.41800000000E+01 0. -1.
</event>
<event>
11    1  0.8864208E-009  0.1550597E+03  0.7561462E-02  0.1091818E+00
         22   -1    0    0    0    0  0.00000000000E+00  0.00000000000E+00  0.70695064705E+03  0.70695064705E+03  0.00000000000E+00 0. -1.
         22   -1    0    0    0    0 -0.00000000000E+00 -0.00000000000E+00 -0.20257618651E+03  0.20257618651E+03  0.00000000000E+00 0.  1.
         24    2    1    2    0    0 -0.66047286553E+02 -0.61951694245E+02 -0.14306340171E+03  0.18545200806E+03  0.75664085952E+02 0.  0.
         25    2    1    2    0    0  0.10717674352E+03  0.33675310394E+02  0.17770867971E+03  0.24463809164E+03  0.12508613094E+03 0.  0.
        -24    2    1    2    0    0 -0.41129456964E+02  0.28276383851E+02  0.46972918254E+03  0.47943673387E+03  0.81993235950E+02 0.  0.
        -13    1    3    3    0    0 -0.77942274988E+02 -0.64183250009E+02 -0.10568717038E+03  0.14616520036E+03  0.00000000000E+00 0.  1.
         14    1    3    3    0    0  0.11894988434E+02  0.22315557635E+01 -0.37376231333E+02  0.39286807705E+02  0.00000000000E+00 0. -1.
         11    1    5    5    0    0 -0.40283521732E+02 -0.21512067312E+01  0.41379171882E+03  0.41575350435E+03  0.00000000000E+00 0. -1.
        -12    1    5    5    0    0 -0.84593523265E+00  0.30427590582E+02  0.55937463717E+02  0.63683229520E+02  0.00000000000E+00 0.  1.
          5    1    4    4  501    0  0.97990026346E+02  0.23883087526E+02  0.19665097512E+03  0.22104643302E+03  0.41800000000E+01 0. -1.
         -5    1    4    4    0  501  0.91867171721E+01  0.97922228686E+01 -0.18942295410E+02  0.23591658621E+02  0.41800000000E+01 0. -1.
</event>
<event>
11    1  0.8864208E-009  0.1423792E+03  0.7561462E-02  0.1104930E+00
         22   -1    0    0    0    0  0.00000000000E+00  0.00000000000E+00  0.42957631624E+04  0.42957631624E+04  0.00000000000E+00 0. -1.
         22   -1    0    0    0    0 -0.00000000000E+00 -0.00000000000E+00 -0.11881473125E+03  0.11881473125E+03  0.00000000000E+00 0.  1.
         24    2    1    2    0    0  0.56364624267E+02  0.37518450172E+02 -0.88064765076E+02  0.14077815367E+03  0.86478209579E+02 0.  0.
         25    2    1    2    0    0 -0.73005337706E+02 -0.42890562018E+02  0.15113870816E+04  0.15189168722E+04  0.12509266444E+03 0.  0.
        -24    2    1    2    0    0  0.16640713439E+02  0.53721118462E+01  0.27536261147E+04  0.27548828678E+04  0.81345330770E+02 0.  0.
        -11    1    3    3    0    0  0.16942093793E+02  0.44652289688E+01 -0.87595359404E+02  0.89330396847E+02  0.00000000000E+00 0.  1.
         12    1    3    3    0    0  0.39422530474E+02  0.33053221203E+02 -0.46940567263E+00  0.51447756827E+02  0.00000000000E+00 0. -1.
         11    1    5    5    0    0  0.49581976065E+02  0.48544009126E+00  0.17631130520E+04  0.17638101491E+04  0.00000000000E+00 0. -1.
        -12    1    5    5    0    0 -0.32941262626E+02  0.48866717550E+01  0.99051306271E+03  0.99107271870E+03  0.00000000000E+00 0.  1.
          5    1    4    4  501    0 -0.48451904977E+02  0.24927443192E+02  0.27253847093E+03  0.27796340596E+03  0.41800000000E+01 0. -1.
         -5    1    4    4    0  501 -0.24553432729E+02 -0.67818005210E+02  0.12388486106E+04  0.12409534662E+04  0.41800000000E+01 0. -1.
</event>
<event>
11    1  0.8864208E-009  0.1340101E+03  0.7561462E-02  0.1114438E+00
         22   -1    0    0    0    0  0.00000000000E+00  0.00000000000E+00  0.54264780979E+03  0.54264780979E+03  0.00000000000E+00 0. -1.
         22   -1    0    0    0    0 -0.00000000000E+00 -0.00000000000E+00 -0.13923178286E+04  0.13923178286E+04  0.00000000000E+00 0. -1.
        -24    2    1    2    0    0  0.15734045871E+02  0.15548871141E+02 -0.11790672145E+04  0.11819841637E+04  0.79985869076E+02 0.  0.
         25    2    1    2    0    0 -0.53203099280E+02 -0.44941701551E+02 -0.18285350256E+03  0.23223780305E+03  0.12509463401E+03 0.  0.
         24    2    1    2    0    0  0.37469053409E+02  0.29392830410E+02  0.51225069831E+03  0.52074367162E+03  0.80655596013E+02 0.  0.
        -11    1    5    5    0    0  0.48055968410E+02  0.65933565725E+00  0.15739342822E+03  0.16456762157E+03  0.00000000000E+00 0.  1.
         12    1    5    5    0    0 -0.10586915001E+02  0.28733494752E+02  0.35485727009E+03  0.35617605004E+03  0.00000000000E+00 0. -1.
         13    1    3    3    0    0 -0.15507650009E+02 -0.26057515862E+02 -0.36606625779E+03  0.36732000549E+03  0.00000000000E+00 0. -1.
        -14    1    3    3    0    0  0.31241695879E+02  0.41606387004E+02 -0.81300095671E+03  0.81466415818E+03  0.00000000000E+00 0.  1.
          5    1    4    4  501    0  0.16153963802E+02 -0.67900340584E+02 -0.85553766206E+02  0.11049129427E+03  0.41800000000E+01 0.  1.
         -5    1    4    4    0  501 -0.69357063082E+02  0.22958639033E+02 -0.97299736356E+02  0.12174650878E+03  0.41800000000E+01 0.  1.
</event>
<event>
11    1  0.8864208E-009  0.1406495E+03  0.7561462E-02  0.1106835E+00
         22   -1    0    0    0    0  0.00000000000E+00  0.00000000000E+00  0.99918098889E+03  0.99918098889E+03  0.00000000000E+00 0. -1.
         22   -1    0    0    0    0 -0.00000000000E+00 -0.00000000000E+00 -0.24805542099E+04  0.24805542099E+04  0.00000000000E+00 0.  1.
        -24    2    1    2    0    0 -0.47361162981E+02 -0.42834523699E+02 -0.23621557263E+04  0.23644055155E+04  0.80968451764E+02 0.  0.
         25    2    1    2    0    0  0.72819471753E+02  0.44708698636E+02 -0.65681912172E+02  0.16511458868E+03  0.12508865100E+03 0.  0.
         24    2    1    2    0    0 -0.25458308771E+02 -0.18741749370E+01  0.94646441742E+03  0.95021509467E+03  0.80387776933E+02 0.  0.
        -13    1    5    5    0    0 -0.11956396764E+02  0.34458589716E+02  0.24710190178E+03  0.24977930197E+03  0.00000000000E+00 0.  1.
         14    1    5    5    0    0 -0.13501912007E+02 -0.36332764653E+02  0.69936251564E+03  0.70043579270E+03  0.00000000000E+00 0. -1.
         11    1    3    3    0    0  0.86846855811E+01 -0.20506411650E+01 -0.32050335973E+02  0.33269399285E+02  0.00000000000E+00 0. -1.
        -12    1    3    3    0    0 -0.56045848562E+02 -0.40783882534E+02 -0.23301053903E+04  0.23311361162E+04  0.00000000000E+00 0.  1.
          5    1    4    4  501    0  0.55472909615E+02  0.55840579281E+02 -0.98488234989E+02  0.12614602184E+03  0.41800000000E+01 0. -1.
         -5    1    4    4    0  501  0.17346562137E+02 -0.11131880646E+02  0.32806322816E+02  0.38968566838E+02  0.41800000000E+01 0. -1.
</event>
<event>
11    1  0.8864208E-009  0.1350197E+03  0.7561462E-02  0.1113251E+00
         22   -1    0    0    0    0  0.00000000000E+00  0.00000000000E+00  0.79138326023E+03  0.79138326023E+03  0.00000000000E+00 0.  1.
         22   -1    0    0    0    0 -0.00000000000E+00 -0.00000000000E+00 -0.92929058642E+03  0.92929058642E+03  0.00000000000E+00 0. -1.
         24    2    1    2    0    0  0.34261995044E+01  0.50387484125E+02 -0.87217208064E+03  0.87727925124E+03  0.79900619550E+02 0.  0.
         25    2    1    2    0    0 -0.30366020917E+02 -0.60919412211E+02  0.45650595894E+02  0.14954805508E+03  0.12508946343E+03 0.  0.
        -24    2    1    2    0    0  0.26939821412E+02  0.10531928086E+02  0.68861415855E+03  0.69384654033E+03  0.79980539427E+02 0.  0.
        -13    1    3    3    0    0  0.28747433376E+02  0.95434148709E+01 -0.12711960594E+03  0.13067855948E+03  0.00000000000E+00 0.  1.
         14    1    3    3    0    0 -0.25321233871E+02  0.40844069254E+02 -0.74505247470E+03  0.74660069176E+03  0.00000000000E+00 0. -1.
         11    1    5    5    0    0 -0.25204354916E+02  0.12476168676E+02  0.14274131739E+03  0.14548538752E+03  0.00000000000E+00 0. -1.
        -12    1    5    5    0    0  0.52144176328E+02 -0.19442405900E+01  0.54587284116E+03  0.54836115282E+03  0.00000000000E+00 0.  1.
          5    1    4    4  501    0 -0.62317641603E+00  0.18560052031E+02  0.60385439866E+02  0.63314592537E+02  0.41800000000E+01 0.  1.
         -5    1    4    4    0  501 -0.29742844501E+02 -0.79479464242E+02 -0.14734843972E+02  0.86233462543E+02  0.41800000000E+01 0.  1.
</event>
<event>
11    1  0.8864208E-009  0.1445734E+03  0.7561462E-02  0.1102556E+00
         22   -1    0    0    0    0  0.00000000000E+00  0.00000000000E+00  0.14429298773E+03  0.14429298773E+03  0.00000000000E+00 0.  1.
         22   -1    0    0    0    0 -0.00000000000E+00 -0.00000000000E+00 -0.41626198612E+03  0.41626198612E+03  0.00000000000E+00 0. -1.
        -24    2    1    2    0    0  0.13787079123E+02  0.97860364909E+01 -0.29746415107E+03  0.30876134679E+03  0.81011098242E+02 0.  0.
         25    2    1    2    0    0  0.12374205069E+01 -0.78178139105E+02 -0.10893554849E+01  0.14751874749E+03  0.12508893446E+03 0.  0.
         24    2    1    2    0    0 -0.15024499629E+02  0.68392102614E+02  0.26584508164E+02  0.10427487956E+03  0.72548598496E+02 0.  0.
        -11    1    5    5    0    0 -0.30767914686E+02  0.63427994155E+02  0.41688140195E+02  0.81900403232E+02  0.00000000000E+00 0.  1.
         12    1    5    5    0    0  0.15743415056E+02  0.49641084594E+01 -0.15103632031E+02  0.22374476328E+02  0.00000000000E+00 0. -1.
         11    1    3    3    0    0  0.41980446594E+02 -0.14639954892E+02 -0.18520545119E+03  0.19046717651E+03  0.00000000000E+00 0. -1.
        -12    1    3    3    0    0 -0.28193367471E+02  0.24425991383E+02 -0.11225869988E+03  0.11829417029E+03  0.00000000000E+00 0.  1.
          5    1    4    4  501    0 -0.24960393056E+02 -0.29033476385E+02  0.55797576655E+02  0.67799748768E+02  0.41800000000E+01 0.  1.
         -5    1    4    4    0  501  0.26197813563E+02 -0.49144662721E+02 -0.56886932140E+02  0.79718998725E+02  0.41800000000E+01 0.  1.
</event>
<event>
11    1  0.8864208E-009  0.1269512E+03  0.7561462E-02  0.1123073E+00
         22   -1    0    0    0    0  0.00000000000E+00  0.00000000000E+00  0.28164522295E+03  0.28164522295E+03  0.00000000000E+00 0.  1.
         22   -1    0    0    0    0 -0.00000000000E+00 -0.00000000000E+00 -0.69214957085E+03  0.69214957085E+03  0.00000000000E+00 0. -1.
        -24    2    1    2    0    0  0.52042469591E+01  0.21854250131E+02 -0.41502791021E+03  0.42606779822E+03  0.93706509871E+02 0.  0.
         25    2    1    2    0    0 -0.41662604043E+02  0.50555197610E+00 -0.24695373246E+03  0.27994463906E+03  0.12508727675E+03 0.  0.
         24    2    1    2    0    0  0.36458357084E+02 -0.22359802107E+02  0.25147729478E+03  0.26778235652E+03  0.81470167077E+02 0.  0.
        -13    1    5    5    0    0  0.39673631680E+02 -0.17421970822E+02  0.25644219013E+03  0.26007714047E+03  0.00000000000E+00 0.  1.
         14    1    5    5    0    0 -0.32152745961E+01 -0.49378312847E+01 -0.49648953505E+01  0.77052160493E+01  0.00000000000E+00 0. -1.
         13    1    3    3    0    0 -0.32801234822E+02  0.50531508039E+01 -0.32749644284E+03  0.32917377692E+03  0.00000000000E+00 0. -1.
        -14    1    3    3    0    0  0.38005481781E+02  0.16801099327E+02 -0.87531467377E+02  0.96894021307E+02  0.00000000000E+00 0.  1.
          5    1    4    4  501    0 -0.51442427247E+02 -0.59736799072E+01 -0.25807186429E+03  0.26325000989E+03  0.41800000000E+01 0.  1.
         -5    1    4    4    0  501  0.97798232037E+01  0.64792318833E+01  0.11118131826E+02  0.16694629166E+02  0.41800000000E+01 0.  1.
</event>
<event>
11    1  0.8864208E-009  0.2746063E+03  0.7561462E-02  0.1011551E+00
         22   -1    0    0    0    0  0.00000000000E+00  0.00000000000E+00  0.11870351450E+04  0.11870351450E+04  0.00000000000E+00 0.  1.
         22   -1    0    0    0    0 -0.00000000000E+00 -0.00000000000E+00 -0.29804078031E+03  0.29804078031E+03  0.00000000000E+00 0. -1.
         24    2    1    2    0    0 -0.30443915248E+02 -0.22324837843E+03 -0.12098368946E+03  0.26812029898E+03  0.80528076848E+02 0.  0.
         25    2    1    2    0    0 -0.50997112789E+02  0.34753905869E+03  0.27569518189E+03  0.46372234047E+03  0.12508586212E+03 0.  0.
        -24    2    1    2    0    0  0.81441028036E+02 -0.12429068026E+03  0.73428287224E+03  0.75323328584E+03  0.78155180146E+02 0.  0.
        -11    1    3    3    0    0  0.22634709472E+02 -0.10793818348E+03 -0.38862591522E+02  0.11693281210E+03  0.00000000000E+00 0.  1.
         12    1    3    3    0    0 -0.53078624720E+02 -0.11531019495E+03 -0.82121097934E+02  0.15118748687E+03  0.00000000000E+00 0. -1.
         11    1    5    5    0    0  0.28900415544E+01 -0.56097333662E+02  0.15922107593E+03  0.16883901861E+03  0.00000000000E+00 0. -1.
        -12    1    5    5    0    0  0.78550986482E+02 -0.68193346601E+02  0.57506179631E+03  0.58439426723E+03  0.00000000000E+00 0.  1.
          5    1    4    4  501    0 -0.75655101766E+02  0.22722882791E+03  0.12797317647E+03  0.27157179705E+03  0.41800000000E+01 0. -1.
         -5    1    4    4    0  501  0.24657988977E+02  0.12031023079E+03  0.14772200542E+03  0.19215054342E+03  0.41800000000E+01 0. -1.
</event>
<event>
11    1  0.8864208E-009  0.3204505E+03  0.7561462E-02  0.9918893E-01
         22   -1    0    0    0    0  0.00000000000E+00  0.00000000000E+00  0.12091124364E+04  0.12091124364E+04  0.00000000000E+00 0. -1.
         22   -1    0    0    0    0 -0.00000000000E+00 -0.00000000000E+00 -0.13443879531E+03  0.13443879531E+03  0.00000000000E+00 0. -1.
        -24    2    1    2    0    0 -0.34990829973E-02  0.84935585878E+02  0.43767455844E+02  0.12401033192E+03  0.79050101027E+02 0.  0.
         25    2    1    2    0    0  0.12445347040E+03  0.21325761374E+03  0.25780180474E+03  0.37825508414E+03  0.12509061528E+03 0.  0.
         24    2    1    2    0    0 -0.12444997132E+03 -0.29819319962E+03  0.77310438053E+03  0.84128581568E+03  0.75262612243E+02 0.  0.
        -13    1    5    5    0    0 -0.49094247180E+01 -0.22246155445E+02  0.19838415178E+02  0.30208551768E+02  0.00000000000E+00 0.  1.
         14    1    5    5    0    0 -0.11954054660E+03 -0.27594704418E+03  0.75326596535E+03  0.81107726391E+03  0.00000000000E+00 0. -1.
         11    1    3    3    0    0  0.33111045482E+02  0.72584469936E+02  0.23050983694E+02  0.83043328799E+02  0.00000000000E+00 0. -1.
        -12    1    3    3    0    0 -0.33114544565E+02  0.12351115942E+02  0.20716472151E+02  0.40967003126E+02  0.00000000000E+00 0.  1.
          5    1    4    4  501    0  0.55586133455E+01  0.12551915432E+03  0.89875739172E+02  0.15453503543E+03  0.41800000000E+01 0. -1.
         -5    1    4    4    0  501  0.11889485706E+03  0.87738459429E+02  0.16792606557E+03  0.22372004871E+03  0.41800000000E+01 0. -1.
</event>
<event>
11    1  0.8864208E-009  0.1682827E+03  0.7561462E-02  0.1079536E+00
         22   -1    0    0    0    0  0.00000000000E+00  0.00000000000E+00  0.40319865463E+03  0.40319865463E+03  0.00000000000E+00 0.  1.
         22   -1    0    0    0    0 -0.00000000000E+00 -0.00000000000E+00 -0.37192636074E+03  0.37192636074E+03  0.00000000000E+00 0. -1.
         24    2    1    2    0    0  0.23072678946E+02  0.85551072384E+02 -0.27342690234E+03  0.29887194336E+03  0.81919674723E+02 0.  0.
         25    2    1    2    0    0 -0.89554749249E+02 -0.15427393071E+03  0.10852613594E+03  0.24340589789E+03  0.12509200669E+03 0.  0.
        -24    2    1    2    0    0  0.66482070303E+02  0.68722858328E+02  0.19617306030E+03  0.23284717412E+03  0.81186451947E+02 0.  0.
        -11    1    3    3    0    0  0.21866712740E+02  0.30415228769E+02 -0.26560712114E+02  0.45920700072E+02  0.00000000000E+00 0.  1.
         12    1    3    3    0    0  0.12059662059E+01  0.55135843615E+02 -0.24686619023E+03  0.25295124329E+03  0.00000000000E+00 0. -1.
         11    1    5    5    0    0 -0.93646255467E+01 -0.11268148746E+02  0.16616419229E+02  0.22153391970E+02  0.00000000000E+00 0. -1.
        -12    1    5    5    0    0  0.75846695849E+02  0.79991007074E+02  0.17955664107E+03  0.21069378215E+03  0.00000000000E+00 0.  1.
          5    1    4    4  501    0 -0.78775511301E+02 -0.16732767692E+03  0.12180282171E+03  0.22148935058E+03  0.41800000000E+01 0. -1.
         -5    1    4    4    0  501 -0.10779237947E+02  0.13053746209E+02 -0.13276685776E+02  0.21916547310E+02  0.41800000000E+01 0. -1.
</event>
<event>
11    1  0.8864208E-009  0.1389672E+03  0.7561462E-02  0.1108717E+00
         22   -1    0    0    0    0  0.00000000000E+00  0.00000000000E+00  0.31886650737E+03  0.31886650737E+03  0.00000000000E+00 0. -1.
         22   -1    0    0    0    0 -0.00000000000E+00 -0.00000000000E+00 -0.86305342253E+03  0.86305342253E+03  0.00000000000E+00 0. -1.
         24    2    1    2    0    0 -0.38842306421E+02 -0.41067708654E+02 -0.70577807231E+03  0.71162326388E+03  0.71342139573E+02 0.  0.
         25    2    1    2    0    0  0.83417330253E+02  0.37504289360E+00 -0.10484071037E+03  0.18329486643E+03  0.12508733695E+03 0.  0.
        -24    2    1    2    0    0 -0.44575023832E+02  0.40692665761E+02  0.26643186751E+03  0.28700179959E+03  0.87984471036E+02 0.  0.
        -13    1    3    3    0    0 -0.50643477867E+02 -0.58115864235E+01 -0.31711568931E+03  0.32118670084E+03  0.00000000000E+00 0.  1.
         14    1    3    3    0    0  0.11801171446E+02 -0.35256122231E+02 -0.38866238300E+03  0.39043656304E+03  0.00000000000E+00 0. -1.
         11    1    5    5    0    0 -0.54097944763E+02  0.52670560397E+02  0.25939311111E+03  0.27015840104E+03  0.00000000000E+00 0. -1.
        -12    1    5    5    0    0  0.95229209317E+01 -0.11977894636E+02  0.70387564027E+01  0.16843398549E+02  0.00000000000E+00 0.  1.
          5    1    4    4  501    0  0.16665515778E+02 -0.37572487306E+02 -0.97687622380E+02  0.10606495738E+03  0.41800000000E+01 0.  1.
         -5    1    4    4    0  501  0.66751814475E+02  0.37947530200E+02 -0.71530879889E+01  0.77229909049E+02  0.41800000000E+01 0.  1.
</event>
<event>
11    1  0.8864208E-009  0.1340442E+03  0.7561462E-02  0.1114397E+00
         22   -1    0    0    0    0  0.00000000000E+00  0.00000000000E+00  0.38560263849E+03  0.38560263849E+03  0.00000000000E+00 0. -1.
         22   -1    0    0    0    0 -0.00000000000E+00 -0.00000000000E+00 -0.15015005525E+04  0.15015005525E+04  0.00000000000E+00 0. -1.
         24    2    1    2    0    0  0.12629658241E+02 -0.34091219004E+01 -0.13668706061E+04  0.13694718599E+04  0.83347410059E+02 0.  0.
         25    2    1    2    0    0  0.11304208061E+02 -0.38887088632E+02 -0.93072242788E+02  0.16108988909E+03  0.12509004440E+03 0.  0.
        -24    2    1    2    0    0 -0.23933866302E+02  0.42296210532E+02  0.34404493490E+03  0.35654144200E+03  0.79956758639E+02 0.  0.
        -11    1    3    3    0    0  0.12041969371E+02 -0.11184039741E+02 -0.51091814334E+02  0.53669966119E+02  0.00000000000E+00 0.  1.
         12    1    3    3    0    0  0.58768886982E+00  0.77749178406E+01 -0.13157787918E+04  0.13158018937E+04  0.00000000000E+00 0. -1.
         11    1    5    5    0    0 -0.40638150897E+02  0.45606716303E+02  0.32621817070E+03  0.33188812389E+03  0.00000000000E+00 0. -1.
        -12    1    5    5    0    0  0.16704284595E+02 -0.33105057714E+01  0.17826764197E+02  0.24653318114E+02  0.00000000000E+00 0.  1.
          5    1    4    4  501    0  0.36328743181E+02 -0.71977033540E+02 -0.31358243804E+02  0.86609946269E+02  0.41800000000E+01 0.  1.
         -5    1    4    4    0  501 -0.25024535120E+02  0.33089944908E+02 -0.61713998984E+02  0.74479942821E+02  0.41800000000E+01 0.  1.
</event>
<event>
11    1  0.8864208E-009  0.1387448E+03  0.7561462E-02  0.1108968E+00
         22   -1    0    0    0    0  0.00000000000E+00  0.00000000000E+00  0.11164946067E+04  0.11164946067E+04  0.00000000000E+00 0. -1.
         22   -1    0    0    0    0 -0.00000000000E+00 -0.00000000000E+00 -0.59847406492E+03  0.59847406492E+03  0.00000000000E+00 0. -1.
         24    2    1    2    0    0  0.50231559470E+02 -0.71200121664E+02 -0.42807216833E+03  0.44481132053E+03  0.83777459229E+02 0.  0.
         25    2    1    2    0    0 -0.91525585739E+02  0.11208269009E+03 -0.10067258878E+03  0.21615136788E+03  0.12508789487E+03 0.  0.
        -24    2    1    2    0    0  0.41294026270E+02 -0.40882568426E+02  0.10467652989E+04  0.10540059832E+04  0.10878621544E+03 0.  0.
        -13    1    3    3    0    0 -0.19073541738E+02  0.23813018580E+00 -0.10626562574E+03  0.10796406770E+03  0.00000000000E+00 0.  1.
         14    1    3    3    0    0  0.69305101207E+02 -0.71438251850E+02 -0.32180654259E+03  0.33684725283E+03  0.00000000000E+00 0. -1.
         11    1    5    5    0    0  0.68060962392E+02  0.64533935394E+01  0.53143140883E+03  0.53581086512E+03  0.00000000000E+00 0. -1.
        -12    1    5    5    0    0 -0.26766936122E+02 -0.47335961966E+02  0.51533389009E+03  0.51819511812E+03  0.00000000000E+00 0.  1.
          5    1    4    4  501    0 -0.11893042939E+03  0.10824828114E+03 -0.97187416607E+02  0.18794947127E+03  0.41800000000E+01 0. -1.
         -5    1    4    4    0  501  0.27404843647E+02  0.38344089456E+01 -0.34851721737E+01  0.28201896610E+02  0.41800000000E+01 0. -1.
</event>
<event>
11    1  0.8864208E-009  0.1772220E+03  0.7561462E-02  0.1071912E+00
         22   -1    0    0    0    0  0.00000000000E+00  0.00000000000E+00  0.10530625418E+04  0.10530625418E+04  0.00000000000E+00 0.  1.
         22   -1    0    0    0    0 -0.00000000000E+00 -0.00000000000E+00 -0.35732580091E+03  0.35732580091E+03  0.00000000000E+00 0. -1.
        -24    2    1    2    0    0 -0.54563911494E+02  0.10571898847E+03 -0.22750368700E+03  0.26853596790E+03  0.78739529451E+02 0.  0.
         25    2    1    2    0    0  0.10480348219E+03 -0.12092047917E+03 -0.10349293467E+02  0.20336466159E+03  0.12507815776E+03 0.  0.
         24    2    1    2    0    0 -0.50239570696E+02  0.15201490696E+02  0.93358972136E+03  0.93848771323E+03  0.80089451707E+02 0.  0.
        -13    1    5    5    0    0 -0.54511803142E+01 -0.26357275010E+02  0.48629503530E+03  0.48703930300E+03  0.00000000000E+00 0.  1.
         14    1    5    5    0    0 -0.44788390381E+02  0.41558765706E+02  0.44729468606E+03  0.45144841023E+03  0.00000000000E+00 0. -1.
         13    1    3    3    0    0 -0.19943714770E+02  0.10165121462E+03 -0.19533338882E+03  0.22110145631E+03  0.00000000000E+00 0. -1.
        -14    1    3    3    0    0 -0.34620196724E+02  0.40677738465E+01 -0.32170298179E+02  0.47434511595E+02  0.00000000000E+00 0.  1.
          5    1    4    4  501    0  0.56292834112E+02 -0.13592268393E+03  0.12129741177E+02  0.14767688445E+03  0.41800000000E+01 0. -1.
         -5    1    4    4    0  501  0.48510648078E+02  0.15002204763E+02 -0.22479034644E+02  0.55687777144E+02  0.41800000000E+01 0. -1.
</event>
<event>
11    1  0.8864208E-009  0.1424265E+03  0.7561462E-02  0.1104879E+00
         22   -1    0    0    0    0  0.00000000000E+00  0.00000000000E+00  0.63362255045E+03  0.63362255045E+03  0.00000000000E+00 0. -1.
         22   -1    0    0    0    0 -0.00000000000E+00 -0.00000000000E+00 -0.14070141236E+04  0.14070141236E+04  0.00000000000E+00 0. -1.
         24    2    1    2    0    0  0.65400894294E+02  0.14951641811E+02 -0.12715287839E+04  0.12755678452E+04  0.76072668186E+02 0.  0.
         25    2    1    2    0    0 -0.96986364821E+02  0.11987262304E+02 -0.81322442238E+02  0.17835981249E+03  0.12509529839E+03 0.  0.
        -24    2    1    2    0    0  0.31585470527E+02 -0.26938904115E+02  0.57945965299E+03  0.58670901636E+03  0.82040440796E+02 0.  0.
        -11    1    3    3    0    0  0.28643687598E+02  0.43622519503E+01 -0.12164455475E+03  0.12504754208E+03  0.00000000000E+00 0.  1.
         12    1    3    3    0    0  0.36757206696E+02  0.10589389861E+02 -0.11498842292E+04  0.11505203031E+04  0.00000000000E+00 0. -1.
         11    1    5    5    0    0  0.45957773526E+02 -0.11426288841E+02  0.16371179328E+03  0.17042367289E+03  0.00000000000E+00 0. -1.
        -12    1    5    5    0    0 -0.14372302999E+02 -0.15512615274E+02  0.41574785971E+03  0.41628534346E+03  0.00000000000E+00 0.  1.
          5    1    4    4  501    0 -0.34326650445E+02  0.31176452157E+02  0.25412570649E+02  0.53043013177E+02  0.41800000000E+01 0. -1.
         -5    1    4    4    0  501 -0.62659714376E+02 -0.19189189853E+02 -0.10673501289E+03  0.12531679931E+03  0.41800000000E+01 0. -1.
</event>
<event>
11    1  0.8864208E-009  0.1531571E+03  0.7561462E-02  0.1093696E+00
         22   -1    0    0    0    0  0.00000000000E+00  0.00000000000E+00  0.86726677627E+03  0.86726677627E+03  0.00000000000E+00 0.  1.
         22   -1    0    0    0    0 -0.00000000000E+00 -0.00000000000E+00 -0.21771058288E+03  0.21771058288E+03  0.00000000000E+00 0.  1.
         24    2    1    2    0    0  0.80289293789E+01 -0.69998991134E+02 -0.51093291228E+02  0.11812431012E+03  0.79865548052E+02 0.  0.
         25    2    1    2    0    0  0.80029924989E+02  0.77717143586E+02 -0.73420683888E+02  0.18298652970E+03  0.12509488371E+03 0.  0.
        -24    2    1    2    0    0 -0.88058854368E+02 -0.77181524521E+01  0.77407016851E+03  0.78386651933E+03  0.86302738316E+02 0.  0.
        -13    1    3    3    0    0  0.10207290304E+02 -0.64676214400E+02 -0.71483451017E+02  0.96938564327E+02  0.00000000000E+00 0.  1.
         14    1    3    3    0    0 -0.21783609255E+01 -0.53227767337E+01  0.20390159789E+02  0.21185745791E+02  0.00000000000E+00 0. -1.
         13    1    5    5    0    0 -0.58014497968E+02 -0.25964726554E+02  0.22879365088E+03  0.23745817249E+03  0.00000000000E+00 0. -1.
        -14    1    5    5    0    0 -0.30044356400E+02  0.18246574102E+02  0.54527651763E+03  0.54640834684E+03  0.00000000000E+00 0.  1.
          5    1    4    4  501    0 -0.21544623123E+02  0.59134990569E+02 -0.17388169706E+02  0.65428883078E+02  0.41800000000E+01 0. -1.
         -5    1    4    4    0  501  0.10157454811E+03  0.18582153017E+02 -0.56032514183E+02  0.11755764663E+03  0.41800000000E+01 0. -1.
</event>
<event>
11    1  0.8864208E-009  0.1446263E+03  0.7561462E-02  0.1102500E+00
         22   -1    0    0    0    0  0.00000000000E+00  0.00000000000E+00  0.31768851095E+03  0.31768851095E+03  0.00000000000E+00 0.  1.
         22   -1    0    0    0    0 -0.00000000000E+00 -0.00000000000E+00 -0.99292060146E+03  0.99292060146E+03  0.00000000000E+00 0. -1.
         24    2    1    2    0    0 -0.13157987908E+02  0.33621163425E+02 -0.75518365792E+03  0.76029148899E+03  0.80232635291E+02 0.  0.
         25    2    1    2    0    0 -0.28940183121E+02  0.27368162750E+02 -0.20583330416E+03  0.24413552652E+03  0.12509298812E+03 0.  0.
        -24    2    1    2    0    0  0.42098171029E+02 -0.60989326175E+02  0.28578487157E+03  0.30618209690E+03  0.81132790747E+02 0.  0.
        -11    1    3    3    0    0 -0.31582673805E+01  0.32071523094E+02 -0.10072959489E+03  0.10575920071E+03  0.00000000000E+00 0.  1.
         12    1    3    3    0    0 -0.99997205274E+01  0.15496403309E+01 -0.65445406302E+03  0.65453228828E+03  0.00000000000E+00 0. -1.
         11    1    5    5    0    0 -0.16063504824E+02 -0.11991987007E+02  0.14308562862E+03  0.14448301304E+03  0.00000000000E+00 0. -1.
        -12    1    5    5    0    0  0.58161675853E+02 -0.48997339168E+02  0.14269924295E+03  0.16169908386E+03  0.00000000000E+00 0.  1.
          5    1    4    4  501    0  0.21259779870E+02 -0.12327530909E+02 -0.16765360526E+03  0.16949675518E+03  0.41800000000E+01 0. -1.
         -5    1    4    4    0  501 -0.50199962991E+02  0.39695693659E+02 -0.38179698897E+02  0.74638771341E+02  0.41800000000E+01 0. -1.
</event>
<event>
11    1  0.8864208E-009  0.1464051E+03  0.7561462E-02  0.1100610E+00
         22   -1    0    0    0    0  0.00000000000E+00  0.00000000000E+00  0.10319483366E+04  0.10319483366E+04  0.00000000000E+00 0. -1.
         22   -1    0    0    0    0 -0.00000000000E+00 -0.00000000000E+00 -0.23556349550E+03  0.23556349550E+03  0.00000000000E+00 0.  1.
         24    2    1    2    0    0  0.18501549575E+02 -0.74270076038E+02 -0.20020681569E+03  0.22957150258E+03  0.82231102494E+02 0.  0.
         25    2    1    2    0    0  0.31498362282E+02  0.75091266954E+02  0.30277552305E+03  0.33756619170E+03  0.12508825372E+03 0.  0.
        -24    2    1    2    0    0 -0.49999911856E+02 -0.82119091668E+00  0.69381613370E+03  0.70037413777E+03  0.81501165286E+02 0.  0.
        -11    1    3    3    0    0 -0.28540954447E+02 -0.71697454690E+01 -0.40437785211E+02  0.50012056583E+02  0.00000000000E+00 0.  1.
         12    1    3    3    0    0  0.47042504022E+02 -0.67100330569E+02 -0.15976903048E+03  0.17955944600E+03  0.00000000000E+00 0. -1.
         13    1    5    5    0    0 -0.56851982590E+02 -0.24815299430E+02  0.60332416995E+03  0.60650474117E+03  0.00000000000E+00 0. -1.
        -14    1    5    5    0    0  0.68520707335E+01  0.23994108514E+02  0.90491963745E+02  0.93869396606E+02  0.00000000000E+00 0.  1.
          5    1    4    4  501    0  0.69786766983E+02  0.41699572689E+02  0.25508977899E+03  0.26776354298E+03  0.41800000000E+01 0.  1.
         -5    1    4    4    0  501 -0.38288404701E+02  0.33391694266E+02  0.47685744064E+02  0.69802648714E+02  0.41800000000E+01 0.  1.
</event>
<event>
11    1  0.8864208E-009  0.1328318E+03  0.7561462E-02  0.1115838E+00
         22   -1    0    0    0    0  0.00000000000E+00  0.00000000000E+00  0.39447454321E+03  0.39447454321E+03  0.00000000000E+00 0.  1.
         22   -1    0    0    0    0 -0.00000000000E+00 -0.00000000000E+00 -0.58378468251E+03  0.58378468251E+03  0.00000000000E+00 0.  1.
        -24    2    1    2    0    0  0.24451978674E+02  0.18677569474E+02 -0.30627984808E+03  0.31768205708E+03  0.78535299003E+02 0.  0.
         25    2    1    2    0    0  0.18709675928E+02 -0.45041383257E+01 -0.24973974647E+03  0.27997786353E+03  0.12508926360E+03 0.  0.
         24    2    1    2    0    0 -0.43161654602E+02 -0.14173431148E+02  0.36670945525E+03  0.38059930511E+03  0.91193157104E+02 0.  0.
        -11    1    5    5    0    0 -0.68831895814E+02 -0.24990828808E+02  0.28565020034E+03  0.29488711122E+03  0.00000000000E+00 0.  1.
         12    1    5    5    0    0  0.25670241212E+02  0.10817397660E+02  0.81059254905E+02  0.85712193892E+02  0.00000000000E+00 0. -1.
         11    1    3    3    0    0  0.31414044351E+02  0.20228441556E+02 -0.56118081163E+02  0.67418625495E+02  0.00000000000E+00 0. -1.
        -12    1    3    3    0    0 -0.69620656768E+01 -0.15508720819E+01 -0.25016176692E+03  0.25026343159E+03  0.00000000000E+00 0.  1.
          5    1    4    4  501    0 -0.26931566288E+02  0.10970820477E+02 -0.22256021684E+03  0.22449095903E+03  0.41800000000E+01 0.  1.
         -5    1    4    4    0  501  0.45641242216E+02 -0.15474958803E+02 -0.27179529627E+02  0.55486904506E+02  0.41800000000E+01 0.  1.
</event>
<event>
11    1  0.8864208E-009  0.1359512E+03  0.7561462E-02  0.1112166E+00
         22   -1    0    0    0    0  0.00000000000E+00  0.00000000000E+00  0.15811082868E+04  0.15811082868E+04  0.00000000000E+00 0. -1.
         22   -1    0    0    0    0 -0.00000000000E+00 -0.00000000000E+00 -0.82834125332E+03  0.82834125332E+03  0.00000000000E+00 0.  1.
        -24    2    1    2    0    0  0.24524942267E+02  0.13478666186E+02 -0.76895736179E+03  0.77428852378E+03  0.86279467850E+02 0.  0.
         25    2    1    2    0    0  0.26167748628E+02 -0.31396061501E+02  0.23399314746E+02  0.13366147272E+03  0.12508955837E+03 0.  0.
         24    2    1    2    0    0 -0.50692690895E+02  0.17917395315E+02  0.14983250805E+04  0.15014995436E+04  0.81437402821E+02 0.  0.
        -11    1    5    5    0    0  0.11169061749E+01 -0.60542016933E+01  0.80635863032E+01  0.10145060947E+02  0.00000000000E+00 0.  1.
         12    1    5    5    0    0 -0.51809597069E+02  0.23971597009E+02  0.14902614942E+04  0.14913544826E+04  0.00000000000E+00 0. -1.
         13    1    3    3    0    0  0.14369046047E+02  0.14333938533E+02 -0.36524937367E+02  0.41785192686E+02  0.00000000000E+00 0. -1.
        -14    1    3    3    0    0  0.10155896220E+02 -0.85527234690E+00 -0.73243242442E+03  0.73250333109E+03  0.00000000000E+00 0.  1.
          5    1    4    4  501    0  0.59179720408E+02 -0.28507091837E+01 -0.28369184879E+02  0.65822860019E+02  0.41800000000E+01 0.  1.
         -5    1    4    4    0  501 -0.33011971781E+02 -0.28545352317E+02  0.51768499624E+02  0.67838612700E+02  0.41800000000E+01 0.  1.
</event>
<event>
11    1  0.8864208E-009  0.2014522E+03  0.7561462E-02  0.1053501E+00
         22   -1    0    0    0    0  0.00000000000E+00  0.00000000000E+00  0.42284050578E+03  0.42284050578E+03  0.00000000000E+00 0. -1.
         22   -1    0    0    0    0 -0.00000000000E+00 -0.00000000000E+00 -0.45213722224E+03  0.45213722224E+03  0.00000000000E+00 0. -1.
         24    2    1    2    0    0  0.15665670889E+03  0.26454008169E+02 -0.33561473062E+03  0.37986741415E+03  0.80130305956E+02 0.  0.
         25    2    1    2    0    0 -0.15714740680E+03  0.19428721298E+02  0.30828380538E+02  0.20413841445E+03  0.12509724429E+03 0.  0.
        -24    2    1    2    0    0  0.49069791494E+00 -0.45882729467E+02  0.27548963362E+03  0.29097189942E+03  0.81637260944E+02 0.  0.
        -11    1    3    3    0    0  0.88479128849E+01 -0.49816522384E+01 -0.96309764441E+02  0.96843549853E+02  0.00000000000E+00 0.  1.
         12    1    3    3    0    0  0.14780879600E+03  0.31435660407E+02 -0.23930496618E+03  0.28302386429E+03  0.00000000000E+00 0. -1.
         13    1    5    5    0    0 -0.27981277391E+02 -0.15148828168E+02  0.21529050227E+03  0.21762913235E+03  0.00000000000E+00 0. -1.
        -14    1    5    5    0    0  0.28471975306E+02 -0.30733901299E+02  0.60199131352E+02  0.73342767076E+02  0.00000000000E+00 0.  1.
          5    1    4    4  501    0  0.95624753501E+01 -0.23685190798E+02 -0.89015211030E+01  0.27370397803E+02  0.41800000000E+01 0. -1.
         -5    1    4    4    0  501 -0.16670988215E+03  0.43113912096E+02  0.39729901641E+02  0.17676801664E+03  0.41800000000E+01 0. -1.
</event>
<event>
11    1  0.8864208E-009  0.1398540E+03  0.7561462E-02  0.1107721E+00
         22   -1    0    0    0    0  0.00000000000E+00  0.00000000000E+00  0.58369674397E+03  0.58369674397E+03  0.00000000000E+00 0. -1.
         22   -1    0    0    0    0 -0.00000000000E+00 -0.00000000000E+00 -0.97997482132E+03  0.97997482132E+03  0.00000000000E+00 0.  1.
         24    2    1    2    0    0 -0.12120411381E+02  0.19424364754E+02 -0.94929794277E+03  0.95317332891E+03  0.82756271570E+02 0.  0.
         25    2    1    2    0    0 -0.33066642824E+02  0.33831964765E+02  0.21168224590E+03  0.25040951401E+03  0.12513011935E+03 0.  0.
        -24    2    1    2    0    0  0.45187054205E+02 -0.53256329519E+02  0.34133761952E+03  0.36008872237E+03  0.90963789385E+02 0.  0.
        -11    1    3    3    0    0 -0.34113480749E+02  0.22165676279E+02 -0.86667859103E+03  0.86763288719E+03  0.00000000000E+00 0.  1.
         12    1    3    3    0    0  0.21993069367E+02 -0.27413115249E+01 -0.82619351734E+02  0.85540441722E+02  0.00000000000E+00 0. -1.
         13    1    5    5    0    0  0.62559614290E+02 -0.31926989966E+02  0.13746553824E+03  0.15436907796E+03  0.00000000000E+00 0. -1.
        -14    1    5    5    0    0 -0.17372560085E+02 -0.21329339553E+02  0.20387208128E+03  0.20571964441E+03  0.00000000000E+00 0.  1.
          5    1    4    4  501    0 -0.78192681545E+02  0.58531388295E+01  0.10439579146E+03  0.13063042661E+03  0.41800000000E+01 0.  1.
         -5    1    4    4    0  501  0.45126038721E+02  0.27978825935E+02  0.10728645444E+03  0.11977908740E+03  0.41800000000E+01 0.  1.
</event>
<event>
11    1  0.8864208E-009  0.1673685E+03  0.7561462E-02  0.1080345E+00
         22   -1    0    0    0    0  0.00000000000E+00  0.00000000000E+00  0.16224163313E+03  0.16224163313E+03  0.00000000000E+00 0.  1.
         22   -1    0    0    0    0 -0.00000000000E+00 -0.00000000000E+00 -0.12554370248E+04  0.12554370248E+04  0.00000000000E+00 0.  1.
         24    2    1    2    0    0  0.97660221986E+02 -0.53032931776E+02 -0.91500782998E+03  0.92525886509E+03  0.80713243635E+02 0.  0.
         25    2    1    2    0    0 -0.77112185001E+02  0.88231623527E+02 -0.29298564029E+03  0.33945581264E+03  0.12513414743E+03 0.  0.
        -24    2    1    2    0    0 -0.20548036985E+02 -0.35198691750E+02  0.11479807855E+03  0.15296398025E+03  0.92510597709E+02 0.  0.
        -11    1    3    3    0    0  0.99932929133E+02 -0.56437694079E+02 -0.91381664045E+03  0.92099547013E+03  0.00000000000E+00 0.  1.
         12    1    3    3    0    0 -0.22727071467E+01  0.34047623022E+01 -0.11911895296E+01  0.42633949623E+01  0.00000000000E+00 0. -1.
         13    1    5    5    0    0 -0.12153560775E+02 -0.65267791094E+02  0.58022922512E+02  0.88171725233E+02  0.00000000000E+00 0. -1.
        -14    1    5    5    0    0 -0.83944762101E+01  0.30069099343E+02  0.56775156042E+02  0.64792255014E+02  0.00000000000E+00 0.  1.
          5    1    4    4  501    0  0.29020893878E+02  0.47204985586E+02 -0.12157699257E+03  0.13367483110E+03  0.41800000000E+01 0. -1.
         -5    1    4    4    0  501 -0.10613307888E+03  0.41026637941E+02 -0.17140864772E+03  0.20578098154E+03  0.41800000000E+01 0. -1.
</event>
<event>
11    1  0.8864208E-009  0.1342469E+03  0.7561462E-02  0.1114158E+00
         22   -1    0    0    0    0  0.00000000000E+00  0.00000000000E+00  0.30806132067E+03  0.30806132067E+03  0.00000000000E+00 0. -1.
         22   -1    0    0    0    0 -0.00000000000E+00 -0.00000000000E+00 -0.18146997240E+03  0.18146997240E+03  0.00000000000E+00 0. -1.
         24    2    1    2    0    0 -0.16283666872E+02 -0.48793714909E+02 -0.11553541949E+03  0.14777463819E+03  0.76439035282E+02 0.  0.
         25    2    1    2    0    0 -0.34032142448E+01  0.33822750637E+02  0.63193553156E+02  0.14421154119E+03  0.12509189871E+03 0.  0.
        -24    2    1    2    0    0  0.19686881117E+02  0.14970964271E+02  0.17893321460E+03  0.19754511369E+03  0.79970454511E+02 0.  0.
        -11    1    3    3    0    0 -0.28692088571E+02 -0.12654613084E+02 -0.62147438874E+01  0.31968706894E+02  0.00000000000E+00 0.  1.
         12    1    3    3    0    0  0.12408421699E+02 -0.36139101825E+02 -0.10932067560E+03  0.11580593130E+03  0.00000000000E+00 0. -1.
         11    1    5    5    0    0  0.82279541235E+01  0.47745456267E+02  0.11508038454E+03  0.12486321608E+03  0.00000000000E+00 0. -1.
        -12    1    5    5    0    0  0.11458926993E+02 -0.32774491995E+02  0.63852830066E+02  0.72681897614E+02  0.00000000000E+00 0.  1.
          5    1    4    4  501    0  0.21605707300E+02 -0.13720270320E+02  0.82882644453E+02  0.86845020336E+02  0.41800000000E+01 0.  1.
         -5    1    4    4    0  501 -0.25008921544E+02  0.47543020957E+02 -0.19689091297E+02  0.57366520852E+02  0.41800000000E+01 0.  1.
</event>
<event>
11    1  0.8864208E-009  0.1341010E+03  0.7561462E-02  0.1114330E+00
         22   -1    0    0    0    0  0.00000000000E+00  0.00000000000E+00  0.54750437599E+03  0.54750437599E+03  0.00000000000E+00 0. -1.
         22   -1    0    0    0    0 -0.00000000000E+00 -0.00000000000E+00 -0.17829517877E+04  0.17829517877E+04  0.00000000000E+00 0. -1.
        -24    2    1    2    0    0 -0.51885563111E+01 -0.30677679380E+02 -0.13511626766E+04  0.13541599018E+04  0.84501006500E+02 0.  0.
         25    2    1    2    0    0  0.46234372919E+02  0.49480351896E+01 -0.41574950794E+03  0.43664280989E+03  0.12508872765E+03 0.  0.
         24    2    1    2    0    0 -0.41045816608E+02  0.25729644191E+02  0.53146477280E+03  0.53965345195E+03  0.80151542824E+02 0.  0.
        -13    1    5    5    0    0  0.36536884256E+01  0.29493748289E+02  0.70457121524E+02  0.76468533402E+02  0.00000000000E+00 0.  1.
         14    1    5    5    0    0 -0.44699505033E+02 -0.37641040982E+01  0.46100765128E+03  0.46318491854E+03  0.00000000000E+00 0. -1.
         11    1    3    3    0    0 -0.33919004679E+02  0.68140728534E+01 -0.30965337286E+03  0.31158007284E+03  0.00000000000E+00 0. -1.
        -12    1    3    3    0    0  0.28730448368E+02 -0.37491752234E+02 -0.10415093037E+04  0.10425798290E+04  0.00000000000E+00 0.  1.
          5    1    4    4  501    0  0.60105926089E+02 -0.15925232174E+02 -0.40377153784E+03  0.40855264354E+03  0.41800000000E+01 0. -1.
         -5    1    4    4    0  501 -0.13871553171E+02  0.20873267364E+02 -0.11977970091E+02  0.28090166345E+02  0.41800000000E+01 0. -1.
</event>
<event>
11    1  0.8864208E-009  0.1577229E+03  0.7561462E-02  0.1089239E+00
         22   -1    0    0    0    0  0.00000000000E+00  0.00000000000E+00  0.11596988425E+04  0.11596988425E+04  0.00000000000E+00 0.  1.
         22   -1    0    0    0    0 -0.00000000000E+00 -0.00000000000E+00 -0.15146066135E+03  0.15146066135E+03  0.00000000000E+00 0.  1.
         24    2    1    2    0    0 -0.79634870674E+02 -0.44166718245E+02 -0.37119385002E+02  0.13584269456E+03  0.93717539947E+02 0.  0.
         25    2    1    2    0    0  0.10590352996E+03  0.27433398084E+02  0.46336052327E+02  0.17252381009E+03  0.12509710754E+03 0.  0.
        -24    2    1    2    0    0 -0.26268659283E+02  0.16733320161E+02  0.99902151385E+03  0.10027929992E+04  0.81115767279E+02 0.  0.
        -11    1    3    3    0    0 -0.98615054948E+02 -0.46072640974E+02 -0.20968496457E+02  0.11084807239E+03  0.00000000000E+00 0.  1.
         12    1    3    3    0    0  0.18980184274E+02  0.19059227290E+01 -0.16150888545E+02  0.24994622168E+02  0.00000000000E+00 0. -1.
         13    1    5    5    0    0 -0.19090951532E+02  0.89332162051E+01  0.57989522279E+02  0.61701308546E+02  0.00000000000E+00 0. -1.
        -14    1    5    5    0    0 -0.71777077515E+01  0.78001039562E+01  0.94103199157E+03  0.94109169068E+03  0.00000000000E+00 0.  1.
          5    1    4    4  501    0  0.89559701084E+02  0.26619285092E+02  0.87471723076E+02  0.12805585162E+03  0.41800000000E+01 0.  1.
         -5    1    4    4    0  501  0.16343828873E+02  0.81411299143E+00 -0.41135670749E+02  0.44467958467E+02  0.41800000000E+01 0.  1.
</event>
<event>
11    1  0.8864208E-009  0.1262164E+03  0.7561462E-02  0.1124007E+00
         22   -1    0    0    0    0  0.00000000000E+00  0.00000000000E+00  0.35168834712E+03  0.35168834712E+03  0.00000000000E+00 0.  1.
         22   -1    0    0    0    0 -0.00000000000E+00 -0.00000000000E+00 -0.52831939261E+03  0.52831939261E+03  0.00000000000E+00 0. -1.
         24    2    1    2    0    0  0.11723871678E+02 -0.34373971942E-01 -0.48838311764E+03  0.49507630559E+03  0.80280934331E+02 0.  0.
         25    2    1    2    0    0  0.43668769610E+01  0.10653223126E+02  0.11925627964E+03  0.17321363185E+03  0.12509333015E+03 0.  0.
        -24    2    1    2    0    0 -0.16090748639E+02 -0.10618849154E+02  0.19249579250E+03  0.21171780230E+03  0.86012356840E+02 0.  0.
        -13    1    3    3    0    0 -0.21762976319E+02 -0.25459899889E+02 -0.31004135065E+03  0.31184527053E+03  0.00000000000E+00 0.  1.
         14    1    3    3    0    0  0.33486847996E+02  0.25425525917E+02 -0.17834176699E+03  0.18323103506E+03  0.00000000000E+00 0. -1.
         13    1    5    5    0    0 -0.44075947497E+02 -0.13765359100E+02  0.57149251216E+02  0.73472519852E+02  0.00000000000E+00 0. -1.
        -14    1    5    5    0    0  0.27985198858E+02  0.31465099462E+01  0.13534654129E+03  0.13824528245E+03  0.00000000000E+00 0.  1.
          5    1    4    4  501    0  0.24456379797E+02  0.27529070419E+02  0.13656543977E+03  0.14150461466E+03  0.41800000000E+01 0.  1.
         -5    1    4    4    0  501 -0.20089502836E+02 -0.16875847293E+02 -0.17309160135E+02  0.31709017182E+02  0.41800000000E+01 0.  1.
</event>
<event>
11    1  0.8864208E-009  0.1433193E+03  0.7561462E-02  0.1103907E+00
         22   -1    0    0    0    0  0.00000000000E+00  0.00000000000E+00  0.56218488519E+03  0.56218488519E+03  0.00000000000E+00 0.  1.
         22   -1    0    0    0    0 -0.00000000000E+00 -0.00000000000E+00 -0.11036148392E+04  0.11036148392E+04  0.00000000000E+00 0. -1.
         24    2    1    2    0    0 -0.13785833588E+02  0.71436842946E+02 -0.10013057703E+04  0.10070419086E+04  0.78910635218E+02 0.  0.
         25    2    1    2    0    0  0.45917606662E+02 -0.14099613702E+02 -0.46538880780E+02  0.14184874005E+03  0.12509185394E+03 0.  0.
        -24    2    1    2    0    0 -0.32131773075E+02 -0.57337229244E+02  0.50641469708E+03  0.51690907570E+03  0.80119525847E+02 0.  0.
        -11    1    3    3    0    0 -0.17043196560E+02  0.43453163023E+02 -0.20535836037E+03  0.21059606858E+03  0.00000000000E+00 0.  1.
         12    1    3    3    0    0  0.32573629725E+01  0.27983679923E+02 -0.79594740991E+03  0.79644584003E+03  0.00000000000E+00 0. -1.
         11    1    5    5    0    0 -0.39545392910E+02 -0.34579783955E+02  0.13710053468E+03  0.14682014906E+03  0.00000000000E+00 0. -1.
        -12    1    5    5    0    0  0.74136198351E+01 -0.22757445288E+02  0.36931416240E+03  0.37008892664E+03  0.00000000000E+00 0.  1.
          5    1    4    4  501    0 -0.33455099445E+02 -0.32456250908E+01 -0.51315797015E+02  0.61486268259E+02  0.41800000000E+01 0.  1.
         -5    1    4    4    0  501  0.79372706107E+02 -0.10853988611E+02  0.47769162353E+01  0.80362471791E+02  0.41800000000E+01 0.  1.
</event>
<event>
11    1  0.8864208E-009  0.1500358E+03  0.7561462E-02  0.1096842E+00
         22   -1    0    0    0    0  0.00000000000E+00  0.00000000000E+00  0.38468529412E+03  0.38468529412E+03  0.00000000000E+00 0.  1.
         22   -1    0    0    0    0 -0.00000000000E+00 -0.00000000000E+00 -0.42775277945E+03  0.42775277945E+03  0.00000000000E+00 0. -1.
         24    2    1    2    0    0  0.64253109023E+02  0.39642931628E+02 -0.26099877037E+03  0.28339483061E+03  0.80574486249E+02 0.  0.
         25    2    1    2    0    0 -0.10820602623E+03 -0.42325467048E+02 -0.98453852682E+02  0.19711211334E+03  0.12514006090E+03 0.  0.
        -24    2    1    2    0    0  0.43952917205E+02  0.26825354203E+01  0.31638513772E+03  0.33193112963E+03  0.90220089345E+02 0.  0.
        -11    1    3    3    0    0  0.20185810870E+02 -0.24099730354E+02 -0.55719595719E+02  0.63976068265E+02  0.00000000000E+00 0.  1.
         12    1    3    3    0    0  0.44067298153E+02  0.63742661983E+02 -0.20527917465E+03  0.21941876234E+03  0.00000000000E+00 0. -1.
         13    1    5    5    0    0  0.15472283477E+01  0.27742930050E+02  0.28282297213E+02  0.39647855162E+02  0.00000000000E+00 0. -1.
        -14    1    5    5    0    0  0.42405688857E+02 -0.25060394630E+02  0.28810284050E+03  0.29228327447E+03  0.00000000000E+00 0.  1.
          5    1    4    4  501    0 -0.13252059116E+03 -0.53505021991E+02 -0.75942777755E+02  0.16189278042E+03  0.41800000000E+01 0.  1.
         -5    1    4    4    0  501  0.24314564932E+02  0.11179554942E+02 -0.22511074927E+02  0.35219332914E+02  0.41800000000E+01 0.  1.
</event>
<event>
11    1  0.8864208E-009  0.1748164E+03  0.7561462E-02  0.1073915E+00
         22   -1    0    0    0    0  0.00000000000E+00  0.00000000000E+00  0.79088902403E+03  0.79088902403E+03  0.00000000000E+00 0.  1.
         22   -1    0    0    0    0 -0.00000000000E+00 -0.00000000000E+00 -0.62631555276E+03  0.62631555276E+03  0.00000000000E+00 0.  1.
        -24    2    1    2    0    0  0.10065351762E+02  0.12174028833E+03 -0.55336977684E+03  0.57220101741E+03  0.79207861337E+02 0.  0.
         25    2    1    2    0    0 -0.40732121643E+02 -0.11837032164E+03  0.68124189723E+02  0.18963047475E+03  0.12509265745E+03 0.  0.
         24    2    1    2    0    0  0.30666769880E+02 -0.33699666926E+01  0.64981905839E+03  0.65537308464E+03  0.79355302107E+02 0.  0.
        -13    1    5    5    0    0  0.36383474400E+02 -0.14634172521E+02  0.63361369514E+03  0.63482614225E+03  0.00000000000E+00 0.  1.
         14    1    5    5    0    0 -0.57167045201E+01  0.11264205828E+02  0.16205363251E+02  0.20546942391E+02  0.00000000000E+00 0. -1.
         13    1    3    3    0    0 -0.90059037832E+01  0.63565814996E+02 -0.13631505618E+03  0.15067685184E+03  0.00000000000E+00 0. -1.
        -14    1    3    3    0    0  0.19071255546E+02  0.58174473339E+02 -0.41705472066E+03  0.42152416557E+03  0.00000000000E+00 0.  1.
          5    1    4    4  501    0  0.27623826409E+01 -0.11473888694E+01 -0.30124881428E+02  0.30560237894E+02  0.41800000000E+01 0. -1.
         -5    1    4    4    0  501 -0.43494504283E+02 -0.11722293277E+03  0.98249071151E+02  0.15907023685E+03  0.41800000000E+01 0. -1.
</event>
<event>
11    1  0.8864208E-009  0.1298995E+03  0.7561462E-02  0.1119392E+00
         22   -1    0    0    0    0  0.00000000000E+00  0.00000000000E+00  0.18067302726E+03  0.18067302726E+03  0.00000000000E+00 0. -1.
         22   -1    0    0    0    0 -0.00000000000E+00 -0.00000000000E+00 -0.32918052948E+03  0.32918052948E+03  0.00000000000E+00 0.  1.
         24    2    1    2    0    0  0.35543266713E+02 -0.85799290432E+01 -0.24206460762E+03  0.25809336262E+03  0.81731086946E+02 0.  0.
         25    2    1    2    0    0 -0.20012451789E+02  0.16354986010E+02  0.98155766118E+00  0.12770943807E+03  0.12506299742E+03 0.  0.
        -24    2    1    2    0    0 -0.15530814924E+02 -0.77750569672E+01  0.92575547742E+02  0.12405075605E+03  0.80726082000E+02 0.  0.
        -11    1    3    3    0    0  0.51837516866E+02 -0.23051883305E+02 -0.10536472782E+03  0.11966721919E+03  0.00000000000E+00 0.  1.
         12    1    3    3    0    0 -0.16294250153E+02  0.14471954262E+02 -0.13669987980E+03  0.13842614343E+03  0.00000000000E+00 0. -1.
         13    1    5    5    0    0 -0.15700288017E+02 -0.23326481054E+02  0.10204117182E+03  0.10584434094E+03  0.00000000000E+00 0. -1.
        -14    1    5    5    0    0  0.16947309369E+00  0.15551424087E+02 -0.94656240774E+01  0.18206415118E+02  0.00000000000E+00 0.  1.
          5    1    4    4  501    0  0.47180131530E+02 -0.18134726130E+02 -0.86687161523E+01  0.51453397776E+02  0.41800000000E+01 0.  1.
         -5    1    4    4    0  501 -0.67192583319E+02  0.34489712140E+02  0.96502738135E+01  0.76256040294E+02  0.41800000000E+01 0.  1.
</event>
<event>
11    1  0.8864208E-009  0.1378029E+03  0.7561462E-02  0.1110037E+00
         22   -1    0    0    0    0  0.00000000000E+00  0.00000000000E+00  0.31980608844E+02  0.31980608844E+02  0.00000000000E+00 0. -1.
         22   -1    0    0    0    0 -0.00000000000E+00 -0.00000000000E+00 -0.19108454018E+04  0.19108454018E+04  0.00000000000E+00 0.  1.
         24    2    1    2    0    0 -0.29877597364E+02  0.91719341140E+01 -0.10852110150E+04  0.10885489086E+04  0.79240040226E+02 0.  0.
         25    2    1    2    0    0  0.62487654743E+02 -0.52925373315E+02 -0.71188941535E+03  0.72742026896E+03  0.12509158992E+03 0.  0.
        -24    2    1    2    0    0 -0.32610057378E+02  0.43753439201E+02 -0.81764362610E+02  0.12685683316E+03  0.80183950034E+02 0.  0.
        -11    1    3    3    0    0  0.74836369474E+01  0.35376457482E+02 -0.33364347670E+03  0.33559718132E+03  0.00000000000E+00 0.  1.
         12    1    3    3    0    0 -0.37361234312E+02 -0.26204523368E+02 -0.75156753834E+03  0.75295172725E+03  0.00000000000E+00 0. -1.
         11    1    5    5    0    0 -0.11100705964E+02  0.64497472623E+02 -0.44735809772E+02  0.79274474604E+02  0.00000000000E+00 0. -1.
        -12    1    5    5    0    0 -0.21509351414E+02 -0.20744033422E+02 -0.37028552837E+02  0.47582358559E+02  0.00000000000E+00 0.  1.
          5    1    4    4  501    0 -0.19876900403E+02  0.27186398287E+02 -0.13642801010E+03  0.14058543937E+03  0.41800000000E+01 0. -1.
         -5    1    4    4    0  501  0.82364555145E+02 -0.80111771602E+02 -0.57546140525E+03  0.58683482959E+03  0.41800000000E+01 0. -1.
</event>
<event>
11    1  0.8864208E-009  0.2612529E+03  0.7561462E-02  0.1018070E+00
         22   -1    0    0    0    0  0.00000000000E+00  0.00000000000E+00  0.50264219839E+03  0.50264219839E+03  0.00000000000E+00 0.  1.
         22   -1    0    0    0    0 -0.00000000000E+00 -0.00000000000E+00 -0.10518411581E+04  0.10518411581E+04  0.00000000000E+00 0. -1.
        -24    2    1    2    0    0  0.20348758303E+03 -0.10556263883E+03 -0.96909347396E+03  0.99937073417E+03  0.83958536668E+02 0.  0.
         25    2    1    2    0    0 -0.19501051533E+03  0.12719619260E+03  0.24202361343E+03  0.35837263526E+03  0.12509014249E+03 0.  0.
         24    2    1    2    0    0 -0.84770677024E+01 -0.21633553773E+02  0.17787090081E+03  0.19673998707E+03  0.80800333110E+02 0.  0.
        -11    1    5    5    0    0  0.34112423449E+02 -0.10249737891E+01  0.99548875964E+02  0.10523633741E+03  0.00000000000E+00 0.  1.
         12    1    5    5    0    0 -0.42589491151E+02 -0.20608579984E+02  0.78322024851E+02  0.91503649666E+02  0.00000000000E+00 0. -1.
         13    1    3    3    0    0  0.20149694128E+03 -0.10108968230E+03 -0.96855646278E+03  0.99444545492E+03  0.00000000000E+00 0. -1.
        -14    1    3    3    0    0  0.19906417464E+01 -0.44729565264E+01 -0.53701117421E+00  0.49252792460E+01  0.00000000000E+00 0.  1.
          5    1    4    4  501    0 -0.30586301516E+02  0.51561699017E+02  0.13573167816E+03  0.14844086871E+03  0.41800000000E+01 0. -1.
         -5    1    4    4    0  501 -0.16442421381E+03  0.75634493584E+02  0.10629193527E+03  0.20993176656E+03  0.41800000000E+01 0. -1.
</event>
<event>
11    1  0.8864208E-009  0.1300857E+03  0.7561462E-02  0.1119164E+00
         22   -1    0    0    0    0  0.00000000000E+00  0.00000000000E+00  0.23536495125E+03  0.23536495125E+03  0.00000000000E+00 0.  1.
         22   -1    0    0    0    0 -0.00000000000E+00 -0.00000000000E+00 -0.52535743059E+03  0.52535743059E+03  0.00000000000E+00 0. -1.
         24    2    1    2    0    0  0.30835872682E+02  0.16198587799E+02 -0.34915237958E+03  0.36008642619E+03  0.80880188340E+02 0.  0.
         25    2    1    2    0    0 -0.39596490629E+02  0.18853383369E+02 -0.13388354485E+03  0.18840028990E+03  0.12508610442E+03 0.  0.
        -24    2    1    2    0    0  0.87606179467E+01 -0.35051971168E+02  0.19304344509E+03  0.21223566574E+03  0.80453819118E+02 0.  0.
        -13    1    3    3    0    0  0.83995849096E+01  0.26655215457E+02 -0.34217273890E+02  0.44180033614E+02  0.00000000000E+00 0.  1.
         14    1    3    3    0    0  0.22436287772E+02 -0.10456627658E+02 -0.31493510569E+03  0.31590639258E+03  0.00000000000E+00 0. -1.
         13    1    5    5    0    0  0.19154049683E+02 -0.39234739247E+02  0.41365076577E+02  0.60144093170E+02  0.00000000000E+00 0. -1.
        -14    1    5    5    0    0 -0.10393431736E+02  0.41827680794E+01  0.15167836852E+03  0.15209157257E+03  0.00000000000E+00 0.  1.
          5    1    4    4  501    0  0.24292084089E+02 -0.38458591265E+02 -0.36077486327E+02  0.58208470270E+02  0.41800000000E+01 0. -1.
         -5    1    4    4    0  501 -0.63888574717E+02  0.57311974634E+02 -0.97806058522E+02  0.13019181963E+03  0.41800000000E+01 0. -1.
</event>
<event>
11    1  0.8864208E-009  0.1384029E+03  0.7561462E-02  0.1109355E+00
         22   -1    0    0    0    0  0.00000000000E+00  0.00000000000E+00  0.49041837123E+02  0.49041837123E+02  0.00000000000E+00 0. -1.
         22   -1    0    0    0    0 -0.00000000000E+00 -0.00000000000E+00 -0.16553326850E+04  0.16553326850E+04  0.00000000000E+00 0.  1.
        -24    2    1    2    0    0 -0.16781710360E+02 -0.16518186008E+02 -0.95838029850E+03  0.96209319647E+03  0.81092822575E+02 0.  0.
         25    2    1    2    0    0  0.69465000828E+02  0.38858389326E+02 -0.62301928846E+03  0.64041862959E+03  0.12509047352E+03 0.  0.
         24    2    1    2    0    0 -0.52683290469E+02 -0.22340203318E+02 -0.24891260890E+02  0.10186269604E+03  0.80509752186E+02 0.  0.
        -11    1    5    5    0    0 -0.48442568153E+02 -0.47242135137E+02 -0.33066897328E+02  0.75312159978E+02  0.00000000000E+00 0.  1.
         12    1    5    5    0    0 -0.42407223152E+01  0.24901931819E+02  0.81756364379E+01  0.26550536063E+02  0.00000000000E+00 0. -1.
         11    1    3    3    0    0 -0.34606141802E+02  0.11706439997E+02 -0.22441129417E+03  0.22736546514E+03  0.00000000000E+00 0. -1.
        -12    1    3    3    0    0  0.17824431443E+02 -0.28224626005E+02 -0.73396900432E+03  0.73472773133E+03  0.00000000000E+00 0.  1.
          5    1    4    4  501    0  0.34071194649E+02  0.61330275101E+02 -0.15136754791E+03  0.16688875310E+03  0.41800000000E+01 0. -1.
         -5    1    4    4    0  501  0.35393806179E+02 -0.22471885775E+02 -0.47165174055E+03  0.47352987649E+03  0.41800000000E+01 0. -1.
</event>
<event>
11    1  0.8864208E-009  0.1366549E+03  0.7561462E-02  0.1111352E+00
         22   -1    0    0    0    0  0.00000000000E+00  0.00000000000E+00  0.44624644978E+03  0.44624644978E+03  0.00000000000E+00 0.  1.
         22   -1    0    0    0    0 -0.00000000000E+00 -0.00000000000E+00 -0.34997305446E+03  0.34997305446E+03  0.00000000000E+00 0.  1.
        -24    2    1    2    0    0  0.40910472684E+02 -0.99315012740E+01 -0.18663684486E+03  0.20734973445E+03  0.79926835430E+02 0.  0.
         25    2    1    2    0    0 -0.35493874674E+01 -0.32215229050E+02 -0.11874838006E+03  0.17550046488E+03  0.12509522881E+03 0.  0.
         24    2    1    2    0    0 -0.37361085217E+02  0.42146730324E+02  0.40165862023E+03  0.41336930492E+03  0.79826922021E+02 0.  0.
        -11    1    5    5    0    0 -0.49665400694E+02  0.25721247774E+02  0.37771600443E+03  0.38183453827E+03  0.00000000000E+00 0.  1.
         12    1    5    5    0    0  0.12304315477E+02  0.16425482550E+02  0.23942615800E+02  0.31534766651E+02  0.00000000000E+00 0. -1.
         13    1    3    3    0    0 -0.83687043704E+01  0.76850767717E+01  0.20450749069E+01  0.11544606931E+02  0.00000000000E+00 0. -1.
        -14    1    3    3    0    0  0.49279177054E+02 -0.17616578046E+02 -0.18868191977E+03  0.19580512751E+03  0.00000000000E+00 0.  1.
          5    1    4    4  501    0  0.27901685367E+02 -0.70185731158E+02 -0.49538623446E+02  0.90421725915E+02  0.41800000000E+01 0.  1.
         -5    1    4    4    0  501 -0.31451072835E+02  0.37970502108E+02 -0.69209756612E+02  0.85078738960E+02  0.41800000000E+01 0.  1.
</event>
<event>
11    1  0.8864208E-009  0.1632789E+03  0.7561462E-02  0.1084033E+00
         22   -1    0    0    0    0  0.00000000000E+00  0.00000000000E+00  0.37659702278E+03  0.37659702278E+03  0.00000000000E+00 0. -1.
         22   -1    0    0    0    0 -0.00000000000E+00 -0.00000000000E+00 -0.97562216348E+03  0.97562216348E+03  0.00000000000E+00 0.  1.
        -24    2    1    2    0    0 -0.18626670543E+02 -0.25860307855E+01 -0.75740156267E+03  0.76202512653E+03  0.81679409362E+02 0.  0.
         25    2    1    2    0    0  0.97468256404E+02  0.70405724973E+02 -0.16597298136E+03  0.24010692928E+03  0.12508908757E+03 0.  0.
         24    2    1    2    0    0 -0.78841585861E+02 -0.67819694188E+02  0.32434940333E+03  0.35008713045E+03  0.80888546089E+02 0.  0.
        -13    1    5    5    0    0 -0.22801321423E+02 -0.50119344696E+02  0.70129906421E+02  0.89163068285E+02  0.00000000000E+00 0.  1.
         14    1    5    5    0    0 -0.56040264439E+02 -0.17700349492E+02  0.25421949691E+03  0.26092406217E+03  0.00000000000E+00 0. -1.
         13    1    3    3    0    0  0.21730862538E+02 -0.77362127566E+01 -0.76324875480E+02  0.79734346372E+02  0.00000000000E+00 0. -1.
        -14    1    3    3    0    0 -0.40357533080E+02  0.51501819711E+01 -0.68107668719E+03  0.68229078016E+03  0.00000000000E+00 0.  1.
          5    1    4    4  501    0  0.35731365535E+02 -0.15822539360E+02 -0.11661245036E+03  0.12305697548E+03  0.41800000000E+01 0.  1.
         -5    1    4    4    0  501  0.61736890869E+02  0.86228264334E+02 -0.49360531005E+02  0.11704995380E+03  0.41800000000E+01 0.  1.
</event>
<event>
11    1  0.9706070E-009  0.1701951E+03  0.7561462E-02  0.1077862E+00
         22   -1    0    0    0    0  0.00000000000E+00  0.00000000000E+00  0.69203183007E+03  0.69203183007E+03  0.00000000000E+00 0.  1.
         22   -1    0    0    0    0 -0.00000000000E+00 -0.00000000000E+00 -0.38480906473E+03  0.38480906473E+03  0.00000000000E+00 0. -1.
        -24    2    1    2    0    0  0.71820689270E+02 -0.47937774126E+02 -0.28700720296E+03  0.30998503245E+03  0.79128655976E+02 0.  0.
         25    2    1    2    0    0 -0.35505139217E+02 -0.68637720064E+02 -0.77325100031E+01  0.14726127880E+03  0.12511730894E+03 0.  0.
         24    2    1    2    0    0 -0.36315550053E+02  0.11657549419E+03  0.60196247830E+03  0.61959458355E+03  0.81424551970E+02 0.  0.
        -11    1    5    5    0    0 -0.15526058157E+02  0.44963700453E+02  0.42373272739E+03  0.42639443840E+03  0.00000000000E+00 0.  1.
         12    1    5    5    0    0 -0.20789491896E+02  0.71611793737E+02  0.17822975091E+03  0.19320014515E+03  0.00000000000E+00 0. -1.
         11    1    3    3    0    0  0.51282515361E+02 -0.52268757620E+02 -0.27739843937E+03  0.28690035478E+03  0.00000000000E+00 0. -1.
        -12    1    3    3    0    0  0.20538173909E+02  0.43309834946E+01 -0.96087635864E+01  0.23084677672E+02  0.00000000000E+00 0.  1.
          5    1    4    4  501    0  0.40944844872E+02  0.10652004324E+01 -0.14116999714E+02  0.43524442035E+02  0.41800000000E+01 0. -1.
         -5    1    4    4    0  501 -0.76449984089E+02 -0.69702920497E+02  0.63844897107E+01  0.10373683676E+03  0.41800000000E+01 0. -1.
</event>
<event>
11    1  0.8864208E-009  0.1345297E+03  0.7561462E-02  0.1113825E+00
         22   -1    0    0    0    0  0.00000000000E+00  0.00000000000E+00  0.17222219379E+03  0.17222219379E+03  0.00000000000E+00 0.  1.
         22   -1    0    0    0    0 -0.00000000000E+00 -0.00000000000E+00 -0.40371478105E+03  0.40371478105E+03  0.00000000000E+00 0.  1.
         24    2    1    2    0    0 -0.47372209824E+02 -0.46330350356E+00 -0.26322511063E+03  0.27925055772E+03  0.80306128097E+02 0.  0.
         25    2    1    2    0    0  0.33282749759E+02 -0.48520988868E+02 -0.72585743493E+02  0.15613380522E+03  0.12508815764E+03 0.  0.
        -24    2    1    2    0    0  0.14089460065E+02  0.48984292372E+02  0.10431826686E+03  0.14055261190E+03  0.79213396144E+02 0.  0.
        -11    1    3    3    0    0 -0.63019022091E+02  0.20758372431E+02 -0.20106816650E+03  0.21173264924E+03  0.00000000000E+00 0.  1.
         12    1    3    3    0    0  0.15646812268E+02 -0.21221675935E+02 -0.62156944122E+02  0.67517908486E+02  0.00000000000E+00 0. -1.
         13    1    5    5    0    0  0.27939798555E+02 -0.71125451141E+01  0.11130606289E+02  0.30904870775E+02  0.00000000000E+00 0. -1.
        -14    1    5    5    0    0 -0.13850338490E+02  0.56096837486E+02  0.93187660570E+02  0.10964774113E+03  0.00000000000E+00 0.  1.
          5    1    4    4  501    0  0.61859486291E+02 -0.51542508902E+02 -0.29441814531E+01  0.80680647447E+02  0.41800000000E+01 0.  1.
         -5    1    4    4    0  501 -0.28576736532E+02  0.30215200332E+01 -0.69641562039E+02  0.75453157770E+02  0.41800000000E+01 0.  1.
</event>
<event>
11    1  0.8864208E-009  0.1383093E+03  0.7561462E-02  0.1109461E+00
         22   -1    0    0    0    0  0.00000000000E+00  0.00000000000E+00  0.62627329445E+03  0.62627329445E+03  0.00000000000E+00 0. -1.
         22   -1    0    0    0    0 -0.00000000000E+00 -0.00000000000E+00 -0.53130894322E+03  0.53130894322E+03  0.00000000000E+00 0. -1.
        -24    2    1    2    0    0 -0.60051195468E+02  0.11844119624E+02 -0.35799670683E+03  0.37270548787E+03  0.83673827112E+02 0.  0.
         25    2    1    2    0    0  0.44446336496E+02 -0.31351042480E+02 -0.13444345656E+03  0.19151914068E+03  0.12508466550E+03 0.  0.
         24    2    1    2    0    0  0.15604858971E+02  0.19506922856E+02  0.58740451461E+03  0.59335760912E+03  0.80032223843E+02 0.  0.
        -11    1    5    5    0    0 -0.27791690990E+02 -0.77873889870E+01  0.13456864125E+03  0.13762899667E+03  0.00000000000E+00 0.  1.
         12    1    5    5    0    0  0.43396549962E+02  0.27294311843E+02  0.45283587336E+03  0.45572861246E+03  0.00000000000E+00 0. -1.
         13    1    3    3    0    0 -0.55054783645E+02  0.43443408779E+02 -0.21402822112E+03  0.22522530587E+03  0.00000000000E+00 0. -1.
        -14    1    3    3    0    0 -0.49964118223E+01 -0.31599289156E+02 -0.14396848571E+03  0.14748018200E+03  0.00000000000E+00 0.  1.
          5    1    4    4  501    0 -0.92622583016E+01  0.11342217969E+02 -0.12040352258E+03  0.12136274547E+03  0.41800000000E+01 0. -1.
         -5    1    4    4    0  501  0.53708594798E+02 -0.42693260449E+02 -0.14039933975E+02  0.70156395210E+02  0.41800000000E+01 0. -1.
</event>
<event>
11    1  0.8864208E-009  0.1525002E+03  0.7561462E-02  0.1094351E+00
         22   -1    0    0    0    0  0.00000000000E+00  0.00000000000E+00  0.15198368964E+04  0.15198368964E+04  0.00000000000E+00 0. -1.
         22   -1    0    0    0    0 -0.00000000000E+00 -0.00000000000E+00 -0.37710595678E+03  0.37710595678E+03  0.00000000000E+00 0.  1.
        -24    2    1    2    0    0  0.89891624491E+02  0.33777780958E+01 -0.33389522117E+03  0.35506424724E+03  0.80577213960E+02 0.  0.
         25    2    1    2    0    0 -0.48124496845E+02  0.34036502340E+02  0.12402778397E+03  0.18575614174E+03  0.12509197540E+03 0.  0.
         24    2    1    2    0    0 -0.41767127646E+02 -0.37414280436E+02  0.13525983768E+04  0.13561224642E+04  0.80009047060E+02 0.  0.
        -11    1    5    5    0    0 -0.30144620189E+02 -0.39895156845E+02  0.36033247688E+03  0.36378539767E+03  0.00000000000E+00 0.  1.
         12    1    5    5    0    0 -0.11622507457E+02  0.24808764091E+01  0.99226589993E+03  0.99233706652E+03  0.00000000000E+00 0. -1.
         13    1    3    3    0    0  0.10301956134E+02  0.29248628176E+02 -0.47781576727E+02  0.56962194698E+02  0.00000000000E+00 0. -1.
        -14    1    3    3    0    0  0.79589668357E+02 -0.25870850080E+02 -0.28611364444E+03  0.29810205254E+03  0.00000000000E+00 0.  1.
          5    1    4    4  501    0 -0.31301871947E+02  0.71902699845E+02  0.32107517556E+02  0.84842032719E+02  0.41800000000E+01 0. -1.
         -5    1    4    4    0  501 -0.16822624898E+02 -0.37866197505E+02  0.91920266415E+02  0.10091410902E+03  0.41800000000E+01 0. -1.
</event>
<event>
11    1  0.8864208E-009  0.2848170E+03  0.7561462E-02  0.1006830E+00
         22   -1    0    0    0    0  0.00000000000E+00  0.00000000000E+00  0.32891465348E+03  0.32891465348E+03  0.00000000000E+00 0. -1.
         22   -1    0    0    0    0 -0.00000000000E+00 -0.00000000000E+00 -0.89626689948E+03  0.89626689948E+03  0.00000000000E+00 0.  1.
        -24    2    1    2    0    0 -0.35742353822E+02 -0.46622062907E+02 -0.51204253418E+03  0.52200404596E+03  0.82761915059E+02 0.  0.
         25    2    1    2    0    0 -0.22676282389E+03  0.41067174674E+02 -0.25304068490E+03  0.36439666435E+03  0.12508976633E+03 0.  0.
         24    2    1    2    0    0  0.26250517771E+03  0.55548882332E+01  0.19773097309E+03  0.33878084265E+03  0.82067633818E+02 0.  0.
        -11    1    5    5    0    0  0.73675160009E+02  0.38465244377E+02  0.67185598572E+02  0.10687145963E+03  0.00000000000E+00 0.  1.
         12    1    5    5    0    0  0.18883001770E+03 -0.32910356144E+02  0.13054537452E+03  0.23190938302E+03  0.00000000000E+00 0. -1.
         13    1    3    3    0    0  0.45927823546E+00  0.67644193704E+01 -0.93713140352E+00  0.68444518541E+01  0.00000000000E+00 0. -1.
        -14    1    3    3    0    0 -0.36201632058E+02 -0.53386482278E+02 -0.51110540277E+03  0.51515959410E+03  0.00000000000E+00 0.  1.
          5    1    4    4  501    0 -0.76336031678E+02  0.40283636688E+02 -0.17432070377E+03  0.19456397734E+03  0.41800000000E+01 0. -1.
         -5    1    4    4    0  501 -0.15042679221E+03  0.78353798596E+00 -0.78719981137E+02  0.16983268701E+03  0.41800000000E+01 0. -1.
</event>
<event>
11    1  0.8864208E-009  0.1576564E+03  0.7561462E-02  0.1089303E+00
         22   -1    0    0    0    0  0.00000000000E+00  0.00000000000E+00  0.23646634751E+03  0.23646634751E+03  0.00000000000E+00 0. -1.
         22   -1    0    0    0    0 -0.00000000000E+00 -0.00000000000E+00 -0.19253457881E+04  0.19253457881E+04  0.00000000000E+00 0.  1.
         24    2    1    2    0    0  0.14387890251E+02  0.47182845242E+01 -0.18157507418E+04  0.18175679830E+04  0.79833218208E+02 0.  0.
         25    2    1    2    0    0 -0.95286268861E+02 -0.49853033491E+02 -0.38762612643E+01  0.16500901408E+03  0.12509257110E+03 0.  0.
        -24    2    1    2    0    0  0.80898378610E+02  0.45134748967E+02  0.13074756251E+03  0.17923513853E+03  0.80303278613E+02 0.  0.
        -13    1    3    3    0    0 -0.12131101511E+02 -0.30616304809E+02 -0.10724258139E+04  0.10729313343E+04  0.00000000000E+00 0.  1.
         14    1    3    3    0    0  0.26518991762E+02  0.35334589334E+02 -0.74332492793E+03  0.74463664872E+03  0.00000000000E+00 0. -1.
         13    1    5    5    0    0  0.72702717856E+02  0.17826109122E+02  0.13082048546E+03  0.15072310628E+03  0.00000000000E+00 0. -1.
        -14    1    5    5    0    0  0.81956607542E+01  0.27308639844E+02 -0.72922952049E-01  0.28512032252E+02  0.00000000000E+00 0.  1.
          5    1    4    4  501    0 -0.88283964708E+02 -0.86440237953E+02 -0.18043615475E+02  0.12493605413E+03  0.41800000000E+01 0.  1.
         -5    1    4    4    0  501 -0.70023041531E+01  0.36587204462E+02  0.14167354211E+02  0.40072959950E+02  0.41800000000E+01 0.  1.
</event>
<event>
11    1  0.1367537E-008  0.1470262E+03  0.7561462E-02  0.1099957E+00
         22   -1    0    0    0    0  0.00000000000E+00  0.00000000000E+00  0.42318398409E+03  0.42318398409E+03  0.00000000000E+00 0. -1.
         22   -1    0    0    0    0 -0.00000000000E+00 -0.00000000000E+00 -0.12469852431E+04  0.12469852431E+04  0.00000000000E+00 0. -1.
         24    2    1    2    0    0 -0.53443749726E+02  0.50646122283E+02 -0.77232465233E+03  0.78000435375E+03  0.80623564680E+02 0.  0.
         25    2    1    2    0    0  0.60717985539E+02 -0.12665551058E+03 -0.44418512051E+03  0.48236693076E+03  0.12509653265E+03 0.  0.
        -24    2    1    2    0    0 -0.72742358125E+01  0.76009388300E+02  0.39270851384E+03  0.40779794268E+03  0.79049627397E+02 0.  0.
        -11    1    3    3    0    0 -0.37200562239E+01 -0.15616918578E+02 -0.41463709564E+02  0.44463087780E+02  0.00000000000E+00 0.  1.
         12    1    3    3    0    0 -0.49723693502E+02  0.66263040861E+02 -0.73086094277E+03  0.73554126597E+03  0.00000000000E+00 0. -1.
         11    1    5    5    0    0 -0.34129859460E+02  0.68250016938E+02  0.33622554355E+03  0.34477605522E+03  0.00000000000E+00 0. -1.
        -12    1    5    5    0    0  0.26855623648E+02  0.77593713614E+01  0.56482970290E+02  0.63021887454E+02  0.00000000000E+00 0.  1.
          5    1    4    4  501    0  0.91301887545E+01 -0.97302969460E+02 -0.13051821776E+03  0.16310642471E+03  0.41800000000E+01 0.  1.
         -5    1    4    4    0  501  0.51587796784E+02 -0.29352541122E+02 -0.31366690275E+03  0.31926050605E+03  0.41800000000E+01 0.  1.
</event>
<event>
11    1  0.8864208E-009  0.1333753E+03  0.7561462E-02  0.1115190E+00
         22   -1    0    0    0    0  0.00000000000E+00  0.00000000000E+00  0.16213549161E+03  0.16213549161E+03  0.00000000000E+00 0.  1.
         22   -1    0    0    0    0 -0.00000000000E+00 -0.00000000000E+00 -0.48795487348E+03  0.48795487348E+03  0.00000000000E+00 0.  1.
        -24    2    1    2    0    0 -0.51033112062E+02  0.10631257503E+02 -0.33588694491E+03  0.34874200610E+03  0.77997082581E+02 0.  0.
         25    2    1    2    0    0  0.18805860693E+02  0.18386197954E+00 -0.99938259241E+02  0.16120942937E+03  0.12508848970E+03 0.  0.
         24    2    1    2    0    0  0.32227251370E+02 -0.10815119482E+02  0.11000582228E+03  0.14013892963E+03  0.79887897210E+02 0.  0.
        -13    1    5    5    0    0  0.27191830397E+02 -0.29536535662E+02  0.11354329250E+03  0.12043206322E+03  0.00000000000E+00 0.  1.
         14    1    5    5    0    0  0.50354209727E+01  0.18721416179E+02 -0.35374702173E+01  0.19706866409E+02  0.00000000000E+00 0. -1.
         11    1    3    3    0    0 -0.15997826827E+02  0.88322579961E+01 -0.97283665037E+01  0.20702182478E+02  0.00000000000E+00 0. -1.
        -12    1    3    3    0    0 -0.35035285235E+02  0.17989995068E+01 -0.32615857841E+03  0.32803982362E+03  0.00000000000E+00 0.  1.
          5    1    4    4  501    0  0.52357385160E+02  0.30065472430E+02 -0.11045623922E+02  0.61519969287E+02  0.41800000000E+01 0.  1.
         -5    1    4    4    0  501 -0.33551524467E+02 -0.29881610450E+02 -0.88892635319E+02  0.99689460080E+02  0.41800000000E+01 0.  1.
</event>
<event>
11    1  0.8864208E-009  0.1403825E+03  0.7561462E-02  0.1107132E+00
         22   -1    0    0    0    0  0.00000000000E+00  0.00000000000E+00  0.76417563697E+02  0.76417563697E+02  0.00000000000E+00 0.  1.
         22   -1    0    0    0    0 -0.00000000000E+00 -0.00000000000E+00 -0.61470781751E+03  0.61470781751E+03  0.00000000000E+00 0. -1.
        -24    2    1    2    0    0  0.56824648793E+02 -0.32689818127E+02 -0.35418487235E+03  0.37053246520E+03  0.86889119256E+02 0.  0.
         25    2    1    2    0    0 -0.45838432750E+02  0.37696766591E+02 -0.19454443669E+03  0.23878289907E+03  0.12509007520E+03 0.  0.
         24    2    1    2    0    0 -0.10986216044E+02 -0.50069484645E+01  0.10439055225E+02  0.81810016941E+02  0.80238011703E+02 0.  0.
        -13    1    5    5    0    0 -0.13583019063E+02 -0.41296333662E+02 -0.15583652411E+01  0.43500736580E+02  0.00000000000E+00 0.  1.
         14    1    5    5    0    0  0.25968030197E+01  0.36289385198E+02  0.11997420466E+02  0.38309280361E+02  0.00000000000E+00 0. -1.
         11    1    3    3    0    0  0.42720604275E+02 -0.35510628935E+02 -0.35154703838E+03  0.35590922296E+03  0.00000000000E+00 0. -1.
        -12    1    3    3    0    0  0.14104044518E+02  0.28208108077E+01 -0.26378339685E+01  0.14623242234E+02  0.00000000000E+00 0.  1.
          5    1    4    4  501    0 -0.53051422860E+02  0.34631269284E+01 -0.19638879615E+03  0.20350056110E+03  0.41800000000E+01 0. -1.
         -5    1    4    4    0  501  0.72129901110E+01  0.34233639663E+02  0.18443594564E+01  0.35282337971E+02  0.41800000000E+01 0. -1.
</event>
<event>
11    1  0.8864208E-009  0.1578796E+03  0.7561462E-02  0.1089089E+00
         22   -1    0    0    0    0  0.00000000000E+00  0.00000000000E+00  0.11391778153E+04  0.11391778153E+04  0.00000000000E+00 0. -1.
         22   -1    0    0    0    0 -0.00000000000E+00 -0.00000000000E+00 -0.88089079627E+02  0.88089079627E+02  0.00000000000E+00 0. -1.
        -24    2    1    2    0    0  0.11319035200E+02 -0.96574081936E+02 -0.10309402944E+02  0.12861779732E+03  0.83555850411E+02 0.  0.
         25    2    1    2    0    0 -0.36595956877E+02  0.86246464739E+02  0.36666024122E+03  0.39857979926E+03  0.12509359354E+03 0.  0.
         24    2    1    2    0    0  0.25276921678E+02  0.10327617197E+02  0.69473789736E+03  0.70006929832E+03  0.81796662333E+02 0.  0.
        -13    1    5    5    0    0 -0.27524764879E+02 -0.57848132113E+00  0.13749849631E+03  0.14022761429E+03  0.00000000000E+00 0.  1.
         14    1    5    5    0    0  0.52801686557E+02  0.10906098518E+02  0.55723940105E+03  0.55984168402E+03  0.00000000000E+00 0. -1.
         11    1    3    3    0    0  0.32433558748E+02 -0.10146897441E+03 -0.82361286756E+01  0.10684438364E+03  0.00000000000E+00 0. -1.
        -12    1    3    3    0    0 -0.21114523548E+02  0.48948924692E+01 -0.20732742683E+01  0.21773413677E+02  0.00000000000E+00 0.  1.
          5    1    4    4  501    0  0.22200981381E+02  0.81748620654E+02  0.28770478208E+03  0.29994538601E+03  0.41800000000E+01 0. -1.
         -5    1    4    4    0  501 -0.58796938259E+02  0.44978440849E+01  0.78955459137E+02  0.98634413251E+02  0.41800000000E+01 0. -1.
</event>
<event>
11    1  0.8864208E-009  0.1402416E+03  0.7561462E-02  0.1107289E+00
         22   -1    0    0    0    0  0.00000000000E+00  0.00000000000E+00  0.27864518603E+03  0.27864518603E+03  0.00000000000E+00 0.  1.
         22   -1    0    0    0    0 -0.00000000000E+00 -0.00000000000E+00 -0.13944350835E+04  0.13944350835E+04  0.00000000000E+00 0.  1.
        -24    2    1    2    0    0  0.47428023582E+02  0.16550999335E+02 -0.11543013701E+04  0.11581266132E+04  0.79512553402E+02 0.  0.
         25    2    1    2    0    0  0.11257245549E+01 -0.58959755493E+02 -0.20674697161E+03  0.24873584871E+03  0.12509073564E+03 0.  0.
         24    2    1    2    0    0 -0.48553748137E+02  0.42408756157E+02  0.24525844431E+03  0.26621780756E+03  0.81020043818E+02 0.  0.
        -13    1    5    5    0    0  0.70106022061E+00  0.52217569722E+02  0.14427025788E+03  0.15343100528E+03  0.00000000000E+00 0.  1.
         14    1    5    5    0    0 -0.49254808357E+02 -0.98088135648E+01  0.10098818643E+03  0.11278680228E+03  0.00000000000E+00 0. -1.
         11    1    3    3    0    0  0.44455956229E+02 -0.14881327220E+02 -0.34039730202E+03  0.34361040317E+03  0.00000000000E+00 0. -1.
        -12    1    3    3    0    0  0.29720673527E+01  0.31432326556E+02 -0.81390406812E+03  0.81451621005E+03  0.00000000000E+00 0.  1.
          5    1    4    4  501    0  0.30606723517E+02 -0.75702058919E+02 -0.19687514004E+03  0.21317801579E+03  0.41800000000E+01 0. -1.
         -5    1    4    4    0  501 -0.29480998962E+02  0.16742303426E+02 -0.98718315625E+01  0.35557832923E+02  0.41800000000E+01 0. -1.
</event>
<event>
11    1  0.8864208E-009  0.1350730E+03  0.7561462E-02  0.1113188E+00
         22   -1    0    0    0    0  0.00000000000E+00  0.00000000000E+00  0.42016431737E+03  0.42016431737E+03  0.00000000000E+00 0. -1.
         22   -1    0    0    0    0 -0.00000000000E+00 -0.00000000000E+00 -0.89317676527E+03  0.89317676527E+03  0.00000000000E+00 0.  1.
         24    2    1    2    0    0 -0.41529224066E+02  0.33824553423E+02 -0.74716918376E+03  0.75336831640E+03  0.80207569046E+02 0.  0.
         25    2    1    2    0    0  0.43381289825E+02  0.17963346153E+02 -0.10433260601E+03  0.16951840407E+03  0.12508628434E+03 0.  0.
        -24    2    1    2    0    0 -0.18520657598E+01 -0.51787899576E+02  0.37848934186E+03  0.39045436217E+03  0.80715613991E+02 0.  0.
        -13    1    3    3    0    0 -0.44311480453E+02  0.23589727609E+02 -0.73689123810E+03  0.73859913304E+03  0.00000000000E+00 0.  1.
         14    1    3    3    0    0  0.27822563872E+01  0.10234825814E+02 -0.10277945665E+02  0.14769183361E+02  0.00000000000E+00 0. -1.
         11    1    5    5    0    0 -0.97350682929E+01 -0.63756976460E+02  0.36538850839E+03  0.37103704082E+03  0.00000000000E+00 0. -1.
        -12    1    5    5    0    0  0.78830025331E+01  0.11969076884E+02  0.13100833473E+02  0.19417321342E+02  0.00000000000E+00 0.  1.
          5    1    4    4  501    0  0.64613832156E+02  0.18775742287E+02 -0.47223949937E+01  0.67581426581E+02  0.41800000000E+01 0.  1.
         -5    1    4    4    0  501 -0.21232542330E+02 -0.81239613387E+00 -0.99610211012E+02  0.10193697749E+03  0.41800000000E+01 0.  1.
</event>
<event>
11    1  0.8864208E-009  0.2444965E+03  0.7561462E-02  0.1026873E+00
         22   -1    0    0    0    0  0.00000000000E+00  0.00000000000E+00  0.11943443495E+04  0.11943443495E+04  0.00000000000E+00 0. -1.
         22   -1    0    0    0    0 -0.00000000000E+00 -0.00000000000E+00 -0.19243630767E+03  0.19243630767E+03  0.00000000000E+00 0.  1.
         24    2    1    2    0    0 -0.20800309640E+03  0.35191145112E+01 -0.84614113665E+02  0.23756182974E+03  0.77449354040E+02 0.  0.
         25    2    1    2    0    0  0.22562555001E+03 -0.14727803405E+02  0.56452619815E+03  0.62085584325E+03  0.12509337590E+03 0.  0.
        -24    2    1    2    0    0 -0.17622453618E+02  0.11208688893E+02  0.52199595731E+03  0.52836298415E+03  0.79066288592E+02 0.  0.
        -13    1    3    3    0    0 -0.15136264882E+03  0.11913399780E+02 -0.23195273114E+02  0.15359232158E+03  0.00000000000E+00 0.  1.
         14    1    3    3    0    0 -0.56640447574E+02 -0.83942852685E+01 -0.61418840551E+02  0.83969508163E+02  0.00000000000E+00 0. -1.
         11    1    5    5    0    0 -0.31423050536E+02  0.36032405890E+02  0.41178721575E+03  0.41455331797E+03  0.00000000000E+00 0. -1.
        -12    1    5    5    0    0  0.13800596918E+02 -0.24823716997E+02  0.11020874156E+03  0.11380966618E+03  0.00000000000E+00 0.  1.
          5    1    4    4  501    0  0.74354016061E+02 -0.58614463164E+02  0.28015061640E+03  0.29574653889E+03  0.41800000000E+01 0.  1.
         -5    1    4    4    0  501  0.15127153395E+03  0.43886659760E+02  0.28437558175E+03  0.32510930437E+03  0.41800000000E+01 0.  1.
</event>
<event>
11    1  0.8864208E-009  0.1554362E+03  0.7561462E-02  0.1091450E+00
         22   -1    0    0    0    0  0.00000000000E+00  0.00000000000E+00  0.88842573233E+03  0.88842573233E+03  0.00000000000E+00 0.  1.
         22   -1    0    0    0    0 -0.00000000000E+00 -0.00000000000E+00 -0.26436564217E+03  0.26436564217E+03  0.00000000000E+00 0.  1.
        -24    2    1    2    0    0 -0.95088006227E+02 -0.14113985894E+02 -0.21401311544E+03  0.24843997089E+03  0.81730484091E+02 0.  0.
         25    2    1    2    0    0 -0.11613875831E+02 -0.19200001110E+02  0.12709470330E+03  0.17972681375E+03  0.12508054132E+03 0.  0.
         24    2    1    2    0    0  0.10670188206E+03  0.33313987003E+02  0.71097850230E+03  0.72462458986E+03  0.84233319643E+02 0.  0.
        -13    1    5    5    0    0  0.63651829576E+02 -0.19972189712E+02  0.44467734433E+03  0.44965362707E+03  0.00000000000E+00 0.  1.
         14    1    5    5    0    0  0.43050052482E+02  0.53286176715E+02  0.26630115796E+03  0.27497096279E+03  0.00000000000E+00 0. -1.
         11    1    3    3    0    0 -0.22170991879E+02 -0.30707859325E+02 -0.25562936579E+02  0.45694520807E+02  0.00000000000E+00 0. -1.
        -12    1    3    3    0    0 -0.72917014348E+02  0.16593873431E+02 -0.18845017887E+03  0.20274545009E+03  0.00000000000E+00 0.  1.
          5    1    4    4  501    0 -0.69578030723E+01 -0.16439871113E+02 -0.23035320312E+02  0.29441106767E+02  0.41800000000E+01 0. -1.
         -5    1    4    4    0  501 -0.46560727583E+01 -0.27601299970E+01  0.15013002362E+03  0.15028570698E+03  0.41800000000E+01 0. -1.
</event>
<event>
11    1  0.8864208E-009  0.2150243E+03  0.7561462E-02  0.1044380E+00
         22   -1    0    0    0    0  0.00000000000E+00  0.00000000000E+00  0.54351127338E+03  0.54351127338E+03  0.00000000000E+00 0. -1.
         22   -1    0    0    0    0 -0.00000000000E+00 -0.00000000000E+00 -0.65739582732E+03  0.65739582732E+03  0.00000000000E+00 0.  1.
        -24    2    1    2    0    0  0.34147908009E+02  0.43039050105E+02 -0.56041087952E+03  0.56881928084E+03  0.80477207390E+02 0.  0.
         25    2    1    2    0    0 -0.12621136361E+03  0.11146744423E+03  0.99919903433E+02  0.23234911834E+03  0.12509127172E+03 0.  0.
         24    2    1    2    0    0  0.92063455604E+02 -0.15450649434E+03  0.34660642215E+03  0.39973870152E+03  0.85481465656E+02 0.  0.
        -13    1    5    5    0    0  0.43583663887E+02 -0.11152304062E+02  0.53738072350E+02  0.70083450711E+02  0.00000000000E+00 0.  1.
         14    1    5    5    0    0  0.48479791718E+02 -0.14335419027E+03  0.29286834980E+03  0.32965525081E+03  0.00000000000E+00 0. -1.
         11    1    3    3    0    0  0.42382520010E+02  0.45134332212E+02 -0.22677063595E+03  0.23507085586E+03  0.00000000000E+00 0. -1.
        -12    1    3    3    0    0 -0.82346120012E+01 -0.20952821078E+01 -0.33364024357E+03  0.33374842497E+03  0.00000000000E+00 0.  1.
          5    1    4    4  501    0 -0.12380983943E+02  0.77254821853E+01  0.74703496315E+02  0.76230286632E+02  0.41800000000E+01 0.  1.
         -5    1    4    4    0  501 -0.11383037967E+03  0.10374196205E+03  0.25216407118E+02  0.15611883171E+03  0.41800000000E+01 0.  1.
</event>
<event>
11    1  0.8864208E-009  0.1537611E+03  0.7561462E-02  0.1093096E+00
         22   -1    0    0    0    0  0.00000000000E+00  0.00000000000E+00  0.14007396666E+04  0.14007396666E+04  0.00000000000E+00 0. -1.
         22   -1    0    0    0    0 -0.00000000000E+00 -0.00000000000E+00 -0.61896468170E+02  0.61896468170E+02  0.00000000000E+00 0. -1.
        -24    2    1    2    0    0 -0.57214194848E+02  0.68651580060E+02  0.61391607378E+02  0.13553793145E+03  0.81333251930E+02 0.  0.
         25    2    1    2    0    0 -0.10351544612E+02 -0.11423749118E+03  0.31649170437E+03  0.35912983395E+03  0.12509947975E+03 0.  0.
         24    2    1    2    0    0  0.67565739461E+02  0.45585911118E+02  0.96095988668E+03  0.96796836937E+03  0.82919574526E+02 0.  0.
        -13    1    5    5    0    0  0.16284299952E+02  0.31989513741E+02  0.11796041717E+03  0.12330112503E+03  0.00000000000E+00 0.  1.
         14    1    5    5    0    0  0.51281439509E+02  0.13596397377E+02  0.84299946951E+03  0.84466724434E+03  0.00000000000E+00 0. -1.
         11    1    3    3    0    0 -0.31677265050E+02  0.83848671044E+02  0.36523066452E+02  0.96788341962E+02  0.00000000000E+00 0. -1.
        -12    1    3    3    0    0 -0.25536929799E+02 -0.15197090984E+02  0.24868540927E+02  0.38749589492E+02  0.00000000000E+00 0.  1.
          5    1    4    4  501    0 -0.34475530309E+02 -0.99279863307E+02  0.31303381451E+03  0.33023127483E+03  0.41800000000E+01 0.  1.
         -5    1    4    4    0  501  0.24123985696E+02 -0.14957627870E+02  0.34578898656E+01  0.28898559128E+02  0.41800000000E+01 0.  1.
</event>
<event>
11    1  0.8864208E-009  0.1334186E+03  0.7561462E-02  0.1115139E+00
         22   -1    0    0    0    0  0.00000000000E+00  0.00000000000E+00  0.29738580095E+03  0.29738580095E+03  0.00000000000E+00 0.  1.
         22   -1    0    0    0    0 -0.00000000000E+00 -0.00000000000E+00 -0.53335249254E+03  0.53335249254E+03  0.00000000000E+00 0.  1.
         24    2    1    2    0    0 -0.35627810944E+02 -0.33105262929E+02 -0.45326535511E+03  0.46350893285E+03  0.83819743197E+02 0.  0.
         25    2    1    2    0    0  0.17860413768E+02  0.10203801066E+02 -0.70439995079E+01  0.12697122279E+03  0.12509580949E+03 0.  0.
        -24    2    1    2    0    0  0.17767397176E+02  0.22901461863E+02  0.22434266302E+03  0.24025813784E+03  0.80957921095E+02 0.  0.
        -13    1    3    3    0    0 -0.62228177013E+02 -0.23020996614E+02 -0.35760755490E+03  0.36371070320E+03  0.00000000000E+00 0.  1.
         14    1    3    3    0    0  0.26600366069E+02 -0.10084266314E+02 -0.95657800207E+02  0.99798229657E+02  0.00000000000E+00 0. -1.
         11    1    5    5    0    0 -0.20852862056E+02 -0.11933561654E+02  0.13294490541E+03  0.13509848121E+03  0.00000000000E+00 0. -1.
        -12    1    5    5    0    0  0.38620259233E+02  0.34835023517E+02  0.91397757610E+02  0.10515965663E+03  0.00000000000E+00 0.  1.
          5    1    4    4  501    0 -0.31241390595E+02 -0.28427453423E+02  0.32020007851E+02  0.53168579981E+02  0.41800000000E+01 0. -1.
         -5    1    4    4    0  501  0.49101804363E+02  0.38631254488E+02 -0.39064007359E+02  0.73802642811E+02  0.41800000000E+01 0. -1.
</event>
<event>
11    1  0.8864208E-009  0.1367674E+03  0.7561462E-02  0.1111223E+00
         22   -1    0    0    0    0  0.00000000000E+00  0.00000000000E+00  0.21038103593E+04  0.21038103593E+04  0.00000000000E+00 0. -1.
         22   -1    0    0    0    0 -0.00000000000E+00 -0.00000000000E+00 -0.32943893677E+02  0.32943893677E+02  0.00000000000E+00 0.  1.
         24    2    1    2    0    0  0.52324860965E+02 -0.80540512142E+01  0.76215168599E+02  0.12181433186E+03  0.78912741093E+02 0.  0.
         25    2    1    2    0    0 -0.60858989728E+02  0.54471773201E+02  0.64368199596E+03  0.66079128944E+03  0.12509046959E+03 0.  0.
        -24    2    1    2    0    0  0.85341287628E+01 -0.46417721986E+02  0.13509693011E+04  0.13541486317E+04  0.79831246714E+02 0.  0.
        -11    1    3    3    0    0  0.62604018865E+02  0.17153405747E+02  0.66450426987E+02  0.92893281531E+02  0.00000000000E+00 0.  1.
         12    1    3    3    0    0 -0.10279157900E+02 -0.25207456961E+02  0.97647416123E+01  0.28921050333E+02  0.00000000000E+00 0. -1.
         11    1    5    5    0    0  0.49978065222E+01 -0.63248008976E+02  0.12582068140E+04  0.12598054117E+04  0.00000000000E+00 0. -1.
        -12    1    5    5    0    0  0.35363222406E+01  0.16830286990E+02  0.92762487075E+02  0.94343219913E+02  0.00000000000E+00 0.  1.
          5    1    4    4  501    0 -0.50614896634E+02  0.60353455318E+02  0.64344189219E+03  0.64825870481E+03  0.41800000000E+01 0. -1.
         -5    1    4    4    0  501 -0.10244093094E+02 -0.58816821174E+01  0.24010376117E+00  0.12532584636E+02  0.41800000000E+01 0. -1.
</event>
<event>
11    1  0.8864208E-009  0.1453271E+03  0.7561462E-02  0.1101752E+00
         22   -1    0    0    0    0  0.00000000000E+00  0.00000000000E+00  0.24769543643E+03  0.24769543643E+03  0.00000000000E+00 0.  1.
         22   -1    0    0    0    0 -0.00000000000E+00 -0.00000000000E+00 -0.17015163803E+04  0.17015163803E+04  0.00000000000E+00 0. -1.
        -24    2    1    2    0    0  0.81840900322E+02  0.19152159647E+02 -0.14926945636E+04  0.14974728730E+04  0.84989452963E+02 0.  0.
         25    2    1    2    0    0 -0.14752983457E+02  0.26507523100E+02 -0.16531647930E+03  0.20951594557E+03  0.12508834405E+03 0.  0.
         24    2    1    2    0    0 -0.67087916864E+02 -0.45659682747E+02  0.20419009900E+03  0.24222299814E+03  0.10194502970E+03 0.  0.
        -11    1    5    5    0    0 -0.21650491616E+02 -0.22672238863E+02  0.18526493682E+03  0.18789856576E+03  0.00000000000E+00 0.  1.
         12    1    5    5    0    0 -0.45437425249E+02 -0.22987443884E+02  0.18925162186E+02  0.54324432380E+02  0.00000000000E+00 0. -1.
         13    1    3    3    0    0  0.88207737882E+02  0.38675207023E+02 -0.10868808410E+04  0.10911399265E+04  0.00000000000E+00 0. -1.
        -14    1    3    3    0    0 -0.63668375605E+01 -0.19523047376E+02 -0.40581372265E+03  0.40633294659E+03  0.00000000000E+00 0.  1.
          5    1    4    4  501    0 -0.19353833635E+02  0.75313173862E+02 -0.11709698429E+03  0.14062653079E+03  0.41800000000E+01 0.  1.
         -5    1    4    4    0  501  0.46008501784E+01 -0.48805650761E+02 -0.48219495016E+02  0.68889414776E+02  0.41800000000E+01 0.  1.
</event>
<event>
11    1  0.8864208E-009  0.1416146E+03  0.7561462E-02  0.1105769E+00
         22   -1    0    0    0    0  0.00000000000E+00  0.00000000000E+00  0.11483427374E+04  0.11483427374E+04  0.00000000000E+00 0. -1.
         22   -1    0    0    0    0 -0.00000000000E+00 -0.00000000000E+00 -0.93831523203E+03  0.93831523203E+03  0.00000000000E+00 0. -1.
         24    2    1    2    0    0  0.32884468701E+02 -0.25492018391E+02 -0.82436025050E+03  0.82934665487E+03  0.80714435227E+02 0.  0.
         25    2    1    2    0    0  0.33557185438E+02  0.15518260246E+02 -0.69956742837E+02  0.14801705316E+03  0.12509276982E+03 0.  0.
        -24    2    1    2    0    0 -0.66441654138E+02  0.99737581447E+01  0.11043444987E+04  0.11092942614E+04  0.80268407920E+02 0.  0.
        -11    1    3    3    0    0 -0.39172480896E+01  0.16220681870E+02 -0.44842865553E+02  0.47847026490E+02  0.00000000000E+00 0.  1.
         12    1    3    3    0    0  0.36801716790E+02 -0.41712700261E+02 -0.77951738494E+03  0.78149962838E+03  0.00000000000E+00 0. -1.
         11    1    5    5    0    0 -0.79241868583E+02  0.66281365141E+01  0.10609976601E+04  0.10639733271E+04  0.00000000000E+00 0. -1.
        -12    1    5    5    0    0  0.12800214445E+02  0.33456216306E+01  0.43346838581E+02  0.45320934334E+02  0.00000000000E+00 0.  1.
          5    1    4    4  501    0  0.45050045941E+02 -0.36988348181E+02 -0.73603498459E+02  0.93981870197E+02  0.41800000000E+01 0.  1.
         -5    1    4    4    0  501 -0.11492860503E+02  0.52506608427E+02  0.36467556214E+01  0.54035182961E+02  0.41800000000E+01 0.  1.
</event>
<event>
11    1  0.8864208E-009  0.2571026E+03  0.7561462E-02  0.1020182E+00
         22   -1    0    0    0    0  0.00000000000E+00  0.00000000000E+00  0.28938397197E+04  0.28938397197E+04  0.00000000000E+00 0.  1.
         22   -1    0    0    0    0 -0.00000000000E+00 -0.00000000000E+00 -0.51912430962E+02  0.51912430962E+02  0.00000000000E+00 0.  1.
        -24    2    1    2    0    0 -0.36890883405E+02  0.10822719498E+01  0.86187386198E+02  0.12507068919E+03  0.82778639538E+02 0.  0.
         25    2    1    2    0    0  0.19639341092E+03 -0.15114159996E+03  0.71703003532E+03  0.76889448005E+03  0.12510993089E+03 0.  0.
         24    2    1    2    0    0 -0.15950252752E+03  0.15005932801E+03  0.20387098672E+04  0.20517869814E+04  0.74384381651E+02 0.  0.
        -13    1    5    5    0    0 -0.91875477580E+02  0.93388283304E+02  0.87694102484E+03  0.88667245130E+03  0.00000000000E+00 0.  1.
         14    1    5    5    0    0 -0.67627049937E+02  0.56671044701E+02  0.11617688424E+04  0.11651145301E+04  0.00000000000E+00 0. -1.
         11    1    3    3    0    0  0.26859767339E+02  0.81121441249E+00  0.26415513669E+02  0.37681355240E+02  0.00000000000E+00 0. -1.
        -12    1    3    3    0    0 -0.63750650744E+02  0.27105753728E+00  0.59771872529E+02  0.87389333949E+02  0.00000000000E+00 0.  1.
          5    1    4    4  501    0  0.86327201033E+01  0.11421527594E+02  0.66312888655E+01  0.16322424482E+02  0.41800000000E+01 0.  1.
         -5    1    4    4    0  501  0.18776069082E+03 -0.16256312755E+03  0.71039874645E+03  0.75257205557E+03  0.41800000000E+01 0.  1.
</event>
<event>
11    1  0.8864208E-009  0.3272960E+03  0.7561462E-02  0.9892579E-01
         22   -1    0    0    0    0  0.00000000000E+00  0.00000000000E+00  0.57725955523E+03  0.57725955523E+03  0.00000000000E+00 0. -1.
         22   -1    0    0    0    0 -0.00000000000E+00 -0.00000000000E+00 -0.14630067892E+04  0.14630067892E+04  0.00000000000E+00 0. -1.
         24    2    1    2    0    0 -0.61116017363E+02  0.20427839965E+02 -0.11737139536E+04  0.11796424050E+04  0.98991385816E+02 0.  0.
         25    2    1    2    0    0  0.93038558968E+02 -0.31589804990E+03 -0.98974533421E+02  0.36591184580E+03  0.12509104381E+03 0.  0.
        -24    2    1    2    0    0 -0.31922541605E+02  0.29547020994E+03  0.38694125310E+03  0.49471209363E+03  0.81821932342E+02 0.  0.
        -11    1    3    3    0    0 -0.17691756678E+02  0.34061023545E+02 -0.14725419390E+03  0.15217407532E+03  0.00000000000E+00 0.  1.
         12    1    3    3    0    0 -0.43424260685E+02 -0.13633183580E+02 -0.10264597597E+04  0.10274683296E+04  0.00000000000E+00 0. -1.
         13    1    5    5    0    0 -0.37956919210E+02  0.25399646961E+03  0.36792033543E+03  0.44868731598E+03  0.00000000000E+00 0. -1.
        -14    1    5    5    0    0  0.60343776054E+01  0.41473740325E+02  0.19020917670E+02  0.46024777660E+02  0.00000000000E+00 0.  1.
          5    1    4    4  501    0  0.12125580648E+03 -0.28735101325E+03 -0.87862008459E+02  0.32405366894E+03  0.41800000000E+01 0.  1.
         -5    1    4    4    0  501 -0.28217247516E+02 -0.28547036654E+02 -0.11112524962E+02  0.41858176861E+02  0.41800000000E+01 0.  1.
</event>
<event>
11    1  0.8864208E-009  0.1531766E+03  0.7561462E-02  0.1093676E+00
         22   -1    0    0    0    0  0.00000000000E+00  0.00000000000E+00  0.25992000625E+04  0.25992000625E+04  0.00000000000E+00 0.  1.
         22   -1    0    0    0    0 -0.00000000000E+00 -0.00000000000E+00 -0.42147944906E+03  0.42147944906E+03  0.00000000000E+00 0.  1.
        -24    2    1    2    0    0 -0.15712634398E+02 -0.84931722143E+02 -0.37330510641E+03  0.39113996295E+03  0.78571520519E+02 0.  0.
         25    2    1    2    0    0  0.24004448692E+02  0.13943679584E+03  0.19485155151E+03  0.27135567385E+03  0.12509173041E+03 0.  0.
         24    2    1    2    0    0 -0.82918142944E+01 -0.54505073698E+02  0.23561741684E+04  0.23581838748E+04  0.80217942898E+02 0.  0.
        -11    1    5    5    0    0 -0.32156349281E+02 -0.28089433555E+02  0.19458338913E+04  0.19463022837E+04  0.00000000000E+00 0.  1.
         12    1    5    5    0    0  0.23864534987E+02 -0.26415640143E+02  0.41034027710E+03  0.41188159110E+03  0.00000000000E+00 0. -1.
         11    1    3    3    0    0  0.84042955532E+01 -0.89415947381E+01 -0.33898331870E+01  0.12730878573E+02  0.00000000000E+00 0. -1.
        -12    1    3    3    0    0 -0.24116929951E+02 -0.75990127405E+02 -0.36991527322E+03  0.37840908437E+03  0.00000000000E+00 0.  1.
          5    1    4    4  501    0  0.58429370571E+02  0.11822882680E+03  0.92250724604E+02  0.16099601058E+03  0.41800000000E+01 0. -1.
         -5    1    4    4    0  501 -0.34424921879E+02  0.21207969041E+02  0.10260082690E+03  0.11035966327E+03  0.41800000000E+01 0. -1.
</event>
<event>
11    1  0.8864208E-009  0.1355612E+03  0.7561462E-02  0.1112619E+00
         22   -1    0    0    0    0  0.00000000000E+00  0.00000000000E+00  0.66979276111E+03  0.66979276111E+03  0.00000000000E+00 0.  1.
         22   -1    0    0    0    0 -0.00000000000E+00 -0.00000000000E+00 -0.25355459459E+03  0.25355459459E+03  0.00000000000E+00 0.  1.
        -24    2    1    2    0    0  0.19664442091E+02  0.37093676951E+02 -0.21377481697E+03  0.23165321502E+03  0.78745847554E+02 0.  0.
         25    2    1    2    0    0  0.17644370179E+02 -0.70392708983E+02  0.17959339093E+03  0.23058519858E+03  0.12509712411E+03 0.  0.
         24    2    1    2    0    0 -0.37308812270E+02  0.33299032032E+02  0.45041959256E+03  0.46110894211E+03  0.85105076974E+02 0.  0.
        -13    1    5    5    0    0 -0.49784446960E+02  0.17983024824E+02  0.42786473682E+03  0.43112656303E+03  0.00000000000E+00 0.  1.
         14    1    5    5    0    0  0.12475634689E+02  0.15316007207E+02  0.22554855742E+02  0.29982379079E+02  0.00000000000E+00 0. -1.
         13    1    3    3    0    0  0.15340700834E+02  0.19538761287E+01 -0.51366928998E+00  0.15473157084E+02  0.00000000000E+00 0. -1.
        -14    1    3    3    0    0  0.43237412567E+01  0.35139800822E+02 -0.21326114768E+03  0.21618005793E+03  0.00000000000E+00 0.  1.
          5    1    4    4  501    0  0.69382499960E+02 -0.32520127135E+02  0.71785509317E+02  0.10508150036E+03  0.41800000000E+01 0. -1.
         -5    1    4    4    0  501 -0.51738129781E+02 -0.37872581848E+02  0.10780788161E+03  0.12550369822E+03  0.41800000000E+01 0. -1.
</event>
<event>
11    1  0.8864208E-009  0.1386048E+03  0.7561462E-02  0.1109126E+00
         22   -1    0    0    0    0  0.00000000000E+00  0.00000000000E+00  0.22158179540E+03  0.22158179540E+03  0.00000000000E+00 0. -1.
         22   -1    0    0    0    0 -0.00000000000E+00 -0.00000000000E+00 -0.16038754768E+04  0.16038754768E+04  0.00000000000E+00 0. -1.
        -24    2    1    2    0    0 -0.30447741584E+02  0.51015346688E+02 -0.13320745118E+04  0.13357315610E+04  0.78909236539E+02 0.  0.
         25    2    1    2    0    0  0.31885458661E+02 -0.53888129715E+02 -0.24316729273E+03  0.28053269849E+03  0.12509056587E+03 0.  0.
         24    2    1    2    0    0 -0.14377170771E+01  0.28727830269E+01  0.19294812313E+03  0.20919301267E+03  0.80761490931E+02 0.  0.
        -13    1    5    5    0    0  0.37491109672E+02 -0.83961458555E+01  0.71605175242E+02  0.81261181945E+02  0.00000000000E+00 0.  1.
         14    1    5    5    0    0 -0.38928826749E+02  0.11268928882E+02  0.12134294789E+03  0.12793183073E+03  0.00000000000E+00 0. -1.
         13    1    3    3    0    0 -0.15926355458E+02  0.12543714977E+01 -0.95249025514E+03  0.95262422202E+03  0.00000000000E+00 0. -1.
        -14    1    3    3    0    0 -0.14521386127E+02  0.49760975190E+02 -0.37958425664E+03  0.38310733900E+03  0.00000000000E+00 0.  1.
          5    1    4    4  501    0 -0.19948101033E+02  0.17009246136E+02 -0.54823269182E+01  0.27106631982E+02  0.41800000000E+01 0.  1.
         -5    1    4    4    0  501  0.51833559695E+02 -0.70897375851E+02 -0.23768496581E+03  0.25342606651E+03  0.41800000000E+01 0.  1.
</event>
<event>
11    1  0.8864208E-009  0.5890498E+03  0.7561462E-02  0.9213962E-01
         22   -1    0    0    0    0  0.00000000000E+00  0.00000000000E+00  0.19636736963E+04  0.19636736963E+04  0.00000000000E+00 0. -1.
         22   -1    0    0    0    0 -0.00000000000E+00 -0.00000000000E+00 -0.24882074403E+03  0.24882074403E+03  0.00000000000E+00 0. -1.
        -24    2    1    2    0    0 -0.33279213683E+02 -0.10380331312E+03  0.39720430796E+02  0.14063511354E+03  0.79485147417E+02 0.  0.
         25    2    1    2    0    0 -0.54826585270E+03 -0.17938788191E+02  0.50049371997E+03  0.75303315990E+03  0.12509089023E+03 0.  0.
         24    2    1    2    0    0  0.58154506638E+03  0.12174210131E+03  0.11746388015E+04  0.13188261669E+04  0.80686684167E+02 0.  0.
        -11    1    5    5    0    0  0.25840295824E+03  0.36348378071E+02  0.43671391911E+03  0.50873602248E+03  0.00000000000E+00 0.  1.
         12    1    5    5    0    0  0.32314210814E+03  0.85393723243E+02  0.73792488237E+03  0.81009014439E+03  0.00000000000E+00 0. -1.
         11    1    3    3    0    0  0.25033381621E+02 -0.35028191841E+02  0.23397798807E+02  0.49001034765E+02  0.00000000000E+00 0. -1.
        -12    1    3    3    0    0 -0.58312595304E+02 -0.68775121282E+02  0.16322631989E+02  0.91634078778E+02  0.00000000000E+00 0.  1.
          5    1    4    4  501    0 -0.49530474797E+03 -0.46798689825E+02  0.41260126280E+03  0.64635453521E+03  0.41800000000E+01 0. -1.
         -5    1    4    4    0  501 -0.52961104732E+02  0.28859901634E+02  0.87892457174E+02  0.10667862469E+03  0.41800000000E+01 0. -1.
</event>
<event>
11    1  0.8864208E-009  0.1291806E+03  0.7561462E-02  0.1120280E+00
         22   -1    0    0    0    0  0.00000000000E+00  0.00000000000E+00  0.12275056214E+04  0.12275056214E+04  0.00000000000E+00 0. -1.
         22   -1    0    0    0    0 -0.00000000000E+00 -0.00000000000E+00 -0.29663158774E+03  0.29663158774E+03  0.00000000000E+00 0. -1.
         24    2    1    2    0    0  0.20411232642E+02  0.16006557953E+02 -0.24521307172E+03  0.25926985067E+03  0.80116019676E+02 0.  0.
         25    2    1    2    0    0 -0.44814350053E+02  0.47328156753E+01  0.60680244299E+02  0.14615576242E+03  0.12509472141E+03 0.  0.
        -24    2    1    2    0    0  0.24403117411E+02 -0.20739373629E+02  0.11154068611E+04  0.11187115961E+04  0.79734155928E+02 0.  0.
        -11    1    3    3    0    0 -0.25779347332E+02 -0.13436141562E+02 -0.96799678627E+02  0.10107068037E+03  0.00000000000E+00 0.  1.
         12    1    3    3    0    0  0.46190579974E+02  0.29442699515E+02 -0.14841339309E+03  0.15819917030E+03  0.00000000000E+00 0. -1.
         13    1    5    5    0    0  0.28691503606E+01 -0.49532587312E+02  0.59587109567E+03  0.59793316674E+03  0.00000000000E+00 0. -1.
        -14    1    5    5    0    0  0.21533967050E+02  0.28793213683E+02  0.51953576544E+03  0.52077842934E+03  0.00000000000E+00 0.  1.
          5    1    4    4  501    0  0.36642117037E+02  0.23427838049E+02  0.41601405302E+02  0.60329575332E+02  0.41800000000E+01 0.  1.
         -5    1    4    4    0  501 -0.81456467090E+02 -0.18695022374E+02  0.19078838996E+02  0.85826187086E+02  0.41800000000E+01 0.  1.
</event>
<event>
11    1  0.8864208E-009  0.1364583E+03  0.7561462E-02  0.1111579E+00
         22   -1    0    0    0    0  0.00000000000E+00  0.00000000000E+00  0.99150642213E+03  0.99150642213E+03  0.00000000000E+00 0. -1.
         22   -1    0    0    0    0 -0.00000000000E+00 -0.00000000000E+00 -0.11032537732E+04  0.11032537732E+04  0.00000000000E+00 0.  1.
        -24    2    1    2    0    0  0.23706069774E+02  0.23352862307E+02 -0.55706034548E+03  0.56418189618E+03  0.82931595595E+02 0.  0.
         25    2    1    2    0    0  0.24927242004E+02 -0.48117010191E+02 -0.53164759964E+03  0.54884716271E+03  0.12508966284E+03 0.  0.
         24    2    1    2    0    0 -0.48633311778E+02  0.24764147884E+02  0.97696059404E+03  0.98173113646E+03  0.79784459329E+02 0.  0.
        -11    1    5    5    0    0 -0.30547493305E+02 -0.10442604715E+02  0.78842466186E+03  0.78908532160E+03  0.00000000000E+00 0.  1.
         12    1    5    5    0    0 -0.18085818473E+02  0.35206752598E+02  0.18853593218E+03  0.19264581486E+03  0.00000000000E+00 0. -1.
         13    1    3    3    0    0  0.10511967057E+02 -0.25579745691E+02 -0.34675822337E+03  0.34785929672E+03  0.00000000000E+00 0. -1.
        -14    1    3    3    0    0  0.13194102718E+02  0.48932607998E+02 -0.21030212211E+03  0.21632259946E+03  0.00000000000E+00 0.  1.
          5    1    4    4  501    0  0.19266420044E+02  0.20990791977E+02 -0.39021619771E+03  0.39127734619E+03  0.41800000000E+01 0. -1.
         -5    1    4    4    0  501  0.56608219595E+01 -0.69107802168E+02 -0.14143140193E+03  0.15756981652E+03  0.41800000000E+01 0. -1.
</event>
<event>
11    1  0.8864208E-009  0.1429962E+03  0.7561462E-02  0.1104258E+00
         22   -1    0    0    0    0  0.00000000000E+00  0.00000000000E+00  0.20829831345E+04  0.20829831345E+04  0.00000000000E+00 0. -1.
         22   -1    0    0    0    0 -0.00000000000E+00 -0.00000000000E+00 -0.69161661241E+02  0.69161661241E+02  0.00000000000E+00 0. -1.
         24    2    1    2    0    0 -0.39162050446E+02 -0.50791494344E+02  0.41853153582E+02  0.11085061840E+03  0.80141943089E+02 0.  0.
         25    2    1    2    0    0  0.56603363944E+02 -0.18052084781E+02  0.11167535743E+03  0.17790132356E+03  0.12509067469E+03 0.  0.
        -24    2    1    2    0    0 -0.17441313498E+02  0.68843579126E+02  0.18602929622E+04  0.18633928538E+04  0.80618759019E+02 0.  0.
        -11    1    3    3    0    0 -0.15739694930E+02  0.44526378190E+01  0.47829653704E+02  0.50549379358E+02  0.00000000000E+00 0.  1.
         12    1    3    3    0    0 -0.23422355516E+02 -0.55244132163E+02 -0.59765001216E+01  0.60301239043E+02  0.00000000000E+00 0. -1.
         11    1    5    5    0    0 -0.57763917406E+01  0.60209252908E+02  0.18109514758E+04  0.18119613044E+04  0.00000000000E+00 0. -1.
        -12    1    5    5    0    0 -0.11664921757E+02  0.86343262173E+01  0.49341486378E+02  0.51431549333E+02  0.00000000000E+00 0.  1.
          5    1    4    4  501    0  0.64961064940E+02 -0.56500246383E+02  0.37847320508E+02  0.94138779836E+02  0.41800000000E+01 0. -1.
         -5    1    4    4    0  501 -0.83577009959E+01  0.38448161601E+02  0.73828036919E+02  0.83762543728E+02  0.41800000000E+01 0. -1.
</event>
<event>
11    1  0.8864208E-009  0.2062508E+03  0.7561462E-02  0.1050189E+00
         22   -1    0    0    0    0  0.00000000000E+00  0.00000000000E+00  0.10665238514E+04  0.10665238514E+04  0.00000000000E+00 0.  1.
         22   -1    0    0    0    0 -0.00000000000E+00 -0.00000000000E+00 -0.72538020219E+02  0.72538020219E+02  0.00000000000E+00 0. -1.
        -24    2    1    2    0    0 -0.10447528741E+03 -0.15153751953E+03  0.15561037708E+03  0.25446946326E+03  0.81617478354E+02 0.  0.
         25    2    1    2    0    0  0.53165263084E+02  0.10692706441E+03  0.44884404849E+03  0.48100691424E+03  0.12508688733E+03 0.  0.
         24    2    1    2    0    0  0.51310024331E+02  0.44610455117E+02  0.38953140561E+03  0.40358549411E+03  0.80769572227E+02 0.  0.
        -13    1    5    5    0    0  0.27072079877E+02 -0.20935807316E+02  0.16148087683E+03  0.16506749867E+03  0.00000000000E+00 0.  1.
         14    1    5    5    0    0  0.24237944454E+02  0.65546262433E+02  0.22805052878E+03  0.23851799544E+03  0.00000000000E+00 0. -1.
         13    1    3    3    0    0 -0.41419948556E+02 -0.12692418616E+03  0.98656999337E+02  0.16600772479E+03  0.00000000000E+00 0. -1.
        -14    1    3    3    0    0 -0.63055338859E+02 -0.24613333373E+02  0.56953377745E+02  0.88461738480E+02  0.00000000000E+00 0.  1.
          5    1    4    4  501    0  0.50758772035E+02  0.81082549848E+02  0.44408311756E+03  0.45428858728E+03  0.41800000000E+01 0. -1.
         -5    1    4    4    0  501  0.24064910483E+01  0.25844514565E+02  0.47609309226E+01  0.26718326960E+02  0.41800000000E+01 0. -1.
</event>
<event>
11    1  0.8864208E-009  0.3131489E+03  0.7561462E-02  0.9947749E-01
         22   -1    0    0    0    0  0.00000000000E+00  0.00000000000E+00  0.27389095053E+04  0.27389095053E+04  0.00000000000E+00 0.  1.
         22   -1    0    0    0    0 -0.00000000000E+00 -0.00000000000E+00 -0.14066599963E+03  0.14066599963E+03  0.00000000000E+00 0.  1.
         24    2    1    2    0    0  0.46611387871E+02  0.66085912647E+02 -0.59956276872E+02  0.12912066136E+03  0.80854317909E+02 0.  0.
         25    2    1    2    0    0 -0.31913642550E+03 -0.91943720685E+02  0.87013405307E+03  0.93972499748E+03  0.12509234477E+03 0.  0.
        -24    2    1    2    0    0  0.27252503763E+03  0.25857808038E+02  0.17880657295E+04  0.18107298461E+04  0.81394104601E+02 0.  0.
        -11    1    3    3    0    0  0.51119610958E+02  0.74014627062E+02 -0.71144236203E+02  0.11468601479E+03  0.00000000000E+00 0.  1.
         12    1    3    3    0    0 -0.45082230872E+01 -0.79287144144E+01  0.11187959331E+02  0.14434646572E+02  0.00000000000E+00 0. -1.
         11    1    5    5    0    0  0.34828821125E+02 -0.20871774527E+02  0.18021466086E+03  0.18473224338E+03  0.00000000000E+00 0. -1.
        -12    1    5    5    0    0  0.23769621651E+03  0.46729582565E+02  0.16078510686E+04  0.16259976028E+04  0.00000000000E+00 0.  1.
          5    1    4    4  501    0 -0.22660108572E+03 -0.28371274082E+02  0.69576390899E+03  0.73229629980E+03  0.41800000000E+01 0. -1.
         -5    1    4    4    0  501 -0.92535339784E+02 -0.63572446603E+02  0.17437014408E+03  0.20742869768E+03  0.41800000000E+01 0. -1.
</event>
<event>
11    1  0.8864208E-009  0.1472840E+03  0.7561462E-02  0.1099687E+00
         22   -1    0    0    0    0  0.00000000000E+00  0.00000000000E+00  0.35009078331E+04  0.35009078331E+04  0.00000000000E+00 0. -1.
         22   -1    0    0    0    0 -0.00000000000E+00 -0.00000000000E+00 -0.24142467826E+04  0.24142467826E+04  0.00000000000E+00 0. -1.
         24    2    1    2    0    0  0.27230661546E+02 -0.34063208597E+02 -0.23865323424E+04  0.23882980106E+04  0.80801949363E+02 0.  0.
         25    2    1    2    0    0 -0.99942576579E+02  0.57608095921E+02  0.25405641231E+03  0.30577614697E+03  0.12508868891E+03 0.  0.
        -24    2    1    2    0    0  0.72711915033E+02 -0.23544887324E+02  0.32191369805E+04  0.32210804582E+04  0.81700885497E+02 0.  0.
        -11    1    3    3    0    0  0.45081000341E+02 -0.42050451794E+02 -0.11817130649E+04  0.11833200348E+04  0.00000000000E+00 0.  1.
         12    1    3    3    0    0 -0.17850338795E+02  0.79872431978E+01 -0.12048192775E+04  0.12049779757E+04  0.00000000000E+00 0. -1.
         11    1    5    5    0    0  0.84341617069E+02 -0.38624734842E+02  0.27118492188E+04  0.27134353805E+04  0.00000000000E+00 0. -1.
        -12    1    5    5    0    0 -0.11629702036E+02  0.15079847518E+02  0.50728776166E+03  0.50764507769E+03  0.00000000000E+00 0.  1.
          5    1    4    4  501    0  0.27411370332E+02  0.24034504006E+01  0.22577810267E+02  0.35838383247E+02  0.41800000000E+01 0. -1.
         -5    1    4    4    0  501 -0.12735394691E+03  0.55204645520E+02  0.23147860204E+03  0.26993776372E+03  0.41800000000E+01 0. -1.
</event>
<event>
11    1  0.8864208E-009  0.1465232E+03  0.7561462E-02  0.1100485E+00
         22   -1    0    0    0    0  0.00000000000E+00  0.00000000000E+00  0.12752906587E+04  0.12752906587E+04  0.00000000000E+00 0. -1.
         22   -1    0    0    0    0 -0.00000000000E+00 -0.00000000000E+00 -0.34899385224E+02  0.34899385224E+02  0.00000000000E+00 0.  1.
         24    2    1    2    0    0  0.25065964786E+02 -0.58901005698E+02  0.15890740377E+03  0.18907686923E+03  0.80005427575E+02 0.  0.
         25    2    1    2    0    0 -0.60609429839E+02  0.86998682465E+02  0.38572319647E+03  0.41913253869E+03  0.12508967564E+03 0.  0.
        -24    2    1    2    0    0  0.35543465053E+02 -0.28097676767E+02  0.69576067327E+03  0.70198063605E+03  0.81492831386E+02 0.  0.
        -11    1    3    3    0    0  0.32089320893E+02 -0.24596406658E+00  0.19205409297E+02  0.37398298891E+02  0.00000000000E+00 0.  1.
         12    1    3    3    0    0 -0.70233561067E+01 -0.58655041631E+02  0.13970199448E+03  0.15167857034E+03  0.00000000000E+00 0. -1.
         11    1    5    5    0    0  0.60234123245E+02 -0.27153266234E+02  0.42633924259E+03  0.43142855636E+03  0.00000000000E+00 0. -1.
        -12    1    5    5    0    0 -0.24690658192E+02 -0.94441053325E+00  0.26942143068E+03  0.27055207969E+03  0.00000000000E+00 0.  1.
          5    1    4    4  501    0 -0.69443122978E+02 -0.87346647013E+00  0.22727801493E+03  0.23768861720E+03  0.41800000000E+01 0. -1.
         -5    1    4    4    0  501  0.88336931386E+01  0.87872148935E+02  0.15844518154E+03  0.18144392149E+03  0.41800000000E+01 0. -1.
</event>
<event>
11    1  0.8864208E-009  0.1429857E+03  0.7561462E-02  0.1104269E+00
         22   -1    0    0    0    0  0.00000000000E+00  0.00000000000E+00  0.31033751313E+03  0.31033751313E+03  0.00000000000E+00 0. -1.
         22   -1    0    0    0    0 -0.00000000000E+00 -0.00000000000E+00 -0.71150784135E+03  0.71150784135E+03  0.00000000000E+00 0. -1.
        -24    2    1    2    0    0  0.56696996557E+02 -0.39658859123E+02 -0.66086523786E+03  0.66873573682E+03  0.75347518664E+02 0.  0.
         25    2    1    2    0    0 -0.60018970722E+02  0.39509705932E+02  0.10611545596E+03  0.17908518983E+03  0.12509085304E+03 0.  0.
         24    2    1    2    0    0  0.33219741652E+01  0.14915319090E+00  0.15357945367E+03  0.17402442783E+03  0.81772826357E+02 0.  0.
        -11    1    5    5    0    0 -0.17907297298E+02 -0.37432287015E+01 -0.63655708841E+00  0.18305416209E+02  0.00000000000E+00 0.  1.
         12    1    5    5    0    0  0.21229271463E+02  0.38923818924E+01  0.15421601076E+03  0.15571901162E+03  0.00000000000E+00 0. -1.
         11    1    3    3    0    0  0.36171148247E+02  0.66305368943E+01 -0.12007223903E+03  0.12557730118E+03  0.00000000000E+00 0. -1.
        -12    1    3    3    0    0  0.20525848310E+02 -0.46289396017E+02 -0.54079299882E+03  0.54315843564E+03  0.00000000000E+00 0.  1.
          5    1    4    4  501    0 -0.81344913275E+02 -0.84445578639E+01  0.94732800643E+02  0.12522013173E+03  0.41800000000E+01 0. -1.
         -5    1    4    4    0  501  0.21325942553E+02  0.47954263796E+02  0.11382655322E+02  0.53865058100E+02  0.41800000000E+01 0. -1.
</event>
<event>
11    1  0.8864208E-009  0.1836155E+03  0.7561462E-02  0.1066755E+00
         22   -1    0    0    0    0  0.00000000000E+00  0.00000000000E+00  0.12827999430E+04  0.12827999430E+04  0.00000000000E+00 0. -1.
         22   -1    0    0    0    0 -0.00000000000E+00 -0.00000000000E+00 -0.93605078261E+03  0.93605078261E+03  0.00000000000E+00 0.  1.
        -24    2    1    2    0    0  0.23677339405E+02  0.21010718438E+02 -0.84809866485E+03  0.85257090328E+03  0.81263356488E+02 0.  0.
         25    2    1    2    0    0 -0.15652369959E+03 -0.13985950940E+02  0.44815201663E+02  0.20579491499E+03  0.12509144407E+03 0.  0.
         24    2    1    2    0    0  0.13284636019E+03 -0.70247674983E+01  0.11500326235E+04  0.11604849073E+04  0.80328588013E+02 0.  0.
        -11    1    5    5    0    0  0.75877600104E+02 -0.32295562325E+02  0.85346116879E+03  0.85743593357E+03  0.00000000000E+00 0.  1.
         12    1    5    5    0    0  0.56968760082E+02  0.25270794827E+02  0.29657145476E+03  0.30304897372E+03  0.00000000000E+00 0. -1.
         13    1    3    3    0    0  0.35278745078E+02  0.43803132578E+02 -0.42579541845E+03  0.42949393785E+03  0.00000000000E+00 0. -1.
        -14    1    3    3    0    0 -0.11601405673E+02 -0.22792414140E+02 -0.42230324641E+03  0.42307696543E+03  0.00000000000E+00 0.  1.
          5    1    4    4  501    0 -0.86766641661E+02 -0.35935828181E+02  0.81005871527E+02  0.12409374470E+03  0.41800000000E+01 0.  1.
         -5    1    4    4    0  501 -0.69757057931E+02  0.21949877241E+02 -0.36190669864E+02  0.81701170293E+02  0.41800000000E+01 0.  1.
</event>
<event>
11    1  0.8864208E-009  0.1273917E+03  0.7561462E-02  0.1122516E+00
         22   -1    0    0    0    0  0.00000000000E+00  0.00000000000E+00  0.37022117596E+03  0.37022117596E+03  0.00000000000E+00 0. -1.
         22   -1    0    0    0    0 -0.00000000000E+00 -0.00000000000E+00 -0.67210595731E+03  0.67210595731E+03  0.00000000000E+00 0.  1.
        -24    2    1    2    0    0 -0.12159627088E+02 -0.20031736856E+02 -0.52510383708E+03  0.53388128983E+03  0.93520398291E+02 0.  0.
         25    2    1    2    0    0 -0.74214291379E+01  0.36356002874E+02 -0.10664930033E+03  0.16851796338E+03  0.12508954460E+03 0.  0.
         24    2    1    2    0    0  0.19581056226E+02 -0.16324266018E+02  0.32986835607E+03  0.33992788006E+03  0.78025200306E+02 0.  0.
        -13    1    5    5    0    0 -0.18127420188E+02 -0.29308558436E+02  0.83173261176E+02  0.90029919110E+02  0.00000000000E+00 0.  1.
         14    1    5    5    0    0  0.37708476414E+02  0.12984292418E+02  0.24669509489E+03  0.24989796095E+03  0.00000000000E+00 0. -1.
         13    1    3    3    0    0 -0.27052860302E+02 -0.35548534621E+02 -0.11741901771E+03  0.12562953985E+03  0.00000000000E+00 0. -1.
        -14    1    3    3    0    0  0.14893233214E+02  0.15516797765E+02 -0.40768481938E+03  0.40825174998E+03  0.00000000000E+00 0.  1.
          5    1    4    4  501    0  0.51704787156E+02  0.65307372433E+00 -0.15627010371E+02  0.54180138181E+02  0.41800000000E+01 0.  1.
         -5    1    4    4    0  501 -0.59126216294E+02  0.35702929149E+02 -0.91022289958E+02  0.11433782520E+03  0.41800000000E+01 0.  1.
</event>
<event>
11    1  0.8864208E-009  0.1725244E+03  0.7561462E-02  0.1075856E+00
         22   -1    0    0    0    0  0.00000000000E+00  0.00000000000E+00  0.45607403033E+03  0.45607403033E+03  0.00000000000E+00 0. -1.
         22   -1    0    0    0    0 -0.00000000000E+00 -0.00000000000E+00 -0.20574643941E+03  0.20574643941E+03  0.00000000000E+00 0. -1.
         24    2    1    2    0    0  0.15482111433E+02 -0.53214455531E+02 -0.10754154193E+03  0.14178103920E+03  0.73927030130E+02 0.  0.
         25    2    1    2    0    0 -0.13019035413E+03  0.57973466829E+02  0.73805474669E+02  0.20348289181E+03  0.12509031940E+03 0.  0.
        -24    2    1    2    0    0  0.11470824269E+03 -0.47590112977E+01  0.28406365818E+03  0.31655653873E+03  0.79594291126E+02 0.  0.
        -13    1    3    3    0    0  0.28862680998E+01 -0.59478484907E+02 -0.37570653966E+02  0.70410047222E+02  0.00000000000E+00 0.  1.
         14    1    3    3    0    0  0.12595843333E+02  0.62640293761E+01 -0.69970887964E+02  0.71370991977E+02  0.00000000000E+00 0. -1.
         13    1    5    5    0    0  0.73576903216E+02 -0.36115688775E+02  0.12659736507E+03  0.15081378088E+03  0.00000000000E+00 0. -1.
        -14    1    5    5    0    0  0.41131339477E+02  0.31356677477E+02  0.15746629312E+03  0.16574275784E+03  0.00000000000E+00 0.  1.
          5    1    4    4  501    0 -0.13382384922E+03  0.11261932963E+02  0.26849016688E+02  0.13701823182E+03  0.41800000000E+01 0. -1.
         -5    1    4    4    0  501  0.36334950894E+01  0.46711533865E+02  0.46956457981E+02  0.66464659998E+02  0.41800000000E+01 0. -1.
</event>
<event>
11    1  0.8864208E-009  0.1366392E+03  0.7561462E-02  0.1111370E+00
         22   -1    0    0    0    0  0.00000000000E+00  0.00000000000E+00  0.62605528728E+03  0.62605528728E+03  0.00000000000E+00 0.  1.
         22   -1    0    0    0    0 -0.00000000000E+00 -0.00000000000E+00 -0.13788681919E+03  0.13788681919E+03  0.00000000000E+00 0.  1.
        -24    2    1    2    0    0 -0.15347903701E+02 -0.54955911997E+02 -0.78615416151E+02  0.12538389095E+03  0.79278156151E+02 0.  0.
         25    2    1    2    0    0 -0.32525733439E+02  0.49409904389E+02  0.12424063156E+03  0.18596259872E+03  0.12508833522E+03 0.  0.
         24    2    1    2    0    0  0.47873637140E+02  0.55460076084E+01  0.44254325269E+03  0.45259561679E+03  0.81704458292E+02 0.  0.
        -13    1    5    5    0    0  0.35580179723E+02 -0.24314948071E+02  0.37775827506E+03  0.38020846948E+03  0.00000000000E+00 0.  1.
         14    1    5    5    0    0  0.12293457417E+02  0.29860955679E+02  0.64784977631E+02  0.72387147313E+02  0.00000000000E+00 0. -1.
         13    1    3    3    0    0 -0.38937137297E+02 -0.24407739748E+02 -0.10570109982E+02  0.47154699082E+02  0.00000000000E+00 0. -1.
        -14    1    3    3    0    0  0.23589233595E+02 -0.30548172249E+02 -0.68045306168E+02  0.78229191872E+02  0.00000000000E+00 0.  1.
          5    1    4    4  501    0  0.48189820590E+02  0.18169699977E+02  0.48801159866E+02  0.71073359355E+02  0.41800000000E+01 0.  1.
         -5    1    4    4    0  501 -0.80715554028E+02  0.31240204412E+02  0.75439471690E+02  0.11488923937E+03  0.41800000000E+01 0.  1.
</event>
<event>
11    1  0.8864208E-009  0.1870621E+03  0.7561462E-02  0.1064069E+00
         22   -1    0    0    0    0  0.00000000000E+00  0.00000000000E+00  0.15774213693E+04  0.15774213693E+04  0.00000000000E+00 0.  1.
         22   -1    0    0    0    0 -0.00000000000E+00 -0.00000000000E+00 -0.11653452621E+04  0.11653452621E+04  0.00000000000E+00 0.  1.
         24    2    1    2    0    0 -0.71680657172E+02  0.11967987807E+03 -0.10341039258E+04  0.10462350648E+04  0.75996655440E+02 0.  0.
         25    2    1    2    0    0 -0.29139771345E+02 -0.16886138814E+03 -0.29734008377E+02  0.21423303810E+03  0.12509351974E+03 0.  0.
        -24    2    1    2    0    0  0.10082042852E+03  0.49181510069E+02  0.14759140413E+04  0.14822985285E+04  0.79392005573E+02 0.  0.
        -11    1    3    3    0    0 -0.80388655520E+02  0.11340805412E+03 -0.80754676753E+03  0.81942388568E+03  0.00000000000E+00 0.  1.
         12    1    3    3    0    0  0.87079983484E+01  0.62718239444E+01 -0.22655715822E+03  0.22681117907E+03  0.00000000000E+00 0. -1.
         13    1    5    5    0    0 -0.12562270805E+02  0.11669612317E+02  0.13699965084E+03  0.13806844255E+03  0.00000000000E+00 0. -1.
        -14    1    5    5    0    0  0.11338269932E+03  0.37511897752E+02  0.13389143905E+04  0.13442300860E+04  0.00000000000E+00 0.  1.
          5    1    4    4  501    0  0.45500799929E+02 -0.31718431079E+02 -0.13185068886E+02  0.57163800660E+02  0.41800000000E+01 0.  1.
         -5    1    4    4    0  501 -0.74640571274E+02 -0.13714295706E+03 -0.16548939491E+02  0.15706923744E+03  0.41800000000E+01 0.  1.
</event>
<event>
11    1  0.8864208E-009  0.1728256E+03  0.7561462E-02  0.1075599E+00
         22   -1    0    0    0    0  0.00000000000E+00  0.00000000000E+00  0.20024524130E+03  0.20024524130E+03  0.00000000000E+00 0.  1.
         22   -1    0    0    0    0 -0.00000000000E+00 -0.00000000000E+00 -0.91382412714E+03  0.91382412714E+03  0.00000000000E+00 0. -1.
         24    2    1    2    0    0  0.54647278320E+02  0.11283132861E+03 -0.76607606692E+03  0.78032243504E+03  0.79456457144E+02 0.  0.
         25    2    1    2    0    0  0.20870179156E+01 -0.87814798345E+02 -0.76469502903E+02  0.17088550263E+03  0.12505389111E+03 0.  0.
        -24    2    1    2    0    0 -0.56734296236E+02 -0.25016530267E+02  0.12896668399E+03  0.16286143077E+03  0.77761384363E+02 0.  0.
        -11    1    3    3    0    0  0.64604722456E+01  0.32706491601E+02 -0.65117016515E+02  0.73155164782E+02  0.00000000000E+00 0.  1.
         12    1    3    3    0    0  0.48186806075E+02  0.80124837011E+02 -0.70095905040E+03  0.70716727026E+03  0.00000000000E+00 0. -1.
         11    1    5    5    0    0  0.13362966966E+02 -0.21438078014E+02  0.16118146340E+02  0.29965892554E+02  0.00000000000E+00 0. -1.
        -12    1    5    5    0    0 -0.70097263202E+02 -0.35784522523E+01  0.11284853765E+03  0.13289553822E+03  0.00000000000E+00 0.  1.
          5    1    4    4  501    0 -0.28002456035E+02  0.12014955070E+02 -0.56952039806E+02  0.64726377370E+02  0.41800000000E+01 0. -1.
         -5    1    4    4    0  501  0.30089473950E+02 -0.99829753415E+02 -0.19517463096E+02  0.10615912526E+03  0.41800000000E+01 0. -1.
</event>
<event>
11    1  0.8864208E-009  0.1512801E+03  0.7561462E-02  0.1095578E+00
         22   -1    0    0    0    0  0.00000000000E+00  0.00000000000E+00  0.10720406525E+04  0.10720406525E+04  0.00000000000E+00 0. -1.
         22   -1    0    0    0    0 -0.00000000000E+00 -0.00000000000E+00 -0.30775705248E+03  0.30775705248E+03  0.00000000000E+00 0.  1.
        -24    2    1    2    0    0 -0.80534006814E+01  0.52042591369E+02 -0.25946196203E+03  0.27669084391E+03  0.80399159101E+02 0.  0.
         25    2    1    2    0    0  0.73853850680E+02 -0.99982188804E+02  0.18104693436E+03  0.25273675742E+03  0.12508815600E+03 0.  0.
         24    2    1    2    0    0 -0.65800449998E+02  0.47939597436E+02  0.84269862769E+03  0.85037010365E+03  0.79752315597E+02 0.  0.
        -11    1    5    5    0    0 -0.13669294449E+02  0.10854603513E+02  0.26900458893E+02  0.32067221844E+02  0.00000000000E+00 0.  1.
         12    1    5    5    0    0 -0.52131155549E+02  0.37084993923E+02  0.81579816880E+03  0.81830288180E+03  0.00000000000E+00 0. -1.
         11    1    3    3    0    0  0.94871024779E+00 -0.57330677651E+01  0.38460015832E+01  0.69684894569E+01  0.00000000000E+00 0. -1.
        -12    1    3    3    0    0 -0.90021109292E+01  0.57775659134E+02 -0.26330796361E+03  0.26972235445E+03  0.00000000000E+00 0.  1.
          5    1    4    4  501    0  0.97335119548E+02 -0.65978046870E+02  0.76772122575E+02  0.14049433928E+03  0.41800000000E+01 0. -1.
         -5    1    4    4    0  501 -0.23481268868E+02 -0.34004141935E+02  0.10427481178E+03  0.11224241814E+03  0.41800000000E+01 0. -1.
</event>
<event>
11    1  0.8864208E-009  0.1259941E+03  0.7561462E-02  0.1124291E+00
         22   -1    0    0    0    0  0.00000000000E+00  0.00000000000E+00  0.25593581370E+04  0.25593581370E+04  0.00000000000E+00 0. -1.
         22   -1    0    0    0    0 -0.00000000000E+00 -0.00000000000E+00 -0.37579527084E+03  0.37579527084E+03  0.00000000000E+00 0.  1.
         24    2    1    2    0    0  0.30929749317E+02 -0.30343718666E+01 -0.33792159195E+03  0.34796733139E+03  0.76970154021E+02 0.  0.
         25    2    1    2    0    0 -0.15420464661E+02  0.98978654484E-01  0.91481217598E+02  0.15573395606E+03  0.12508577605E+03 0.  0.
        -24    2    1    2    0    0 -0.15509284656E+02  0.29353932121E+01  0.24300032405E+04  0.24314521204E+04  0.82428820348E+02 0.  0.
        -11    1    3    3    0    0  0.44095413301E+02 -0.29769592029E+02 -0.21522974562E+03  0.22170809070E+03  0.00000000000E+00 0.  1.
         12    1    3    3    0    0 -0.13165663985E+02  0.26735220162E+02 -0.12269184633E+03  0.12625924069E+03  0.00000000000E+00 0. -1.
         13    1    5    5    0    0 -0.35811996875E+02  0.50268479309E+01  0.22507739532E+04  0.22510644497E+04  0.00000000000E+00 0. -1.
        -14    1    5    5    0    0  0.20302712219E+02 -0.20914547188E+01  0.17922928732E+03  0.18038767070E+03  0.00000000000E+00 0.  1.
          5    1    4    4  501    0 -0.99230572010E+01  0.32123512134E+02  0.11204417715E+03  0.11705450495E+03  0.41800000000E+01 0.  1.
         -5    1    4    4    0  501 -0.54974074596E+01 -0.32024533480E+02 -0.20562959548E+02  0.38679451117E+02  0.41800000000E+01 0.  1.
</event>
<event>
11    1  0.8864208E-009  0.1259575E+03  0.7561462E-02  0.1124338E+00
         22   -1    0    0    0    0  0.00000000000E+00  0.00000000000E+00  0.10570193307E+04  0.10570193307E+04  0.00000000000E+00 0. -1.
         22   -1    0    0    0    0 -0.00000000000E+00 -0.00000000000E+00 -0.24826043817E+03  0.24826043817E+03  0.00000000000E+00 0. -1.
        -24    2    1    2    0    0 -0.16349727250E+01  0.14689180387E+02 -0.22502847177E+03  0.23920470142E+03  0.79766101300E+02 0.  0.
         25    2    1    2    0    0  0.87051278353E+01 -0.18200831271E+02  0.27123827464E+03  0.29936764902E+03  0.12507493008E+03 0.  0.
         24    2    1    2    0    0 -0.70701551102E+01  0.35116508837E+01  0.76254908961E+03  0.76670741839E+03  0.79352583908E+02 0.  0.
        -11    1    5    5    0    0  0.32406669534E+01  0.78489448455E+01  0.68086204624E+01  0.10884170620E+02  0.00000000000E+00 0.  1.
         12    1    5    5    0    0 -0.10310822064E+02 -0.43372939618E+01  0.75574046915E+03  0.75582324777E+03  0.00000000000E+00 0. -1.
         13    1    3    3    0    0 -0.23956468445E+02  0.15923107651E+02 -0.21069310902E+03  0.21264769909E+03  0.00000000000E+00 0. -1.
        -14    1    3    3    0    0  0.22321495720E+02 -0.12339272630E+01 -0.14335362748E+02  0.26557002331E+02  0.00000000000E+00 0.  1.
          5    1    4    4  501    0 -0.41843627545E+02 -0.31206427244E+02  0.21985474060E+03  0.22600510975E+03  0.41800000000E+01 0.  1.
         -5    1    4    4    0  501  0.50548755380E+02  0.13005595972E+02  0.51383534046E+02  0.73362539270E+02  0.41800000000E+01 0.  1.
</event>
<event>
11    1  0.8864208E-009  0.1881497E+03  0.7561462E-02  0.1063235E+00
         22   -1    0    0    0    0  0.00000000000E+00  0.00000000000E+00  0.13029961849E+04  0.13029961849E+04  0.00000000000E+00 0.  1.
         22   -1    0    0    0    0 -0.00000000000E+00 -0.00000000000E+00 -0.78905382093E+03  0.78905382093E+03  0.00000000000E+00 0.  1.
        -24    2    1    2    0    0  0.14370018704E+02 -0.22415521031E+02 -0.69940846552E+03  0.70482759891E+03  0.83070990811E+02 0.  0.
         25    2    1    2    0    0 -0.15222977615E+03 -0.13323929350E+01  0.37668020316E+02  0.20060034397E+03  0.12508372487E+03 0.  0.
         24    2    1    2    0    0  0.13785975744E+03  0.23747913966E+02  0.11756828091E+04  0.11866220629E+04  0.79199598307E+02 0.  0.
        -13    1    5    5    0    0  0.74745603430E+02 -0.11735817463E+02  0.82978933633E+03  0.83323164686E+03  0.00000000000E+00 0.  1.
         14    1    5    5    0    0  0.63114154014E+02  0.35483731428E+02  0.34589347280E+03  0.35339041605E+03  0.00000000000E+00 0. -1.
         11    1    3    3    0    0  0.21645618581E+02  0.13354668849E+02 -0.72036638645E+02  0.76394746489E+02  0.00000000000E+00 0. -1.
        -12    1    3    3    0    0 -0.72755998767E+01 -0.35770189880E+02 -0.62737182688E+03  0.62843285242E+03  0.00000000000E+00 0.  1.
          5    1    4    4  501    0 -0.22829232716E+02 -0.47387391660E+02 -0.12651924882E+02  0.54261241765E+02  0.41800000000E+01 0. -1.
         -5    1    4    4    0  501 -0.12940054343E+03  0.46054998725E+02  0.50319945198E+02  0.14633910220E+03  0.41800000000E+01 0. -1.
</event>
<event>
11    1  0.8864208E-009  0.1320352E+03  0.7561462E-02  0.1116793E+00
         22   -1    0    0    0    0  0.00000000000E+00  0.00000000000E+00  0.22264365241E+03  0.22264365241E+03  0.00000000000E+00 0. -1.
         22   -1    0    0    0    0 -0.00000000000E+00 -0.00000000000E+00 -0.31192703954E+03  0.31192703954E+03  0.00000000000E+00 0. -1.
        -24    2    1    2    0    0  0.23507876203E+02 -0.35029299096E+02 -0.21057639930E+03  0.22963158766E+03  0.81293136688E+02 0.  0.
         25    2    1    2    0    0 -0.26008675245E+02  0.33858606504E+02 -0.27527695421E+02  0.13501383386E+03  0.12509238544E+03 0.  0.
         24    2    1    2    0    0  0.25007990424E+01  0.11706925924E+01  0.14882070759E+03  0.16992527043E+03  0.81971763461E+02 0.  0.
        -11    1    5    5    0    0  0.19440251139E+02  0.35629316986E+02  0.99208501818E+02  0.10719001085E+03  0.00000000000E+00 0.  1.
         12    1    5    5    0    0 -0.16939452097E+02 -0.34458624394E+02  0.49612205774E+02  0.62735259577E+02  0.00000000000E+00 0. -1.
         11    1    3    3    0    0  0.98316471941E+01 -0.15648747015E+02 -0.20424714530E+03  0.20508154703E+03  0.00000000000E+00 0. -1.
        -12    1    3    3    0    0  0.13676229009E+02 -0.19380552081E+02 -0.63292539995E+01  0.24550040633E+02  0.00000000000E+00 0.  1.
          5    1    4    4  501    0 -0.47741374422E+02 -0.30981974348E+02 -0.33614047963E+02  0.66230643864E+02  0.41800000000E+01 0. -1.
         -5    1    4    4    0  501  0.21732699177E+02  0.64840580851E+02  0.60863525421E+01  0.68783189995E+02  0.41800000000E+01 0. -1.
</event>
<event>
11    1  0.8864208E-009  0.1928543E+03  0.7561462E-02  0.1059695E+00
         22   -1    0    0    0    0  0.00000000000E+00  0.00000000000E+00  0.40553150392E+03  0.40553150392E+03  0.00000000000E+00 0. -1.
         22   -1    0    0    0    0 -0.00000000000E+00 -0.00000000000E+00 -0.33472062820E+03  0.33472062820E+03  0.00000000000E+00 0. -1.
        -24    2    1    2    0    0  0.20248646139E+02 -0.14717382278E+03 -0.23830230678E+03  0.29216341601E+03  0.80630828216E+02 0.  0.
         25    2    1    2    0    0  0.11977762465E+01  0.13876225634E+03  0.78042252189E+02  0.20247120613E+03  0.12509035828E+03 0.  0.
         24    2    1    2    0    0 -0.21446422386E+02  0.84115664385E+01  0.23107093031E+03  0.24561750997E+03  0.80021765083E+02 0.  0.
        -11    1    5    5    0    0 -0.11811884876E+02  0.40014929852E+02  0.72559750367E+02  0.83699657160E+02  0.00000000000E+00 0.  1.
         12    1    5    5    0    0 -0.96345375097E+01 -0.31603363413E+02  0.15851117994E+03  0.16191785281E+03  0.00000000000E+00 0. -1.
         13    1    3    3    0    0  0.44984584095E+02 -0.10418341624E+03 -0.12702253606E+03  0.17033062465E+03  0.00000000000E+00 0. -1.
        -14    1    3    3    0    0 -0.24735937956E+02 -0.42990406539E+02 -0.11127977072E+03  0.12183279137E+03  0.00000000000E+00 0.  1.
          5    1    4    4  501    0  0.56765555279E+02  0.69527198437E+02  0.97372907182E+01  0.90380566601E+02  0.41800000000E+01 0.  1.
         -5    1    4    4    0  501 -0.55567779032E+02  0.69235057901E+02  0.68304961471E+02  0.11209063953E+03  0.41800000000E+01 0.  1.
</event>
<event>
11    1  0.8864208E-009  0.2434026E+03  0.7561462E-02  0.1027474E+00
         22   -1    0    0    0    0  0.00000000000E+00  0.00000000000E+00  0.13345021894E+04  0.13345021894E+04  0.00000000000E+00 0.  1.
         22   -1    0    0    0    0 -0.00000000000E+00 -0.00000000000E+00 -0.39343954271E+03  0.39343954271E+03  0.00000000000E+00 0. -1.
        -24    2    1    2    0    0 -0.32913674390E+02 -0.47430879795E+02 -0.26616084056E+03  0.28384586921E+03  0.79961779008E+02 0.  0.
         25    2    1    2    0    0 -0.13576717118E+03  0.17017915727E+03  0.38458315603E+02  0.25401085889E+03  0.12509517998E+03 0.  0.
         24    2    1    2    0    0  0.16868084557E+03 -0.12274827747E+03  0.11687651717E+04  0.11900850041E+04  0.82279542063E+02 0.  0.
        -13    1    5    5    0    0  0.47414439908E+02 -0.84734690163E+02  0.49135838214E+03  0.50086041621E+03  0.00000000000E+00 0.  1.
         14    1    5    5    0    0  0.12126640566E+03 -0.38013587311E+02  0.67740678956E+03  0.68922458785E+03  0.00000000000E+00 0. -1.
         13    1    3    3    0    0 -0.10985646012E+02 -0.67558844604E+02 -0.19699777401E+03  0.20854976593E+03  0.00000000000E+00 0. -1.
        -14    1    3    3    0    0 -0.21928028377E+02  0.20127964808E+02 -0.69163066545E+02  0.75296103284E+02  0.00000000000E+00 0.  1.
          5    1    4    4  501    0 -0.89225456401E+02  0.46746560529E+02 -0.30195146490E+02  0.10524087734E+03  0.41800000000E+01 0. -1.
         -5    1    4    4    0  501 -0.46541714780E+02  0.12343259674E+03  0.68653462093E+02  0.14876998155E+03  0.41800000000E+01 0. -1.
</event>
<event>
11    1  0.8864208E-009  0.1531546E+03  0.7561462E-02  0.1093698E+00
         22   -1    0    0    0    0  0.00000000000E+00  0.00000000000E+00  0.10537070309E+04  0.10537070309E+04  0.00000000000E+00 0.  1.
         22   -1    0    0    0    0 -0.00000000000E+00 -0.00000000000E+00 -0.99476470820E+03  0.99476470820E+03  0.00000000000E+00 0. -1.
         24    2    1    2    0    0 -0.45319968986E+02  0.40412451187E+02 -0.78701476235E+03  0.79410460310E+03  0.86734184199E+02 0.  0.
         25    2    1    2    0    0  0.10126484911E+03 -0.10731757004E+03 -0.15358388375E+03  0.24699725385E+03  0.12509198040E+03 0.  0.
        -24    2    1    2    0    0 -0.55944880121E+02  0.66905118849E+02  0.99954096885E+03  0.10073698822E+04  0.90032252999E+02 0.  0.
        -11    1    3    3    0    0  0.11534040949E+02 -0.19614510526E+02 -0.14176256882E+03  0.14357711880E+03  0.00000000000E+00 0.  1.
         12    1    3    3    0    0 -0.56854009935E+02  0.60026961713E+02 -0.64525219353E+03  0.65052748430E+03  0.00000000000E+00 0. -1.
         13    1    5    5    0    0 -0.50738354138E+02 -0.27202977586E+01  0.56211410698E+03  0.56440592649E+03  0.00000000000E+00 0. -1.
        -14    1    5    5    0    0 -0.52065259836E+01  0.69625416607E+02  0.43742686188E+03  0.44296395569E+03  0.00000000000E+00 0.  1.
          5    1    4    4  501    0  0.34777192270E+02 -0.11430244834E+03 -0.12839285844E+03  0.17543289685E+03  0.41800000000E+01 0.  1.
         -5    1    4    4    0  501  0.66487656838E+02  0.69848783052E+01 -0.25191025308E+02  0.71564357000E+02  0.41800000000E+01 0.  1.
</event>
<event>
11    1  0.8864208E-009  0.1652404E+03  0.7561462E-02  0.1082249E+00
         22   -1    0    0    0    0  0.00000000000E+00  0.00000000000E+00  0.43658887524E+03  0.43658887524E+03  0.00000000000E+00 0. -1.
         22   -1    0    0    0    0 -0.00000000000E+00 -0.00000000000E+00 -0.40361981949E+03  0.40361981949E+03  0.00000000000E+00 0.  1.
        -24    2    1    2    0    0  0.72902491417E+02  0.50273387281E+02 -0.30717179671E+03  0.32993125578E+03  0.81596164891E+02 0.  0.
         25    2    1    2    0    0 -0.14887831874E+03  0.20191878896E+02  0.65230975359E+02  0.20609505708E+03  0.12509047382E+03 0.  0.
         24    2    1    2    0    0  0.75975827327E+02 -0.70465266178E+02  0.27490987710E+03  0.30418238187E+03  0.78827665443E+02 0.  0.
        -13    1    5    5    0    0  0.12113881580E+00  0.10566986691E+02  0.37991423709E+01  0.11229842612E+02  0.00000000000E+00 0.  1.
         14    1    5    5    0    0  0.75854688511E+02 -0.81032252868E+02  0.27111073473E+03  0.29295253926E+03  0.00000000000E+00 0. -1.
         11    1    3    3    0    0  0.93152051760E+01 -0.22096918574E+02 -0.56017918225E+02  0.60934834210E+02  0.00000000000E+00 0. -1.
        -12    1    3    3    0    0  0.63587286241E+02  0.72370305855E+02 -0.25115387848E+03  0.26899642157E+03  0.00000000000E+00 0.  1.
          5    1    4    4  501    0 -0.79573847021E+01 -0.31045634986E+02  0.44000103655E+02  0.54595173272E+02  0.41800000000E+01 0.  1.
         -5    1    4    4    0  501 -0.14092093404E+03  0.51237513883E+02  0.21230871704E+02  0.15149988381E+03  0.41800000000E+01 0.  1.
</event>
<event>
11    1  0.8864208E-009  0.1508189E+03  0.7561462E-02  0.1096045E+00
         22   -1    0    0    0    0  0.00000000000E+00  0.00000000000E+00  0.13036276679E+04  0.13036276679E+04  0.00000000000E+00 0. -1.
         22   -1    0    0    0    0 -0.00000000000E+00 -0.00000000000E+00 -0.30771343900E+04  0.30771343900E+04  0.00000000000E+00 0. -1.
        -24    2    1    2    0    0  0.88715659880E+02  0.51288023550E+01 -0.27215578738E+04  0.27242073714E+04  0.80819359990E+02 0.  0.
         25    2    1    2    0    0 -0.40702298793E+02  0.28479233623E+02 -0.33952407075E+03  0.36522891073E+03  0.12509124167E+03 0.  0.
         24    2    1    2    0    0 -0.48013361087E+02 -0.33608035978E+02  0.12875752224E+04  0.12913257758E+04  0.78977991579E+02 0.  0.
        -11    1    5    5    0    0 -0.45754456628E+02  0.12305557964E+02  0.85575427502E+03  0.85706491952E+03  0.00000000000E+00 0.  1.
         12    1    5    5    0    0 -0.22589044589E+01 -0.45913593941E+02  0.43182094735E+03  0.43426085631E+03  0.00000000000E+00 0. -1.
         13    1    3    3    0    0  0.56850393575E+02  0.37765966167E+01 -0.24671886750E+04  0.24678464677E+04  0.00000000000E+00 0. -1.
        -14    1    3    3    0    0  0.31865266305E+02  0.13522057383E+01 -0.25436919878E+03  0.25636090370E+03  0.00000000000E+00 0.  1.
          5    1    4    4  501    0 -0.70633663898E+02  0.54454877372E+02 -0.18170879359E+03  0.20245988791E+03  0.41800000000E+01 0.  1.
         -5    1    4    4    0  501  0.29931365105E+02 -0.25975643749E+02 -0.15781527715E+03  0.16276902282E+03  0.41800000000E+01 0.  1.
</event>
<event>
11    1  0.8864208E-009  0.1608438E+03  0.7561462E-02  0.1086286E+00
         22   -1    0    0    0    0  0.00000000000E+00  0.00000000000E+00  0.39342645652E+04  0.39342645652E+04  0.00000000000E+00 0. -1.
         22   -1    0    0    0    0 -0.00000000000E+00 -0.00000000000E+00 -0.13607814233E+03  0.13607814233E+03  0.00000000000E+00 0.  1.
         24    2    1    2    0    0 -0.24153077778E+02  0.55631103648E+02 -0.10119839763E+03  0.14252315640E+03  0.79959637121E+02 0.  0.
         25    2    1    2    0    0  0.76624970740E+02 -0.13585020278E+03  0.75761697180E+03  0.78355449686E+03  0.12509000701E+03 0.  0.
        -24    2    1    2    0    0 -0.52471892962E+02  0.80219099135E+02  0.31417678487E+04  0.31442650543E+04  0.80679073500E+02 0.  0.
        -13    1    3    3    0    0 -0.17429494453E+02  0.50832265324E+02 -0.11471759769E+03  0.12668004458E+03  0.00000000000E+00 0.  1.
         14    1    3    3    0    0 -0.67235833254E+01  0.47988383239E+01  0.13519200059E+02  0.15843111822E+02  0.00000000000E+00 0. -1.
         11    1    5    5    0    0 -0.54449263665E+02  0.69892432652E+02  0.15932524942E+04  0.15957140046E+04  0.00000000000E+00 0. -1.
        -12    1    5    5    0    0  0.19773707032E+01  0.10326666484E+02  0.15485153546E+04  0.15485510497E+04  0.00000000000E+00 0.  1.
          5    1    4    4  501    0 -0.28104733552E+01 -0.49599332733E+02  0.69649836273E+02  0.85653748668E+02  0.41800000000E+01 0. -1.
         -5    1    4    4    0  501  0.79435444095E+02 -0.86250870051E+02  0.68796713553E+03  0.69790074819E+03  0.41800000000E+01 0. -1.
</event>
<event>
11    1  0.8864208E-009  0.1300447E+03  0.7561462E-02  0.1119214E+00
         22   -1    0    0    0    0  0.00000000000E+00  0.00000000000E+00  0.99137485561E+02  0.99137485561E+02  0.00000000000E+00 0. -1.
         22   -1    0    0    0    0 -0.00000000000E+00 -0.00000000000E+00 -0.11027257569E+04  0.11027257569E+04  0.00000000000E+00 0.  1.
        -24    2    1    2    0    0 -0.68347077142E+01 -0.87115102786E+01 -0.95890346838E+03  0.96228823935E+03  0.79876093345E+02 0.  0.
         25    2    1    2    0    0 -0.52196174075E+01 -0.27528814889E+02 -0.66974426629E+02  0.14463436827E+03  0.12509375127E+03 0.  0.
         24    2    1    2    0    0  0.12054325122E+02  0.36240325168E+02  0.22289623702E+02  0.94940634810E+02  0.84013266160E+02 0.  0.
        -13    1    5    5    0    0  0.47524340692E+01 -0.19817341328E+02 -0.16633349760E+02  0.26305531189E+02  0.00000000000E+00 0.  1.
         14    1    5    5    0    0  0.73018910525E+01  0.56057666496E+02  0.38922973462E+02  0.68635103621E+02  0.00000000000E+00 0. -1.
         13    1    3    3    0    0  0.14884049404E+02 -0.29431829847E+02 -0.19307347459E+03  0.19587019713E+03  0.00000000000E+00 0. -1.
        -14    1    3    3    0    0 -0.21718757118E+02  0.20720319569E+02 -0.76582999379E+03  0.76641804222E+03  0.00000000000E+00 0.  1.
          5    1    4    4  501    0  0.40197926691E+02 -0.41708862185E+02 -0.76381677161E+02  0.95953819627E+02  0.41800000000E+01 0.  1.
         -5    1    4    4    0  501 -0.45417544099E+02  0.14180047296E+02  0.94072505316E+01  0.48680548639E+02  0.41800000000E+01 0.  1.
</event>
<event>
11    1  0.8864208E-009  0.1363150E+03  0.7561462E-02  0.1111744E+00
         22   -1    0    0    0    0  0.00000000000E+00  0.00000000000E+00  0.24201149561E+04  0.24201149561E+04  0.00000000000E+00 0. -1.
         22   -1    0    0    0    0 -0.00000000000E+00 -0.00000000000E+00 -0.69466968178E+03  0.69466968178E+03  0.00000000000E+00 0.  1.
         24    2    1    2    0    0  0.17246449024E+02  0.48931163827E+02 -0.55911184836E+03  0.56768769710E+03  0.83495890059E+02 0.  0.
         25    2    1    2    0    0 -0.33152876008E+02 -0.68987225220E+02 -0.89202703244E+02  0.17164826214E+03  0.12509057997E+03 0.  0.
        -24    2    1    2    0    0  0.15906426985E+02  0.20056061393E+02  0.23737598259E+04  0.23754486786E+04  0.85822221214E+02 0.  0.
        -13    1    3    3    0    0  0.42941188723E+02  0.35558389883E+02 -0.48372602932E+03  0.48692834814E+03  0.00000000000E+00 0.  1.
         14    1    3    3    0    0 -0.25694739699E+02  0.13372773943E+02 -0.75385819047E+02  0.80759348961E+02  0.00000000000E+00 0. -1.
         13    1    5    5    0    0  0.22928531460E+02  0.48540262215E+02  0.10572613265E+04  0.10586233452E+04  0.00000000000E+00 0. -1.
        -14    1    5    5    0    0 -0.70221044754E+01 -0.28484200822E+02  0.13164984995E+04  0.13168253334E+04  0.00000000000E+00 0.  1.
          5    1    4    4  501    0  0.41059943502E+02  0.60540873360E+00 -0.43723888391E+02  0.60129329750E+02  0.41800000000E+01 0. -1.
         -5    1    4    4    0  501 -0.74212819510E+02 -0.69592633953E+02 -0.45478814853E+02  0.11151893239E+03  0.41800000000E+01 0. -1.
</event>
<event>
11    1  0.8864208E-009  0.2112152E+03  0.7561462E-02  0.1046864E+00
         22   -1    0    0    0    0  0.00000000000E+00  0.00000000000E+00  0.10197802549E+03  0.10197802549E+03  0.00000000000E+00 0.  1.
         22   -1    0    0    0    0 -0.00000000000E+00 -0.00000000000E+00 -0.24550498204E+04  0.24550498204E+04  0.00000000000E+00 0. -1.
         24    2    1    2    0    0  0.47215495068E+02 -0.15346489067E+03 -0.18263551042E+04  0.18345339959E+04  0.64507674179E+02 0.  0.
         25    2    1    2    0    0 -0.44850498110E+02  0.25790612447E+03 -0.51303601237E+03  0.58939129814E+03  0.12509602758E+03 0.  0.
        -24    2    1    2    0    0 -0.23649969584E+01 -0.10444123381E+03 -0.13680678355E+02  0.13310255181E+03  0.81336116265E+02 0.  0.
        -13    1    3    3    0    0  0.45195659267E+01 -0.23697174355E+02 -0.10363654944E+03  0.10640731614E+03  0.00000000000E+00 0.  1.
         14    1    3    3    0    0  0.42695929142E+02 -0.12976771631E+03 -0.17227185547E+04  0.17281266798E+04  0.00000000000E+00 0. -1.
         13    1    5    5    0    0 -0.18849511826E+02 -0.41806941092E+01 -0.24193677112E+02  0.30953453952E+02  0.00000000000E+00 0. -1.
        -14    1    5    5    0    0  0.16484514868E+02 -0.10026053970E+03  0.10512998758E+02  0.10214909786E+03  0.00000000000E+00 0.  1.
          5    1    4    4  501    0  0.49773439209E+01  0.15518091764E+03 -0.39813222171E+03  0.42735539018E+03  0.41800000000E+01 0. -1.
         -5    1    4    4    0  501 -0.49827842031E+02  0.10272520684E+03 -0.11490379066E+03  0.16203590796E+03  0.41800000000E+01 0. -1.
</event>
<event>
11    1  0.8864208E-009  0.1612161E+03  0.7561462E-02  0.1085939E+00
         22   -1    0    0    0    0  0.00000000000E+00  0.00000000000E+00  0.16901441166E+04  0.16901441166E+04  0.00000000000E+00 0. -1.
         22   -1    0    0    0    0 -0.00000000000E+00 -0.00000000000E+00 -0.54140646595E+03  0.54140646595E+03  0.00000000000E+00 0. -1.
        -24    2    1    2    0    0 -0.12389190771E+02  0.10074593421E+03 -0.50380682602E+03  0.52030889793E+03  0.81220662476E+02 0.  0.
         25    2    1    2    0    0  0.93587077075E+02 -0.97892896171E+02  0.28763328336E+03  0.34164429939E+03  0.12508541679E+03 0.  0.
         24    2    1    2    0    0 -0.81197886304E+02 -0.28530380345E+01  0.13649111933E+04  0.13695973852E+04  0.78823825311E+02 0.  0.
        -11    1    5    5    0    0 -0.92377762823E+02  0.66565940582E+00  0.94089081140E+03  0.94541504809E+03  0.00000000000E+00 0.  1.
         12    1    5    5    0    0  0.11179876519E+02 -0.35186974403E+01  0.42402038189E+03  0.42418233713E+03  0.00000000000E+00 0. -1.
         13    1    3    3    0    0 -0.39465848315E+02  0.79386344777E+02 -0.27553270948E+03  0.28944432783E+03  0.00000000000E+00 0. -1.
        -14    1    3    3    0    0  0.27076657544E+02  0.21359589428E+02 -0.22827411654E+03  0.23086457010E+03  0.00000000000E+00 0.  1.
          5    1    4    4  501    0  0.16680257519E+02  0.27732789168E+02  0.85383882231E+02  0.91406883389E+02  0.41800000000E+01 0. -1.
         -5    1    4    4    0  501  0.76906819555E+02 -0.12562568534E+03  0.20224940113E+03  0.25023741600E+03  0.41800000000E+01 0. -1.
</event>
<event>
11    1  0.8864208E-009  0.1929990E+03  0.7561462E-02  0.1059588E+00
         22   -1    0    0    0    0  0.00000000000E+00  0.00000000000E+00  0.97588136577E+03  0.97588136577E+03  0.00000000000E+00 0.  1.
         22   -1    0    0    0    0 -0.00000000000E+00 -0.00000000000E+00 -0.93457055737E+03  0.93457055737E+03  0.00000000000E+00 0.  1.
        -24    2    1    2    0    0 -0.14689462951E+03  0.24965207060E+01 -0.82003228468E+03  0.83627352406E+03  0.72912237167E+02 0.  0.
         25    2    1    2    0    0  0.14758413158E+03 -0.56301903824E+01 -0.14939136500E+02  0.19411876383E+03  0.12508453835E+03 0.  0.
         24    2    1    2    0    0 -0.68950206872E+00  0.31336696763E+01  0.87628222958E+03  0.88005963525E+03  0.81388699534E+02 0.  0.
        -13    1    5    5    0    0  0.24992043443E+02  0.23370620563E+02  0.69571743729E+03  0.69655835411E+03  0.00000000000E+00 0.  1.
         14    1    5    5    0    0 -0.25681545511E+02 -0.20236950887E+02  0.18056479230E+03  0.18350128114E+03  0.00000000000E+00 0. -1.
         11    1    3    3    0    0 -0.12487483246E+02  0.11869161425E+02 -0.28094301973E+02  0.32956092519E+02  0.00000000000E+00 0. -1.
        -12    1    3    3    0    0 -0.13440714626E+03 -0.93726407192E+01 -0.79193798271E+03  0.80331743154E+03  0.00000000000E+00 0.  1.
          5    1    4    4  501    0  0.65321032407E+02 -0.22852639610E+02 -0.65972922145E+02  0.95702556226E+02  0.41800000000E+01 0. -1.
         -5    1    4    4    0  501  0.82263099172E+02  0.17222449228E+02  0.51033785644E+02  0.98416207608E+02  0.41800000000E+01 0. -1.
</event>
<event>
11    1  0.8864208E-009  0.3751774E+03  0.7561462E-02  0.9725977E-01
         22   -1    0    0    0    0  0.00000000000E+00  0.00000000000E+00  0.37561131465E+03  0.37561131465E+03  0.00000000000E+00 0.  1.
         22   -1    0    0    0    0 -0.00000000000E+00 -0.00000000000E+00 -0.96062037612E+03  0.96062037612E+03  0.00000000000E+00 0.  1.
        -24    2    1    2    0    0  0.11709447097E+02 -0.27589658314E+02 -0.59140410766E+03  0.59771364524E+03  0.81267968756E+02 0.  0.
         25    2    1    2    0    0 -0.14297170226E+02  0.36714050933E+03  0.30120891636E+02  0.38929705748E+03  0.12509343781E+03 0.  0.
         24    2    1    2    0    0  0.25877231285E+01 -0.33955085102E+03 -0.23725845442E+02  0.34922098805E+03  0.78044256784E+02 0.  0.
        -13    1    5    5    0    0 -0.17359882200E+02 -0.31963679713E+03 -0.19299892643E+02  0.32068915392E+03  0.00000000000E+00 0.  1.
         14    1    5    5    0    0  0.19947605329E+02 -0.19914053893E+02 -0.44259527991E+01  0.28531834133E+02  0.00000000000E+00 0. -1.
         13    1    3    3    0    0  0.17749946852E+02  0.57662104966E+01 -0.30300040676E+02  0.35586546077E+02  0.00000000000E+00 0. -1.
        -14    1    3    3    0    0 -0.60404997550E+01 -0.33355868810E+02 -0.56110406698E+03  0.56212709916E+03  0.00000000000E+00 0.  1.
          5    1    4    4  501    0 -0.14604598152E+02  0.21347526319E+03 -0.44230512732E+02  0.21853785242E+03  0.41800000000E+01 0. -1.
         -5    1    4    4    0  501  0.30742792605E+00  0.15366524614E+03  0.74351404368E+02  0.17075920507E+03  0.41800000000E+01 0. -1.
</event>
<event>
11    1  0.8864208E-009  0.1981279E+03  0.7561462E-02  0.1055855E+00
         22   -1    0    0    0    0  0.00000000000E+00  0.00000000000E+00  0.73106190721E+03  0.73106190721E+03  0.00000000000E+00 0. -1.
         22   -1    0    0    0    0 -0.00000000000E+00 -0.00000000000E+00 -0.45169350018E+03  0.45169350018E+03  0.00000000000E+00 0. -1.
         24    2    1    2    0    0  0.40996124075E+02  0.14872754535E+03 -0.40636495461E+03  0.43993387580E+03  0.67887950342E+02 0.  0.
         25    2    1    2    0    0 -0.50014336817E+02 -0.13125694156E+03  0.35205179879E+03  0.39914200540E+03  0.12507618818E+03 0.  0.
        -24    2    1    2    0    0  0.90182127419E+01 -0.17470603793E+02  0.33368156286E+03  0.34367952619E+03  0.79910457233E+02 0.  0.
        -13    1    3    3    0    0  0.29643377663E+02  0.37907269112E+02 -0.65156198517E+02  0.81000130221E+02  0.00000000000E+00 0.  1.
         14    1    3    3    0    0  0.11352746412E+02  0.11082027624E+03 -0.34120875609E+03  0.35893374558E+03  0.00000000000E+00 0. -1.
         13    1    5    5    0    0  0.37910880665E+02 -0.28766444115E+02  0.24871077384E+03  0.25322281138E+03  0.00000000000E+00 0. -1.
        -14    1    5    5    0    0 -0.28892667923E+02  0.11295840322E+02  0.84970789024E+02  0.90456714818E+02  0.00000000000E+00 0.  1.
          5    1    4    4  501    0 -0.83794799610E+02 -0.12468377842E+03  0.31102646242E+03  0.34543095659E+03  0.41800000000E+01 0.  1.
         -5    1    4    4    0  501  0.33780462793E+02 -0.65731631367E+01  0.41025336363E+02  0.53711048806E+02  0.41800000000E+01 0.  1.
</event>
<event>
11    1  0.8864208E-009  0.1564918E+03  0.7561462E-02  0.1090424E+00
         22   -1    0    0    0    0  0.00000000000E+00  0.00000000000E+00  0.18167750312E+03  0.18167750312E+03  0.00000000000E+00 0.  1.
         22   -1    0    0    0    0 -0.00000000000E+00 -0.00000000000E+00 -0.22284736478E+04  0.22284736478E+04  0.00000000000E+00 0.  1.
        -24    2    1    2    0    0  0.78477844130E+02 -0.43903129001E+02 -0.18837660820E+04  0.18876232390E+04  0.80377758471E+02 0.  0.
         25    2    1    2    0    0 -0.15159430191E+03  0.68742301413E+02 -0.28770264721E+03  0.35514261841E+03  0.12508848798E+03 0.  0.
         24    2    1    2    0    0  0.73116457776E+02 -0.24839172412E+02  0.12467258450E+03  0.16738529351E+03  0.80694375724E+02 0.  0.
        -13    1    5    5    0    0  0.98356599580E+01  0.44027032069E+01  0.87923626450E+02  0.88581533575E+02  0.00000000000E+00 0.  1.
         14    1    5    5    0    0  0.63280797818E+02 -0.29241875619E+02  0.36748958054E+02  0.78803759937E+02  0.00000000000E+00 0. -1.
         11    1    3    3    0    0 -0.49347721156E+01  0.16746213238E+02 -0.26052940781E+03  0.26111369165E+03  0.00000000000E+00 0. -1.
        -12    1    3    3    0    0  0.83412616245E+02 -0.60649342239E+02 -0.16232366741E+04  0.16265095473E+04  0.00000000000E+00 0.  1.
          5    1    4    4  501    0 -0.13360149942E+03  0.98434538344E+01 -0.24755130153E+03  0.28150554794E+03  0.41800000000E+01 0. -1.
         -5    1    4    4    0  501 -0.17992802484E+02  0.58898847579E+02 -0.40151345676E+02  0.73637070467E+02  0.41800000000E+01 0. -1.
</event>
<event>
11    1  0.8864208E-009  0.1674572E+03  0.7561462E-02  0.1080266E+00
         22   -1    0    0    0    0  0.00000000000E+00  0.00000000000E+00  0.76067176573E+03  0.76067176573E+03  0.00000000000E+00 0. -1.
         22   -1    0    0    0    0 -0.00000000000E+00 -0.00000000000E+00 -0.42746668645E+03  0.42746668645E+03  0.00000000000E+00 0.  1.
         24    2    1    2    0    0 -0.34059202156E+02  0.21337732690E+02 -0.34625214558E+03  0.35813636321E+03  0.82193541424E+02 0.  0.
         25    2    1    2    0    0  0.12910003430E+03  0.32970978642E+02  0.54571259404E+02  0.19073508044E+03  0.12509174340E+03 0.  0.
        -24    2    1    2    0    0 -0.95040832147E+02 -0.54308711332E+02  0.62488596546E+03  0.63926700852E+03  0.78725106939E+02 0.  0.
        -11    1    3    3    0    0 -0.42483866921E+02  0.41481676373E+02 -0.31139302507E+03  0.31700350863E+03  0.00000000000E+00 0.  1.
         12    1    3    3    0    0  0.84246647655E+01 -0.20143943683E+02 -0.34859120509E+02  0.41132854584E+02  0.00000000000E+00 0. -1.
         13    1    5    5    0    0 -0.34411587226E+02  0.78065437822E-01  0.37200328149E+03  0.37359149464E+03  0.00000000000E+00 0. -1.
        -14    1    5    5    0    0 -0.60629244920E+02 -0.54386776770E+02  0.25288268397E+03  0.26567551389E+03  0.00000000000E+00 0.  1.
          5    1    4    4  501    0 -0.21372339746E+02 -0.10879856684E+02 -0.10698720456E+01  0.24367298042E+02  0.41800000000E+01 0. -1.
         -5    1    4    4    0  501  0.15047237405E+03  0.43850835326E+02  0.55641131449E+02  0.16636778240E+03  0.41800000000E+01 0. -1.
</event>
<event>
11    1  0.8864208E-009  0.1809772E+03  0.7561462E-02  0.1068855E+00
         22   -1    0    0    0    0  0.00000000000E+00  0.00000000000E+00  0.11356255951E+04  0.11356255951E+04  0.00000000000E+00 0.  1.
         22   -1    0    0    0    0 -0.00000000000E+00 -0.00000000000E+00 -0.29878348137E+03  0.29878348137E+03  0.00000000000E+00 0.  1.
         24    2    1    2    0    0 -0.85901425255E+02 -0.97280903200E+02 -0.23675610105E+03  0.28176632913E+03  0.80598907310E+02 0.  0.
         25    2    1    2    0    0  0.12972202184E+03  0.74378406036E+02  0.22072152077E+03  0.29449176820E+03  0.12508981402E+03 0.  0.
        -24    2    1    2    0    0 -0.43820596588E+02  0.22902497164E+02  0.85287669397E+03  0.85815097911E+03  0.81115219131E+02 0.  0.
        -13    1    3    3    0    0 -0.98134074055E+02 -0.94900623937E+02 -0.23032554346E+03  0.26774293807E+03  0.00000000000E+00 0.  1.
         14    1    3    3    0    0  0.12232648800E+02 -0.23802792625E+01 -0.64305575879E+01  0.14023391063E+02  0.00000000000E+00 0. -1.
         11    1    5    5    0    0 -0.72477335839E+01  0.49318838817E+02  0.45900151457E+03  0.46170040923E+03  0.00000000000E+00 0. -1.
        -12    1    5    5    0    0 -0.36572863005E+02 -0.26416341653E+02  0.39387517940E+03  0.39645056989E+03  0.00000000000E+00 0.  1.
          5    1    4    4  501    0 -0.18954290856E+02  0.28611121331E+02  0.18153163879E+02  0.39049598775E+02  0.41800000000E+01 0. -1.
         -5    1    4    4    0  501  0.14867631270E+03  0.45767284705E+02  0.20256835689E+03  0.25544216942E+03  0.41800000000E+01 0. -1.
</event>
<event>
11    1  0.8864208E-009  0.1358517E+03  0.7561462E-02  0.1112281E+00
         22   -1    0    0    0    0  0.00000000000E+00  0.00000000000E+00  0.75172444772E+02  0.75172444772E+02  0.00000000000E+00 0. -1.
         22   -1    0    0    0    0 -0.00000000000E+00 -0.00000000000E+00 -0.79434726981E+03  0.79434726981E+03  0.00000000000E+00 0. -1.
        -24    2    1    2    0    0 -0.23368979927E+02 -0.48805103677E+02 -0.58710197948E+03  0.59501771152E+03  0.80182886893E+02 0.  0.
         25    2    1    2    0    0  0.13991120176E+02  0.43527467536E+02 -0.14248240408E+03  0.19504379054E+03  0.12510177010E+03 0.  0.
         24    2    1    2    0    0  0.93778597501E+01  0.52776361408E+01  0.10409558511E+02  0.79458212528E+02  0.78034934055E+02 0.  0.
        -13    1    5    5    0    0 -0.21132360023E+02 -0.10360884062E+01 -0.24696496670E+02  0.32520256259E+02  0.00000000000E+00 0.  1.
         14    1    5    5    0    0  0.30510219773E+02  0.63137245470E+01  0.35106055182E+02  0.46937956269E+02  0.00000000000E+00 0. -1.
         13    1    3    3    0    0  0.29105196969E+01 -0.63319164575E+02 -0.46391871977E+03  0.46822896779E+03  0.00000000000E+00 0. -1.
        -14    1    3    3    0    0 -0.26279499623E+02  0.14514060898E+02 -0.12318325971E+03  0.12678874373E+03  0.00000000000E+00 0.  1.
          5    1    4    4  501    0  0.15894849614E+02 -0.42048613169E+02 -0.32564643753E+02  0.55665613591E+02  0.41800000000E+01 0.  1.
         -5    1    4    4    0  501 -0.19037294380E+01  0.85576080705E+02 -0.10991776032E+03  0.13937817695E+03  0.41800000000E+01 0.  1.
</event>
<event>
11    1  0.8864208E-009  0.2037413E+03  0.7561462E-02  0.1051909E+00
         22   -1    0    0    0    0  0.00000000000E+00  0.00000000000E+00  0.33468094714E+03  0.33468094714E+03  0.00000000000E+00 0.  1.
         22   -1    0    0    0    0 -0.00000000000E+00 -0.00000000000E+00 -0.12452095204E+04  0.12452095204E+04  0.00000000000E+00 0.  1.
         24    2    1    2    0    0 -0.22875529992E+02 -0.30372744475E+02 -0.10558142698E+04  0.10582577874E+04  0.60991630016E+02 0.  0.
         25    2    1    2    0    0 -0.14153790914E+03  0.19861722668E+02 -0.10065232034E+03  0.21495578635E+03  0.12509049821E+03 0.  0.
        -24    2    1    2    0    0  0.16441343913E+03  0.10511021807E+02  0.24593801690E+03  0.30667689372E+03  0.80143299431E+02 0.  0.
        -13    1    3    3    0    0 -0.41625876317E+02 -0.32443512369E+02 -0.81371896935E+03  0.81542863339E+03  0.00000000000E+00 0.  1.
         14    1    3    3    0    0  0.18750346325E+02  0.20707678935E+01 -0.24209530043E+03  0.24282915405E+03  0.00000000000E+00 0. -1.
         11    1    5    5    0    0  0.94386725883E+01  0.17024211769E+02  0.49500560976E+01  0.20085203060E+02  0.00000000000E+00 0. -1.
        -12    1    5    5    0    0  0.15497476654E+03 -0.65131899618E+01  0.24098796080E+03  0.28659169066E+03  0.00000000000E+00 0.  1.
          5    1    4    4  501    0 -0.10265273769E+03  0.67628404303E+02 -0.42470045328E+02  0.13012441268E+03  0.41800000000E+01 0.  1.
         -5    1    4    4    0  501 -0.38885171441E+02 -0.47766681635E+02 -0.58182275014E+02  0.84831373667E+02  0.41800000000E+01 0.  1.
</event>
<event>
11    1  0.8864208E-009  0.2406866E+03  0.7561462E-02  0.1028981E+00
         22   -1    0    0    0    0  0.00000000000E+00  0.00000000000E+00  0.27093631662E+03  0.27093631662E+03  0.00000000000E+00 0. -1.
         22   -1    0    0    0    0 -0.00000000000E+00 -0.00000000000E+00 -0.15554557653E+04  0.15554557653E+04  0.00000000000E+00 0. -1.
        -24    2    1    2    0    0  0.19850304695E+03  0.93528191062E+02 -0.12814832309E+04  0.13027215700E+04  0.82056295731E+02 0.  0.
         25    2    1    2    0    0 -0.12990448805E+03 -0.85304314965E+02 -0.21139572245E+03  0.29066471776E+03  0.12508327031E+03 0.  0.
         24    2    1    2    0    0 -0.68598558903E+02 -0.82238760970E+01  0.20835950464E+03  0.23300579419E+03  0.78132083892E+02 0.  0.
        -13    1    5    5    0    0  0.15027889247E+02  0.83479322943E+01  0.53975638016E+02  0.56647108735E+02  0.00000000000E+00 0.  1.
         14    1    5    5    0    0 -0.83626448150E+02 -0.16571808391E+02  0.15438386662E+03  0.17635868546E+03  0.00000000000E+00 0. -1.
         11    1    3    3    0    0  0.17723363098E+03  0.47400958047E+02 -0.10098780261E+04  0.10264074427E+04  0.00000000000E+00 0. -1.
        -12    1    3    3    0    0  0.21269415977E+02  0.46127233015E+02 -0.27160520476E+03  0.27631412728E+03  0.00000000000E+00 0.  1.
          5    1    4    4  501    0 -0.56594659634E+02 -0.58017600678E+02 -0.19602539664E+02  0.83490894406E+02  0.41800000000E+01 0.  1.
         -5    1    4    4    0  501 -0.73309828418E+02 -0.27286714288E+02 -0.19179318279E+03  0.20717382335E+03  0.41800000000E+01 0.  1.
</event>
<event>
11    1  0.8864208E-009  0.2171788E+03  0.7561462E-02  0.1042999E+00
         22   -1    0    0    0    0  0.00000000000E+00  0.00000000000E+00  0.53481949586E+03  0.53481949586E+03  0.00000000000E+00 0.  1.
         22   -1    0    0    0    0 -0.00000000000E+00 -0.00000000000E+00 -0.37516401151E+03  0.37516401151E+03  0.00000000000E+00 0.  1.
        -24    2    1    2    0    0  0.71187953333E+02 -0.68644309824E+02 -0.17021212768E+03  0.21049785028E+03  0.74548042162E+02 0.  0.
         25    2    1    2    0    0 -0.19525330498E+03  0.17811877544E+03 -0.30455177917E+02  0.29398103907E+03  0.12508869733E+03 0.  0.
         24    2    1    2    0    0  0.12406535164E+03 -0.10947446562E+03  0.36032278995E+03  0.40550461802E+03  0.84997718646E+02 0.  0.
        -13    1    5    5    0    0  0.10525125489E+03 -0.96068148629E+02  0.35392048313E+03  0.38153194390E+03  0.00000000000E+00 0.  1.
         14    1    5    5    0    0  0.18814096753E+02 -0.13406316992E+02  0.64023068254E+01  0.23972674123E+02  0.00000000000E+00 0. -1.
         11    1    3    3    0    0 -0.96684049743E+01 -0.11104711659E+02 -0.61769159784E+02  0.63499777765E+02  0.00000000000E+00 0. -1.
        -12    1    3    3    0    0  0.80856358308E+02 -0.57539598164E+02 -0.10844296790E+03  0.14699807251E+03  0.00000000000E+00 0.  1.
          5    1    4    4  501    0 -0.80809519584E+02  0.12285615373E+03 -0.67041170206E+02  0.16166571643E+03  0.41800000000E+01 0.  1.
         -5    1    4    4    0  501 -0.11444378539E+03  0.55262621712E+02  0.36585992289E+02  0.13231532264E+03  0.41800000000E+01 0.  1.
</event>
<event>
11    1  0.8864208E-009  0.1550257E+03  0.7561462E-02  0.1091851E+00
         22   -1    0    0    0    0  0.00000000000E+00  0.00000000000E+00  0.35843115476E+04  0.35843115476E+04  0.00000000000E+00 0. -1.
         22   -1    0    0    0    0 -0.00000000000E+00 -0.00000000000E+00 -0.84936440070E+02  0.84936440070E+02  0.00000000000E+00 0.  1.
        -24    2    1    2    0    0 -0.40739330927E+02  0.58496928866E+02 -0.24798927946E+02  0.11148253247E+03  0.82047452417E+02 0.  0.
         25    2    1    2    0    0  0.28967449052E+02  0.36820983915E+02  0.27046157947E+03  0.30165094915E+03  0.12509568814E+03 0.  0.
         24    2    1    2    0    0  0.11771881875E+02 -0.95317912781E+02  0.32537124560E+04  0.32561145061E+04  0.80080262352E+02 0.  0.
        -13    1    5    5    0    0 -0.20135654676E+02 -0.86041993639E+02  0.19833953740E+04  0.19853629086E+04  0.00000000000E+00 0.  1.
         14    1    5    5    0    0  0.31907536551E+02 -0.92759191418E+01  0.12703170821E+04  0.12707515975E+04  0.00000000000E+00 0. -1.
         11    1    3    3    0    0  0.39724809377E+01  0.63563338750E+02 -0.14058722043E+02  0.65220597233E+02  0.00000000000E+00 0. -1.
        -12    1    3    3    0    0 -0.44711811865E+02 -0.50664098844E+01 -0.10740205903E+02  0.46261935240E+02  0.00000000000E+00 0.  1.
          5    1    4    4  501    0 -0.89305074872E+01  0.68373295370E+02  0.22154641944E+03  0.23206669267E+03  0.41800000000E+01 0. -1.
         -5    1    4    4    0  501  0.37897956539E+02 -0.31552311455E+02  0.48915160031E+02  0.69584256472E+02  0.41800000000E+01 0. -1.
</event>
<event>
11    1  0.8864208E-009  0.2009296E+03  0.7561462E-02  0.1053868E+00
         22   -1    0    0    0    0  0.00000000000E+00  0.00000000000E+00  0.92686938070E+03  0.92686938070E+03  0.00000000000E+00 0.  1.
         22   -1    0    0    0    0 -0.00000000000E+00 -0.00000000000E+00 -0.43678352806E+03  0.43678352806E+03  0.00000000000E+00 0. -1.
        -24    2    1    2    0    0 -0.14511065527E+03 -0.57567063434E+02 -0.38602562318E+03  0.42403325999E+03  0.80108393821E+02 0.  0.
         25    2    1    2    0    0  0.16463657638E+03  0.82255704276E+02  0.41574825840E+03  0.47155940182E+03  0.12510176623E+03 0.  0.
         24    2    1    2    0    0 -0.19525921109E+02 -0.24688640842E+02  0.46036321742E+03  0.46806024695E+03  0.78455798020E+02 0.  0.
        -11    1    5    5    0    0 -0.24774961654E+02 -0.45247374262E+02  0.41239251471E+03  0.41560643618E+03  0.00000000000E+00 0.  1.
         12    1    5    5    0    0  0.52490405449E+01  0.20558733420E+02  0.47970702707E+02  0.52453810774E+02  0.00000000000E+00 0. -1.
         13    1    3    3    0    0 -0.58341872530E+02 -0.21254192671E+02 -0.25679796450E+03  0.26419823877E+03  0.00000000000E+00 0. -1.
        -14    1    3    3    0    0 -0.86768782739E+02 -0.36312870763E+02 -0.12922765868E+03  0.15983502122E+03  0.00000000000E+00 0.  1.
          5    1    4    4  501    0  0.17126976071E+03  0.36566253806E+02  0.34585531447E+03  0.38769033107E+03  0.41800000000E+01 0. -1.
         -5    1    4    4    0  501 -0.66331843328E+01  0.45689450470E+02  0.69892943925E+02  0.83869070754E+02  0.41800000000E+01 0. -1.
</event>
<event>
11    1  0.8864208E-009  0.1728209E+03  0.7561462E-02  0.1075603E+00
         22   -1    0    0    0    0  0.00000000000E+00  0.00000000000E+00  0.16099620228E+04  0.16099620228E+04  0.00000000000E+00 0.  1.
         22   -1    0    0    0    0 -0.00000000000E+00 -0.00000000000E+00 -0.65990745101E+03  0.65990745101E+03  0.00000000000E+00 0. -1.
         24    2    1    2    0    0 -0.10870045351E+03 -0.47017240542E+02 -0.62752768433E+03  0.64663635430E+03  0.10159316220E+03 0.  0.
         25    2    1    2    0    0  0.20300818148E+03  0.80146494725E+02  0.11246038657E+04  0.11523944849E+04  0.12507362526E+03 0.  0.
        -24    2    1    2    0    0 -0.94307727972E+02 -0.33129254183E+02  0.45297839047E+03  0.47083863466E+03  0.80672812092E+02 0.  0.
        -13    1    3    3    0    0 -0.74775621834E+01  0.10105387071E+02 -0.52938514220E+01  0.13640294972E+02  0.00000000000E+00 0.  1.
         14    1    3    3    0    0 -0.10122289133E+03 -0.57122627612E+02 -0.62223383290E+03  0.63299605933E+03  0.00000000000E+00 0. -1.
         13    1    5    5    0    0 -0.42600462162E+01 -0.30979998958E+02  0.19719356963E+03  0.19965773772E+03  0.00000000000E+00 0. -1.
        -14    1    5    5    0    0 -0.90047681755E+02 -0.21492552248E+01  0.25578482085E+03  0.27118089694E+03  0.00000000000E+00 0.  1.
          5    1    4    4  501    0  0.65449405167E+02  0.78585375227E+02  0.31607220227E+03  0.33223244165E+03  0.41800000000E+01 0.  1.
         -5    1    4    4    0  501  0.13755877632E+03  0.15611194977E+01  0.80853166339E+03  0.82016204322E+03  0.41800000000E+01 0.  1.
</event>
<event>
11    1  0.8864208E-009  0.1510374E+03  0.7561462E-02  0.1095824E+00
         22   -1    0    0    0    0  0.00000000000E+00  0.00000000000E+00  0.13292594782E+04  0.13292594782E+04  0.00000000000E+00 0. -1.
         22   -1    0    0    0    0 -0.00000000000E+00 -0.00000000000E+00 -0.99220645158E+02  0.99220645158E+02  0.00000000000E+00 0. -1.
         24    2    1    2    0    0 -0.71572487565E+01  0.46391870474E+02 -0.57244091643E+02  0.10929049459E+03  0.80399591560E+02 0.  0.
         25    2    1    2    0    0  0.89798343273E+02 -0.32977124983E+02  0.52763393796E+03  0.55063335355E+03  0.12509310263E+03 0.  0.
        -24    2    1    2    0    0 -0.82641094517E+02 -0.13414745491E+02  0.75964898668E+03  0.76855627518E+03  0.81256748973E+02 0.  0.
        -11    1    3    3    0    0  0.47170794789E+01 -0.13640320112E+02  0.10613181158E+02  0.17915043563E+02  0.00000000000E+00 0.  1.
         12    1    3    3    0    0 -0.11874328235E+02  0.60032190586E+02 -0.67857272802E+02  0.91375451023E+02  0.00000000000E+00 0. -1.
         13    1    5    5    0    0 -0.69687226752E+02  0.17872840612E+02  0.64531673898E+03  0.64931459371E+03  0.00000000000E+00 0. -1.
        -14    1    5    5    0    0 -0.12953867764E+02 -0.31287586103E+02  0.11433224770E+03  0.11924168147E+03  0.00000000000E+00 0.  1.
          5    1    4    4  501    0 -0.20292428056E+02 -0.37406057389E+02  0.21271444709E+03  0.21696982317E+03  0.41800000000E+01 0.  1.
         -5    1    4    4    0  501  0.11009077133E+03  0.44289324055E+01  0.31491949087E+03  0.33366353038E+03  0.41800000000E+01 0.  1.
</event>
<event>
11    1  0.8864208E-009  0.1286690E+03  0.7561462E-02  0.1120915E+00
         22   -1    0    0    0    0  0.00000000000E+00  0.00000000000E+00  0.72260837800E+03  0.72260837800E+03  0.00000000000E+00 0.  1.
         22   -1    0    0    0    0 -0.00000000000E+00 -0.00000000000E+00 -0.17561265553E+03  0.17561265553E+03  0.00000000000E+00 0.  1.
         24    2    1    2    0    0 -0.13497595082E+02 -0.23220209900E+02 -0.87664205005E+02  0.12259200089E+03  0.81378268734E+02 0.  0.
         25    2    1    2    0    0  0.25126098304E+02  0.34009244176E+02 -0.37473252257E+01  0.13210028262E+03  0.12509393557E+03 0.  0.
        -24    2    1    2    0    0 -0.11628503221E+02 -0.10789034277E+02  0.63840725270E+03  0.64352875002E+03  0.79459464255E+02 0.  0.
        -13    1    3    3    0    0 -0.72744747958E+01 -0.51267619220E+02 -0.75133426871E+02  0.91248663538E+02  0.00000000000E+00 0.  1.
         14    1    3    3    0    0 -0.62231202865E+01  0.28047409321E+02 -0.12530778134E+02  0.31343337352E+02  0.00000000000E+00 0. -1.
         13    1    5    5    0    0  0.48681054244E+01  0.71539697576E+01  0.57215213031E+01  0.10373694604E+02  0.00000000000E+00 0. -1.
        -14    1    5    5    0    0 -0.16496608646E+02 -0.17943004034E+02  0.63268573140E+03  0.63315505542E+03  0.00000000000E+00 0.  1.
          5    1    4    4  501    0 -0.46502844787E+02  0.29014490005E+02 -0.19760290051E+02  0.58414866827E+02  0.41800000000E+01 0.  1.
         -5    1    4    4    0  501  0.71628943090E+02  0.49947541707E+01  0.16012964826E+02  0.73685415789E+02  0.41800000000E+01 0.  1.
</event>
<event>
11    1  0.8864208E-009  0.1439960E+03  0.7561462E-02  0.1103176E+00
         22   -1    0    0    0    0  0.00000000000E+00  0.00000000000E+00  0.51611938388E+03  0.51611938388E+03  0.00000000000E+00 0. -1.
         22   -1    0    0    0    0 -0.00000000000E+00 -0.00000000000E+00 -0.71564859797E+03  0.71564859797E+03  0.00000000000E+00 0. -1.
        -24    2    1    2    0    0 -0.69758854252E+01 -0.57860869480E+02 -0.32468250724E+03  0.33973019821E+03  0.81248593060E+02 0.  0.
         25    2    1    2    0    0 -0.17147208778E+02  0.10256320471E+03 -0.36135168184E+03  0.39627811240E+03  0.12509223265E+03 0.  0.
         24    2    1    2    0    0  0.24123094203E+02 -0.44702335229E+02  0.48650497499E+03  0.49575967124E+03  0.80686668635E+02 0.  0.
        -11    1    5    5    0    0  0.15719129146E+02 -0.44738064281E+02  0.11817560531E+03  0.12733443802E+03  0.00000000000E+00 0.  1.
         12    1    5    5    0    0  0.84039650568E+01  0.35729052312E-01  0.36832936968E+03  0.36842523322E+03  0.00000000000E+00 0. -1.
         11    1    3    3    0    0  0.26701453148E+02 -0.38286459900E+02 -0.26052457550E+03  0.26467314758E+03  0.00000000000E+00 0. -1.
        -12    1    3    3    0    0 -0.33677338573E+02 -0.19574409580E+02 -0.64157931735E+02  0.75057050624E+02  0.00000000000E+00 0.  1.
          5    1    4    4  501    0 -0.45467732273E+02  0.11862078012E+03 -0.31314548816E+03  0.33795824196E+03  0.41800000000E+01 0. -1.
         -5    1    4    4    0  501  0.28320523495E+02 -0.16057575408E+02 -0.48206193681E+02  0.58319870440E+02  0.41800000000E+01 0. -1.
</event>
<event>
11    1  0.8864208E-009  0.1367840E+03  0.7561462E-02  0.1111204E+00
         22   -1    0    0    0    0  0.00000000000E+00  0.00000000000E+00  0.24018813424E+04  0.24018813424E+04  0.00000000000E+00 0.  1.
         22   -1    0    0    0    0 -0.00000000000E+00 -0.00000000000E+00 -0.48900286569E+03  0.48900286569E+03  0.00000000000E+00 0. -1.
         24    2    1    2    0    0  0.55160085470E+02  0.10313397400E+01 -0.47556762548E+03  0.48511749893E+03  0.78298931504E+02 0.  0.
         25    2    1    2    0    0 -0.90201137834E+02  0.26270647938E+02  0.83455187450E+03  0.84908646530E+03  0.12507838388E+03 0.  0.
        -24    2    1    2    0    0  0.35041052364E+02 -0.27301987678E+02  0.15538942277E+04  0.15566802439E+04  0.81809760345E+02 0.  0.
        -11    1    3    3    0    0 -0.95007179848E+01  0.17745952747E+02 -0.43660237116E+02  0.48077008914E+02  0.00000000000E+00 0.  1.
         12    1    3    3    0    0  0.64660803455E+02 -0.16714613007E+02 -0.43190738836E+03  0.43704049002E+03  0.00000000000E+00 0. -1.
         11    1    5    5    0    0  0.14502694956E+02 -0.51708514025E+02  0.64692555896E+03  0.64915081254E+03  0.00000000000E+00 0. -1.
        -12    1    5    5    0    0  0.20538357408E+02  0.24406526346E+02  0.90696866876E+03  0.90752943135E+03  0.00000000000E+00 0.  1.
          5    1    4    4  501    0 -0.38865445073E+00  0.52861418707E+02  0.17362270134E+03  0.18154006572E+03  0.41800000000E+01 0. -1.
         -5    1    4    4    0  501 -0.89812483383E+02 -0.26590770769E+02  0.66092917317E+03  0.66754639959E+03  0.41800000000E+01 0. -1.
</event>
<event>
11    1  0.8864208E-009  0.1521573E+03  0.7561462E-02  0.1094695E+00
         22   -1    0    0    0    0  0.00000000000E+00  0.00000000000E+00  0.96299854585E+03  0.96299854585E+03  0.00000000000E+00 0. -1.
         22   -1    0    0    0    0 -0.00000000000E+00 -0.00000000000E+00 -0.10899648428E+04  0.10899648428E+04  0.00000000000E+00 0. -1.
         24    2    1    2    0    0  0.23029211555E+02 -0.82430863498E+02 -0.93015161692E+03  0.93745199864E+03  0.79429386581E+02 0.  0.
         25    2    1    2    0    0 -0.57372027652E+02  0.86070966929E+02 -0.11181013867E+03  0.19710013288E+03  0.12508874597E+03 0.  0.
        -24    2    1    2    0    0  0.34342816096E+02 -0.36401034319E+01  0.91499545860E+03  0.91841125717E+03  0.71203010168E+02 0.  0.
        -11    1    3    3    0    0  0.47609149002E+02 -0.27310424192E+02 -0.36811656015E+03  0.37218583019E+03  0.00000000000E+00 0.  1.
         12    1    3    3    0    0 -0.24579937447E+02 -0.55120439305E+02 -0.56203505677E+03  0.56526616845E+03  0.00000000000E+00 0. -1.
         13    1    5    5    0    0  0.55575686028E+02 -0.10996532974E+02  0.64787610621E+03  0.65034839095E+03  0.00000000000E+00 0. -1.
        -14    1    5    5    0    0 -0.21232869932E+02  0.73564295419E+01  0.26711935240E+03  0.26806286622E+03  0.00000000000E+00 0.  1.
          5    1    4    4  501    0  0.25795380853E+02  0.73394762032E+02 -0.49122668652E+02  0.92101583822E+02  0.41800000000E+01 0. -1.
         -5    1    4    4    0  501 -0.83167408505E+02  0.12676204897E+02 -0.62687470014E+02  0.10499854906E+03  0.41800000000E+01 0. -1.
</event>
<event>
11    1  0.8864208E-009  0.1707606E+03  0.7561462E-02  0.1077372E+00
         22   -1    0    0    0    0  0.00000000000E+00  0.00000000000E+00  0.20446370980E+04  0.20446370980E+04  0.00000000000E+00 0.  1.
         22   -1    0    0    0    0 -0.00000000000E+00 -0.00000000000E+00 -0.10980839375E+04  0.10980839375E+04  0.00000000000E+00 0. -1.
         24    2    1    2    0    0 -0.47408537418E+02 -0.10741118251E+03 -0.10671338838E+04  0.10765791458E+04  0.80394027240E+02 0.  0.
         25    2    1    2    0    0 -0.62020790691E+01  0.72539121922E+02  0.18644734897E+03  0.23603070190E+03  0.12508992089E+03 0.  0.
        -24    2    1    2    0    0  0.53610616487E+02  0.34872060590E+02  0.18272396954E+04  0.18301111878E+04  0.80074317468E+02 0.  0.
        -13    1    3    3    0    0 -0.17168171765E+02 -0.61688484684E+02 -0.26705327751E+03  0.27462277453E+03  0.00000000000E+00 0.  1.
         14    1    3    3    0    0 -0.30240365653E+02 -0.45722697828E+02 -0.80008060634E+03  0.80195637129E+03  0.00000000000E+00 0. -1.
         11    1    5    5    0    0 -0.20674955634E+02  0.11127924415E+02  0.32383463441E+03  0.32468470081E+03  0.00000000000E+00 0. -1.
        -12    1    5    5    0    0  0.74285572121E+02  0.23744136175E+02  0.15034050610E+04  0.15054264870E+04  0.00000000000E+00 0.  1.
          5    1    4    4  501    0 -0.34909048624E+02 -0.89511129492E+01  0.12438938963E+03  0.12957220671E+03  0.41800000000E+01 0.  1.
         -5    1    4    4    0  501  0.28706969555E+02  0.81490234871E+02  0.62057959334E+02  0.10645849518E+03  0.41800000000E+01 0.  1.
</event>
<event>
11    1  0.8864208E-009  0.1503383E+03  0.7561462E-02  0.1096534E+00
         22   -1    0    0    0    0  0.00000000000E+00  0.00000000000E+00  0.21388849900E+04  0.21388849900E+04  0.00000000000E+00 0. -1.
         22   -1    0    0    0    0 -0.00000000000E+00 -0.00000000000E+00 -0.73732145711E+03  0.73732145711E+03  0.00000000000E+00 0. -1.
        -24    2    1    2    0    0  0.42415064405E+02  0.73263527492E+02 -0.71731603276E+03  0.72760195637E+03  0.87725332161E+02 0.  0.
         25    2    1    2    0    0 -0.28776983123E+01 -0.10039585393E+02  0.28445526639E+03  0.31092052250E+03  0.12509076031E+03 0.  0.
         24    2    1    2    0    0 -0.39537366092E+02 -0.63223942099E+02  0.18344242993E+04  0.18376839683E+04  0.80058648874E+02 0.  0.
        -11    1    5    5    0    0  0.21588011206E+02 -0.12046446642E+02  0.24049899136E+03  0.24176625891E+03  0.00000000000E+00 0.  1.
         12    1    5    5    0    0 -0.61125377299E+02 -0.51177495457E+02  0.15939253080E+04  0.15959177094E+04  0.00000000000E+00 0. -1.
         11    1    3    3    0    0  0.28749625303E+02  0.22393147826E+02 -0.56979375144E+03  0.57095789092E+03  0.00000000000E+00 0. -1.
        -12    1    3    3    0    0  0.13665439101E+02  0.50870379666E+02 -0.14752228133E+03  0.15664406545E+03  0.00000000000E+00 0.  1.
          5    1    4    4  501    0 -0.29278318512E+02  0.50716691810E+02  0.14654933895E+03  0.15787204917E+03  0.41800000000E+01 0.  1.
         -5    1    4    4    0  501  0.26400620200E+02 -0.60756277204E+02  0.13790592744E+03  0.15304847333E+03  0.41800000000E+01 0.  1.
</event>
<event>
11    1  0.8864208E-009  0.1368064E+03  0.7561462E-02  0.1111178E+00
         22   -1    0    0    0    0  0.00000000000E+00  0.00000000000E+00  0.41086714345E+03  0.41086714345E+03  0.00000000000E+00 0. -1.
         22   -1    0    0    0    0 -0.00000000000E+00 -0.00000000000E+00 -0.91905685162E+03  0.91905685162E+03  0.00000000000E+00 0.  1.
        -24    2    1    2    0    0 -0.71358252747E+01  0.56140364782E+02 -0.83555112696E+03  0.84142835840E+03  0.81567983828E+02 0.  0.
         25    2    1    2    0    0  0.39185126878E+02 -0.25724456760E+02 -0.14309315718E+02  0.13434697331E+03  0.12508849219E+03 0.  0.
         24    2    1    2    0    0 -0.32049301603E+02 -0.30415908023E+02  0.34167073451E+03  0.35414866336E+03  0.82037185164E+02 0.  0.
        -11    1    5    5    0    0 -0.12423457562E+02  0.28430993786E+02  0.10561765691E+03  0.11008066658E+03  0.00000000000E+00 0.  1.
         12    1    5    5    0    0 -0.19625844041E+02 -0.58846901808E+02  0.23605307760E+03  0.24406799678E+03  0.00000000000E+00 0. -1.
         13    1    3    3    0    0  0.96889896094E+01 -0.17986711829E+02 -0.27326017344E+03  0.27402284706E+03  0.00000000000E+00 0. -1.
        -14    1    3    3    0    0 -0.16824814884E+02  0.74127076611E+02 -0.56229095352E+03  0.56740551133E+03  0.00000000000E+00 0.  1.
          5    1    4    4  501    0  0.31138902676E+02  0.49054815415E+02 -0.66231357730E+01  0.58628870898E+02  0.41800000000E+01 0.  1.
         -5    1    4    4    0  501  0.80462242015E+01 -0.74779272175E+02 -0.76861799448E+01  0.75718102413E+02  0.41800000000E+01 0.  1.
</event>
<event>
11    1  0.8864208E-009  0.2347654E+03  0.7561462E-02  0.1032343E+00
         22   -1    0    0    0    0  0.00000000000E+00  0.00000000000E+00  0.28439486038E+02  0.28439486038E+02  0.00000000000E+00 0. -1.
         22   -1    0    0    0    0 -0.00000000000E+00 -0.00000000000E+00 -0.27709009335E+04  0.27709009335E+04  0.00000000000E+00 0. -1.
         24    2    1    2    0    0 -0.18291428885E+02 -0.25317029524E+02 -0.71329306667E+03  0.71874631118E+03  0.82666392883E+02 0.  0.
         25    2    1    2    0    0  0.25850748338E+02  0.21393368858E+03 -0.12700525452E+04  0.12942632757E+04  0.12509226528E+03 0.  0.
        -24    2    1    2    0    0 -0.75593194526E+01 -0.18861665906E+03 -0.75911583563E+03  0.78633083275E+03  0.80161956335E+02 0.  0.
        -13    1    3    3    0    0  0.17573324382E+02  0.14321797425E+02 -0.42069103619E+03  0.42130141650E+03  0.00000000000E+00 0.  1.
         14    1    3    3    0    0 -0.35864753267E+02 -0.39638826949E+02 -0.29260203048E+03  0.29744489468E+03  0.00000000000E+00 0. -1.
         13    1    5    5    0    0 -0.11037431708E+02 -0.15764590538E+03 -0.71537844809E+03  0.73262567548E+03  0.00000000000E+00 0. -1.
        -14    1    5    5    0    0  0.34781122557E+01 -0.30970753685E+02 -0.43737387544E+02  0.53705157274E+02  0.00000000000E+00 0.  1.
          5    1    4    4  501    0  0.35755086184E+02  0.28565370863E+02 -0.10654993299E+03  0.11603778359E+03  0.41800000000E+01 0. -1.
         -5    1    4    4    0  501 -0.99043378463E+01  0.18536831772E+03 -0.11635026122E+04  0.11782254921E+04  0.41800000000E+01 0. -1.
</event>
<event>
11    1  0.8864208E-009  0.1377507E+03  0.7561462E-02  0.1110096E+00
         22   -1    0    0    0    0  0.00000000000E+00  0.00000000000E+00  0.34648455918E+03  0.34648455918E+03  0.00000000000E+00 0. -1.
         22   -1    0    0    0    0 -0.00000000000E+00 -0.00000000000E+00 -0.54970017994E+03  0.54970017994E+03  0.00000000000E+00 0. -1.
        -24    2    1    2    0    0 -0.24649141763E+02  0.49505939207E+02 -0.41590645357E+03  0.42708370692E+03  0.79774033333E+02 0.  0.
         25    2    1    2    0    0  0.50781533185E+02 -0.60132318257E+02 -0.77130468762E+02  0.16670681111E+03  0.12508953532E+03 0.  0.
         24    2    1    2    0    0 -0.26132391422E+02  0.10626379051E+02  0.28982130158E+03  0.30239422109E+03  0.81547877283E+02 0.  0.
        -11    1    5    5    0    0  0.28599279555E+02 -0.16642084973E+01  0.72621151212E+02  0.78067406671E+02  0.00000000000E+00 0.  1.
         12    1    5    5    0    0 -0.54731670976E+02  0.12290587548E+02  0.21720015036E+03  0.22432681442E+03  0.00000000000E+00 0. -1.
         13    1    3    3    0    0  0.27105567766E+01  0.65031029761E+02 -0.25883497989E+03  0.26689310363E+03  0.00000000000E+00 0. -1.
        -14    1    3    3    0    0 -0.27359698540E+02 -0.15525090554E+02 -0.15707147368E+03  0.16019060330E+03  0.00000000000E+00 0.  1.
          5    1    4    4  501    0  0.14086605863E+02 -0.75356547758E+02  0.33594226994E+01  0.76849202180E+02  0.41800000000E+01 0.  1.
         -5    1    4    4    0  501  0.36694927322E+02  0.15224229501E+02 -0.80489891462E+02  0.89857608930E+02  0.41800000000E+01 0.  1.
</event>
<event>
11    1  0.8864208E-009  0.2141644E+03  0.7561462E-02  0.1044936E+00
         22   -1    0    0    0    0  0.00000000000E+00  0.00000000000E+00  0.62711104151E+03  0.62711104151E+03  0.00000000000E+00 0. -1.
         22   -1    0    0    0    0 -0.00000000000E+00 -0.00000000000E+00 -0.83760390841E+03  0.83760390841E+03  0.00000000000E+00 0.  1.
        -24    2    1    2    0    0  0.85543544806E+02  0.12879045352E+03 -0.68499682801E+03  0.70676720064E+03  0.79965883624E+02 0.  0.
         25    2    1    2    0    0 -0.22623685339E+03 -0.19526509900E+03  0.91504266581E+02  0.33665385129E+03  0.12510480433E+03 0.  0.
         24    2    1    2    0    0  0.14069330858E+03  0.66474645482E+02  0.38299969452E+03  0.42129389800E+03  0.81156003559E+02 0.  0.
        -11    1    5    5    0    0 -0.14761011311E+01  0.64336341959E+01 -0.16803556770E+01  0.68113228316E+01  0.00000000000E+00 0.  1.
         12    1    5    5    0    0  0.14216940971E+03  0.60041011286E+02  0.38468005020E+03  0.41448257517E+03  0.00000000000E+00 0. -1.
         11    1    3    3    0    0  0.77897417227E+02  0.59358668739E+02 -0.30293751974E+03  0.31837493625E+03  0.00000000000E+00 0. -1.
        -12    1    3    3    0    0  0.76461275789E+01  0.69431784779E+02 -0.38205930827E+03  0.38839226439E+03  0.00000000000E+00 0.  1.
          5    1    4    4  501    0 -0.24169741666E+03 -0.18215988252E+03  0.90549961587E+02  0.31593770267E+03  0.41800000000E+01 0. -1.
         -5    1    4    4    0  501  0.15460563276E+02 -0.13105216478E+02  0.95430499365E+00  0.20716148623E+02  0.41800000000E+01 0. -1.
</event>
<event>
11    1  0.8864208E-009  0.1921493E+03  0.7561462E-02  0.1060218E+00
         22   -1    0    0    0    0  0.00000000000E+00  0.00000000000E+00  0.45381466642E+03  0.45381466642E+03  0.00000000000E+00 0. -1.
         22   -1    0    0    0    0 -0.00000000000E+00 -0.00000000000E+00 -0.90956952032E+03  0.90956952032E+03  0.00000000000E+00 0. -1.
        -24    2    1    2    0    0 -0.10381647522E+03  0.96502028525E+02 -0.78145798761E+03  0.79825340960E+03  0.80258441953E+02 0.  0.
         25    2    1    2    0    0  0.20643785914E+03 -0.11484801876E+03  0.67481516987E+02  0.27569591042E+03  0.12509125785E+03 0.  0.
         24    2    1    2    0    0 -0.10262138392E+03  0.18345990235E+02  0.25822161672E+03  0.28943486671E+03  0.78907635453E+02 0.  0.
        -11    1    5    5    0    0  0.51836017782E+00 -0.18524783291E+02  0.20157020891E+02  0.27381413120E+02  0.00000000000E+00 0.  1.
         12    1    5    5    0    0 -0.10313974410E+03  0.36870773526E+02  0.23806459583E+03  0.26205345359E+03  0.00000000000E+00 0. -1.
         11    1    3    3    0    0 -0.90432344939E+02  0.55138232056E+02 -0.67501747807E+03  0.68327653944E+03  0.00000000000E+00 0. -1.
        -12    1    3    3    0    0 -0.13384130278E+02  0.41363796468E+02 -0.10644050954E+03  0.11497687017E+03  0.00000000000E+00 0.  1.
          5    1    4    4  501    0  0.21904572449E+03 -0.12039826678E+03  0.72761930178E+02  0.26036233011E+03  0.41800000000E+01 0.  1.
         -5    1    4    4    0  501 -0.12607865346E+02  0.55502480206E+01 -0.52804131914E+01  0.15333580310E+02  0.41800000000E+01 0.  1.
</event>
<event>
11    1  0.8864208E-009  0.1589190E+03  0.7561462E-02  0.1088098E+00
         22   -1    0    0    0    0  0.00000000000E+00  0.00000000000E+00  0.46757272825E+03  0.46757272825E+03  0.00000000000E+00 0.  1.
         22   -1    0    0    0    0 -0.00000000000E+00 -0.00000000000E+00 -0.12420241923E+04  0.12420241923E+04  0.00000000000E+00 0.  1.
        -24    2    1    2    0    0 -0.63821748150E+01 -0.94581611071E+02 -0.10388975202E+04  0.10462992945E+04  0.80297837785E+02 0.  0.
         25    2    1    2    0    0  0.68828096186E+02  0.13676644664E+03 -0.14121861348E+03  0.24296624203E+03  0.12509008842E+03 0.  0.
         24    2    1    2    0    0 -0.62445921371E+02 -0.42184835569E+02  0.40566466965E+03  0.42033138407E+03  0.80222158958E+02 0.  0.
        -11    1    5    5    0    0 -0.39393364571E+02 -0.63983974458E+02  0.32674086036E+03  0.33526910980E+03  0.00000000000E+00 0.  1.
         12    1    5    5    0    0 -0.23052556800E+02  0.21799138888E+02  0.78923809288E+02  0.85062274270E+02  0.00000000000E+00 0. -1.
         11    1    3    3    0    0  0.13789654108E+02 -0.45450469908E+02 -0.19382965284E+03  0.19956411024E+03  0.00000000000E+00 0. -1.
        -12    1    3    3    0    0 -0.20171828923E+02 -0.49131141162E+02 -0.84506786740E+03  0.84673518424E+03  0.00000000000E+00 0.  1.
          5    1    4    4  501    0  0.86722984787E+02  0.35716340578E+02 -0.54568894719E+02  0.10858991549E+03  0.41800000000E+01 0.  1.
         -5    1    4    4    0  501 -0.17894888601E+02  0.10105010606E+03 -0.86649718764E+02  0.13437632654E+03  0.41800000000E+01 0.  1.
</event>
<event>
11    1  0.8864208E-009  0.1536571E+03  0.7561462E-02  0.1093199E+00
         22   -1    0    0    0    0  0.00000000000E+00  0.00000000000E+00  0.12716109351E+04  0.12716109351E+04  0.00000000000E+00 0. -1.
         22   -1    0    0    0    0 -0.00000000000E+00 -0.00000000000E+00 -0.37867241897E+03  0.37867241897E+03  0.00000000000E+00 0. -1.
        -24    2    1    2    0    0  0.39743813163E+02  0.78689020191E+02 -0.31153494069E+03  0.33353394840E+03  0.80120801805E+02 0.  0.
         25    2    1    2    0    0 -0.68858499328E+02  0.93511476958E+01  0.43793238492E+02  0.14964462166E+03  0.12508688245E+03 0.  0.
         24    2    1    2    0    0  0.29114686165E+02 -0.88040167887E+02  0.11606802183E+04  0.11671047840E+04  0.79726228789E+02 0.  0.
        -13    1    5    5    0    0 -0.22788153727E+02 -0.28706377445E+02  0.57151543055E+03  0.57268948254E+03  0.00000000000E+00 0.  1.
         14    1    5    5    0    0  0.51902839892E+02 -0.59333790442E+02  0.58916478773E+03  0.59441530143E+03  0.00000000000E+00 0. -1.
         11    1    3    3    0    0  0.64163276341E+02  0.62326242559E+02 -0.24397571292E+03  0.25985695111E+03  0.00000000000E+00 0. -1.
        -12    1    3    3    0    0 -0.24419463178E+02  0.16362777632E+02 -0.67559227763E+02  0.73676997290E+02  0.00000000000E+00 0.  1.
          5    1    4    4  501    0 -0.50402055648E+02  0.63824146183E+02  0.42741762991E+02  0.91968579163E+02  0.41800000000E+01 0. -1.
         -5    1    4    4    0  501 -0.18456443679E+02 -0.54472998488E+02  0.10514755004E+01  0.57676042498E+02  0.41800000000E+01 0. -1.
</event>
<event>
11    1  0.8864208E-009  0.1488451E+03  0.7561462E-02  0.1098065E+00
         22   -1    0    0    0    0  0.00000000000E+00  0.00000000000E+00  0.32670729950E+03  0.32670729950E+03  0.00000000000E+00 0. -1.
         22   -1    0    0    0    0 -0.00000000000E+00 -0.00000000000E+00 -0.10600873388E+04  0.10600873388E+04  0.00000000000E+00 0.  1.
         24    2    1    2    0    0  0.11222085002E+02 -0.76098867020E+02 -0.82484079561E+03  0.83231074786E+03  0.80385758387E+02 0.  0.
         25    2    1    2    0    0 -0.52032007453E+02  0.10659978142E+03 -0.19147217002E+03  0.25764279472E+03  0.12508946632E+03 0.  0.
        -24    2    1    2    0    0  0.40809922451E+02 -0.30500914400E+02  0.28293292633E+03  0.29684109572E+03  0.73944842676E+02 0.  0.
        -11    1    3    3    0    0 -0.63852615740E+01 -0.81894382824E+02 -0.77110014458E+03  0.77546301941E+03  0.00000000000E+00 0.  1.
         12    1    3    3    0    0  0.17607346576E+02  0.57955158041E+01 -0.53740651023E+02  0.56847728445E+02  0.00000000000E+00 0. -1.
         11    1    5    5    0    0  0.60210171554E+01 -0.31773965793E+02  0.23705400770E+03  0.23924974423E+03  0.00000000000E+00 0. -1.
        -12    1    5    5    0    0  0.34788905296E+02  0.12730513932E+01  0.45878918630E+02  0.57591351488E+02  0.00000000000E+00 0.  1.
          5    1    4    4  501    0 -0.63591527763E+01 -0.15221782021E+02  0.85109177445E+01  0.19027600815E+02  0.41800000000E+01 0. -1.
         -5    1    4    4    0  501 -0.45672854677E+02  0.12182156344E+03 -0.19998308776E+03  0.23861519391E+03  0.41800000000E+01 0. -1.
</event>
<event>
11    1  0.8864208E-009  0.2735880E+03  0.7561462E-02  0.1012033E+00
         22   -1    0    0    0    0  0.00000000000E+00  0.00000000000E+00  0.12724728337E+04  0.12724728337E+04  0.00000000000E+00 0.  1.
         22   -1    0    0    0    0 -0.00000000000E+00 -0.00000000000E+00 -0.17932007465E+04  0.17932007465E+04  0.00000000000E+00 0.  1.
         24    2    1    2    0    0 -0.24150158094E+03  0.25313238142E+02 -0.17453851226E+04  0.17639434847E+04  0.78508709294E+02 0.  0.
         25    2    1    2    0    0  0.27912096662E+03 -0.65669554080E+01  0.62955501035E+03  0.69995739938E+03  0.12509680643E+03 0.  0.
        -24    2    1    2    0    0 -0.37619385682E+02 -0.18746282734E+02  0.59510219937E+03  0.60177269615E+03  0.78848645117E+02 0.  0.
        -13    1    3    3    0    0 -0.96951386863E+02  0.28569587011E+02 -0.49405124327E+03  0.50428407044E+03  0.00000000000E+00 0.  1.
         14    1    3    3    0    0 -0.14455019408E+03 -0.32563488685E+01 -0.12513338793E+04  0.12596594142E+04  0.00000000000E+00 0. -1.
         13    1    5    5    0    0  0.21104405116E+02 -0.69504605177E+01  0.74691143339E+02  0.77926065665E+02  0.00000000000E+00 0. -1.
        -14    1    5    5    0    0 -0.58723790798E+02 -0.11795822216E+02  0.52041105603E+03  0.52384663048E+03  0.00000000000E+00 0.  1.
          5    1    4    4  501    0  0.35105051497E+02 -0.19143370813E+02  0.21506723527E+03  0.21879264469E+03  0.41800000000E+01 0.  1.
         -5    1    4    4    0  501  0.24401591512E+03  0.12576415405E+02  0.41448777508E+03  0.48116475468E+03  0.41800000000E+01 0.  1.
</event>
<event>
11    1  0.8864208E-009  0.1399998E+03  0.7561462E-02  0.1107559E+00
         22   -1    0    0    0    0  0.00000000000E+00  0.00000000000E+00  0.24816083400E+03  0.24816083400E+03  0.00000000000E+00 0.  1.
         22   -1    0    0    0    0 -0.00000000000E+00 -0.00000000000E+00 -0.60121408136E+03  0.60121408136E+03  0.00000000000E+00 0.  1.
         24    2    1    2    0    0  0.25369205883E+02 -0.13552431076E+02 -0.45459885525E+03  0.46154541591E+03  0.74409587806E+02 0.  0.
         25    2    1    2    0    0 -0.42326026777E+02 -0.47574963442E+02 -0.90081403310E+02  0.16678869356E+03  0.12509572090E+03 0.  0.
        -24    2    1    2    0    0  0.16956820894E+02  0.61127394519E+02  0.19162701120E+03  0.22104080589E+03  0.90077934646E+02 0.  0.
        -11    1    3    3    0    0  0.49093449843E+02  0.54259952987E+01 -0.28015480713E+03  0.28447552478E+03  0.00000000000E+00 0.  1.
         12    1    3    3    0    0 -0.23724243960E+02 -0.18978426375E+02 -0.17444404812E+03  0.17706989113E+03  0.00000000000E+00 0. -1.
         11    1    5    5    0    0 -0.34401169399E+02  0.26495242996E+02  0.48575595170E+02  0.65153870212E+02  0.00000000000E+00 0. -1.
        -12    1    5    5    0    0  0.51357990293E+02  0.34632151523E+02  0.14305141603E+03  0.15588693568E+03  0.00000000000E+00 0.  1.
          5    1    4    4  501    0 -0.66385974114E+02 -0.77229769181E+02 -0.66904544360E+02  0.12192303008E+03  0.41800000000E+01 0. -1.
         -5    1    4    4    0  501  0.24059947337E+02  0.29654805739E+02 -0.23176858950E+02  0.44865663486E+02  0.41800000000E+01 0. -1.
</event>
<event>
11    1  0.8864208E-009  0.1321185E+03  0.7561462E-02  0.1116693E+00
         22   -1    0    0    0    0  0.00000000000E+00  0.00000000000E+00  0.22886957989E+04  0.22886957989E+04  0.00000000000E+00 0. -1.
         22   -1    0    0    0    0 -0.00000000000E+00 -0.00000000000E+00 -0.50679767218E+02  0.50679767218E+02  0.00000000000E+00 0.  1.
        -24    2    1    2    0    0  0.20141125301E+02  0.35455780186E+02  0.16135328315E+02  0.92731745520E+02  0.81707102080E+02 0.  0.
         25    2    1    2    0    0 -0.28343209032E+02 -0.47794201188E+02  0.40012221638E+03  0.42288784979E+03  0.12509485316E+03 0.  0.
         24    2    1    2    0    0  0.82020837306E+01  0.12338421002E+02  0.18217584869E+04  0.18237559708E+04  0.84037761550E+02 0.  0.
        -13    1    5    5    0    0 -0.86750606484E+01 -0.34227733451E+02  0.85653162476E+03  0.85725913155E+03  0.00000000000E+00 0.  1.
         14    1    5    5    0    0  0.16877144379E+02  0.46566154453E+02  0.96522686217E+03  0.96649683921E+03  0.00000000000E+00 0. -1.
         11    1    3    3    0    0 -0.30669407513E+02  0.18204216764E+02 -0.29316651008E+01  0.35785482049E+02  0.00000000000E+00 0. -1.
        -12    1    3    3    0    0  0.50810532814E+02  0.17251563422E+02  0.19066993416E+02  0.56946263471E+02  0.00000000000E+00 0.  1.
          5    1    4    4  501    0  0.14908421378E+02  0.37633952990E+02  0.10598901645E+03  0.11353290031E+03  0.41800000000E+01 0.  1.
         -5    1    4    4    0  501 -0.43251630410E+02 -0.85428154178E+02  0.29413319993E+03  0.30935494947E+03  0.41800000000E+01 0.  1.
</event>
<event>
11    1  0.8864208E-009  0.1501343E+03  0.7561462E-02  0.1096742E+00
         22   -1    0    0    0    0  0.00000000000E+00  0.00000000000E+00  0.40033131942E+03  0.40033131942E+03  0.00000000000E+00 0.  1.
         22   -1    0    0    0    0 -0.00000000000E+00 -0.00000000000E+00 -0.60587035969E+03  0.60587035969E+03  0.00000000000E+00 0. -1.
        -24    2    1    2    0    0 -0.11307771270E+01  0.91557856335E+02 -0.52242898297E+03  0.53667987228E+03  0.81909238502E+02 0.  0.
         25    2    1    2    0    0  0.44260404120E+02 -0.62940831149E+01  0.43324177231E+01  0.13290857196E+03  0.12508924735E+03 0.  0.
         24    2    1    2    0    0 -0.43129626993E+02 -0.85263773220E+02  0.31255752498E+03  0.33661323487E+03  0.80536871804E+02 0.  0.
        -13    1    5    5    0    0 -0.53333492199E+02 -0.65045170064E+02  0.29811022186E+03  0.30974996355E+03  0.00000000000E+00 0.  1.
         14    1    5    5    0    0  0.10203865206E+02 -0.20218603156E+02  0.14447303114E+02  0.26863271319E+02  0.00000000000E+00 0. -1.
         13    1    3    3    0    0 -0.39121474299E+02  0.33065944181E+02 -0.17615091289E+03  0.18344751437E+03  0.00000000000E+00 0. -1.
        -14    1    3    3    0    0  0.37990697172E+02  0.58491912154E+02 -0.34627807008E+03  0.35323235791E+03  0.00000000000E+00 0.  1.
          5    1    4    4  501    0  0.42524411517E+02  0.59129813277E+01 -0.56282203870E+02  0.70911549098E+02  0.41800000000E+01 0. -1.
         -5    1    4    4    0  501  0.17359926024E+01 -0.12207064443E+02  0.60614621593E+02  0.61997022860E+02  0.41800000000E+01 0. -1.
</event>
<event>
11    1  0.8864208E-009  0.4636866E+03  0.7561462E-02  0.9478538E-01
         22   -1    0    0    0    0  0.00000000000E+00  0.00000000000E+00  0.19389397847E+04  0.19389397847E+04  0.00000000000E+00 0. -1.
         22   -1    0    0    0    0 -0.00000000000E+00 -0.00000000000E+00 -0.12965543888E+04  0.12965543888E+04  0.00000000000E+00 0. -1.
        -24    2    1    2    0    0 -0.13409267838E+03 -0.53148696153E+02 -0.11704609068E+04  0.11820393068E+04  0.80203230400E+02 0.  0.
         25    2    1    2    0    0  0.52878452169E+03 -0.25878939277E+02  0.87744497748E+03  0.10323958382E+04  0.12509471737E+03 0.  0.
         24    2    1    2    0    0 -0.39469184331E+03  0.79027635430E+02  0.93540132517E+03  0.10210590286E+04  0.74557913080E+02 0.  0.
        -13    1    5    5    0    0 -0.96769917932E+02 -0.12813776905E+02  0.22201881670E+03  0.24253033803E+03  0.00000000000E+00 0.  1.
         14    1    5    5    0    0 -0.29792192538E+03  0.91841412335E+02  0.71338250847E+03  0.77852869056E+03  0.00000000000E+00 0. -1.
         11    1    3    3    0    0 -0.93054689005E+02 -0.56907871352E+02 -0.10270196333E+04  0.10327957243E+04  0.00000000000E+00 0. -1.
        -12    1    3    3    0    0 -0.41037989377E+02  0.37591751992E+01 -0.14344127349E+03  0.14924358247E+03  0.00000000000E+00 0.  1.
          5    1    4    4  501    0  0.37750103306E+03 -0.64846762561E+02  0.55872600310E+03  0.67742479399E+03  0.41800000000E+01 0. -1.
         -5    1    4    4    0  501  0.15128348863E+03  0.38967823284E+02  0.31871897438E+03  0.35497104419E+03  0.41800000000E+01 0. -1.
</event>
<event>
11    1  0.8864208E-009  0.4241536E+03  0.7561462E-02  0.9581062E-01
         22   -1    0    0    0    0  0.00000000000E+00  0.00000000000E+00  0.84265978631E+03  0.84265978631E+03  0.00000000000E+00 0.  1.
         22   -1    0    0    0    0 -0.00000000000E+00 -0.00000000000E+00 -0.84558946189E+03  0.84558946189E+03  0.00000000000E+00 0. -1.
        -24    2    1    2    0    0 -0.93484239557E+01 -0.29653374040E+02 -0.60746059800E+03  0.61287826227E+03  0.75131023055E+02 0.  0.
         25    2    1    2    0    0 -0.37289203583E+03  0.16305566040E+03  0.12786919214E+03  0.44456096456E+03  0.12509317384E+03 0.  0.
         24    2    1    2    0    0  0.38224045978E+03 -0.13340228636E+03  0.47666173027E+03  0.63081002136E+03  0.82528412366E+02 0.  0.
        -13    1    5    5    0    0  0.30985312579E+03 -0.93007828657E+02  0.32862425410E+03  0.46114348758E+03  0.00000000000E+00 0.  1.
         14    1    5    5    0    0  0.72387333991E+02 -0.40394457706E+02  0.14803747617E+03  0.16966653378E+03  0.00000000000E+00 0. -1.
         11    1    3    3    0    0  0.27020784278E+02  0.81438538502E+01 -0.25042886150E+03  0.25201400717E+03  0.00000000000E+00 0. -1.
        -12    1    3    3    0    0 -0.36369208233E+02 -0.37797227891E+02 -0.35703173650E+03  0.36086425510E+03  0.00000000000E+00 0.  1.
          5    1    4    4  501    0 -0.37131801763E+03  0.16257972808E+03  0.10160012717E+03  0.41791063212E+03  0.41800000000E+01 0. -1.
         -5    1    4    4    0  501 -0.15740181967E+01  0.47593232526E+00  0.26269064968E+02  0.26650332440E+02  0.41800000000E+01 0. -1.
</event>
<event>
11    1  0.8864208E-009  0.1423711E+03  0.7561462E-02  0.1104939E+00
         22   -1    0    0    0    0  0.00000000000E+00  0.00000000000E+00  0.14897705794E+04  0.14897705794E+04  0.00000000000E+00 0.  1.
         22   -1    0    0    0    0 -0.00000000000E+00 -0.00000000000E+00 -0.10397999323E+04  0.10397999323E+04  0.00000000000E+00 0.  1.
         24    2    1    2    0    0 -0.50446421945E+02  0.42734744130E+02 -0.90139478537E+03  0.90742904530E+03  0.80893839756E+02 0.  0.
         25    2    1    2    0    0  0.96917986487E+02 -0.37200179261E+02 -0.84508103595E+02  0.18321263287E+03  0.12509316460E+03 0.  0.
        -24    2    1    2    0    0 -0.46471564541E+02 -0.55345648690E+01  0.14358735360E+04  0.14389288335E+04  0.81198145889E+02 0.  0.
        -11    1    3    3    0    0 -0.53792228978E+02  0.63286613197E+02 -0.75643201828E+03  0.76097844751E+03  0.00000000000E+00 0.  1.
         12    1    3    3    0    0  0.33458070329E+01 -0.20551869067E+02 -0.14496276709E+03  0.14645059778E+03  0.00000000000E+00 0. -1.
         11    1    5    5    0    0  0.47012649832E+01 -0.34566500428E+02  0.53265190396E+03  0.53379302696E+03  0.00000000000E+00 0. -1.
        -12    1    5    5    0    0 -0.51172829524E+02  0.29031935559E+02  0.90322163203E+03  0.90513580657E+03  0.00000000000E+00 0.  1.
          5    1    4    4  501    0  0.61336750186E+02 -0.31235417751E+00  0.21711358214E+02  0.65200843277E+02  0.41800000000E+01 0. -1.
         -5    1    4    4    0  501  0.35581236301E+02 -0.36887825083E+02 -0.10621946181E+03  0.11801178959E+03  0.41800000000E+01 0. -1.
</event>
<event>
11    1  0.8864208E-009  0.1359253E+03  0.7561462E-02  0.1112196E+00
         22   -1    0    0    0    0  0.00000000000E+00  0.00000000000E+00  0.86446438281E+02  0.86446438281E+02  0.00000000000E+00 0. -1.
         22   -1    0    0    0    0 -0.00000000000E+00 -0.00000000000E+00 -0.58356831408E+03  0.58356831408E+03  0.00000000000E+00 0.  1.
         24    2    1    2    0    0  0.45486480361E+02  0.10614378658E+02 -0.24605260912E+03  0.26336940881E+03  0.81485422707E+02 0.  0.
         25    2    1    2    0    0 -0.92134265780E+02  0.17994793587E+01 -0.26929499769E+03  0.31089855455E+03  0.12508458892E+03 0.  0.
        -24    2    1    2    0    0  0.46647785418E+02 -0.12413858017E+02  0.18225731011E+02  0.95746788997E+02  0.80654513680E+02 0.  0.
        -13    1    3    3    0    0  0.10038163704E+02  0.35025354211E+02 -0.18570621527E+03  0.18924676631E+03  0.00000000000E+00 0.  1.
         14    1    3    3    0    0  0.35448316657E+02 -0.24410975553E+02 -0.60346393854E+02  0.74122642509E+02  0.00000000000E+00 0. -1.
         13    1    5    5    0    0  0.68798844030E+02 -0.11431017308E+02  0.49817849506E+01  0.69919720236E+02  0.00000000000E+00 0. -1.
        -14    1    5    5    0    0 -0.22151058612E+02 -0.98284070884E+00  0.13243946061E+02  0.25827068760E+02  0.00000000000E+00 0.  1.
          5    1    4    4  501    0 -0.87324996294E+02 -0.10859966495E+02 -0.27974568266E+03  0.29328947001E+03  0.41800000000E+01 0.  1.
         -5    1    4    4    0  501 -0.48092694860E+01  0.12659445853E+02  0.10450684967E+02  0.17609084547E+02  0.41800000000E+01 0.  1.
</event>
<event>
11    1  0.8864208E-009  0.1862111E+03  0.7561462E-02  0.1064727E+00
         22   -1    0    0    0    0  0.00000000000E+00  0.00000000000E+00  0.23603420245E+03  0.23603420245E+03  0.00000000000E+00 0. -1.
         22   -1    0    0    0    0 -0.00000000000E+00 -0.00000000000E+00 -0.86778047299E+03  0.86778047299E+03  0.00000000000E+00 0. -1.
        -24    2    1    2    0    0  0.21173774594E+02 -0.14602013855E+03 -0.71564396704E+03  0.73536327929E+03  0.82720344377E+02 0.  0.
         25    2    1    2    0    0 -0.61153018726E+02  0.78459759343E+02 -0.72833463170E+02  0.17563624329E+03  0.12509097115E+03 0.  0.
         24    2    1    2    0    0  0.39979244131E+02  0.67560379206E+02  0.15673115968E+03  0.19281515285E+03  0.80313647386E+02 0.  0.
        -13    1    5    5    0    0 -0.11909062416E+02 -0.36404960499E+01 -0.63072220943E+00  0.12469033227E+02  0.00000000000E+00 0.  1.
         14    1    5    5    0    0  0.51888306547E+02  0.71200875256E+02  0.15736188189E+03  0.18034611963E+03  0.00000000000E+00 0. -1.
         13    1    3    3    0    0  0.24209790128E+02 -0.13804356145E+03 -0.49241883694E+03  0.51197504799E+03  0.00000000000E+00 0. -1.
        -14    1    3    3    0    0 -0.30360155333E+01 -0.79765770977E+01 -0.22322513011E+03  0.22338823130E+03  0.00000000000E+00 0.  1.
          5    1    4    4  501    0 -0.70832640430E+02  0.24412185344E+02  0.10482986079E+02  0.75766636065E+02  0.41800000000E+01 0.  1.
         -5    1    4    4    0  501  0.96796217040E+01  0.54047573999E+02 -0.83316449248E+02  0.99869607223E+02  0.41800000000E+01 0.  1.
</event>
<event>
11    1  0.8864208E-009  0.1514947E+03  0.7561462E-02  0.1095361E+00
         22   -1    0    0    0    0  0.00000000000E+00  0.00000000000E+00  0.30392986469E+02  0.30392986469E+02  0.00000000000E+00 0.  1.
         22   -1    0    0    0    0 -0.00000000000E+00 -0.00000000000E+00 -0.24346662511E+04  0.24346662511E+04  0.00000000000E+00 0.  1.
         24    2    1    2    0    0  0.31911348374E+01 -0.77047136130E+02 -0.13891676133E+04  0.13930373202E+04  0.69425306790E+02 0.  0.
         25    2    1    2    0    0  0.81141912505E+01  0.11987581505E+03 -0.94117598214E+03  0.95702449649E+03  0.12509039289E+03 0.  0.
        -24    2    1    2    0    0 -0.11305326088E+02 -0.42828678918E+02 -0.73929669203E+02  0.11499742085E+03  0.76136093128E+02 0.  0.
        -13    1    3    3    0    0  0.19611239176E+02 -0.80020466403E+02 -0.95437011428E+03  0.95791972043E+03  0.00000000000E+00 0.  1.
         14    1    3    3    0    0 -0.16420104339E+02  0.29733302729E+01 -0.43479749898E+03  0.43511759978E+03  0.00000000000E+00 0. -1.
         13    1    5    5    0    0 -0.22414833566E+02  0.75632506540E+01  0.13893866234E+01  0.23697213327E+02  0.00000000000E+00 0. -1.
        -14    1    5    5    0    0  0.11109507479E+02 -0.50391929572E+02 -0.75319055826E+02  0.91300207519E+02  0.00000000000E+00 0.  1.
          5    1    4    4  501    0 -0.50061207855E+02  0.32634112174E+02 -0.49814532907E+03  0.50173434314E+03  0.41800000000E+01 0.  1.
         -5    1    4    4    0  501  0.58175399105E+02  0.87241702874E+02 -0.44303065307E+03  0.45529015335E+03  0.41800000000E+01 0.  1.
</event>
<event>
11    1  0.8864208E-009  0.1468839E+03  0.7561462E-02  0.1100106E+00
         22   -1    0    0    0    0  0.00000000000E+00  0.00000000000E+00  0.52206505038E+02  0.52206505038E+02  0.00000000000E+00 0. -1.
         22   -1    0    0    0    0 -0.00000000000E+00 -0.00000000000E+00 -0.22350653466E+04  0.22350653466E+04  0.00000000000E+00 0. -1.
         24    2    1    2    0    0  0.48366271372E+02 -0.53709202532E+02 -0.16721231847E+04  0.16763116672E+04  0.93813038157E+02 0.  0.
         25    2    1    2    0    0 -0.47360960156E+02  0.10314171564E+03 -0.48246517745E+03  0.51117665266E+03  0.12509056208E+03 0.  0.
        -24    2    1    2    0    0 -0.10053112157E+01 -0.49432513110E+02 -0.28270479441E+02  0.99783531808E+02  0.81932589422E+02 0.  0.
        -11    1    3    3    0    0  0.20524181885E+01  0.12220112910E+02 -0.33654991371E+02  0.35863658822E+02  0.00000000000E+00 0.  1.
         12    1    3    3    0    0  0.46313853183E+02 -0.65929315442E+02 -0.16384681933E+04  0.16404480084E+04  0.00000000000E+00 0. -1.
         13    1    5    5    0    0 -0.25131846445E+02 -0.53744194693E+02  0.37634852643E+01  0.59449238769E+02  0.00000000000E+00 0. -1.
        -14    1    5    5    0    0  0.24126535229E+02  0.43116815833E+01 -0.32033964705E+02  0.40334293039E+02  0.00000000000E+00 0.  1.
          5    1    4    4  501    0 -0.42597077786E+02  0.27248937551E+02 -0.47198684004E+02  0.69297935073E+02  0.41800000000E+01 0.  1.
         -5    1    4    4    0  501 -0.47638823699E+01  0.75892778091E+02 -0.43526649344E+03  0.44187871759E+03  0.41800000000E+01 0.  1.
</event>
<event>
11    1  0.8864208E-009  0.2526882E+03  0.7561462E-02  0.1022477E+00
         22   -1    0    0    0    0  0.00000000000E+00  0.00000000000E+00  0.19681919349E+04  0.19681919349E+04  0.00000000000E+00 0.  1.
         22   -1    0    0    0    0 -0.00000000000E+00 -0.00000000000E+00 -0.17621664590E+04  0.17621664590E+04  0.00000000000E+00 0.  1.
         24    2    1    2    0    0  0.32211057927E+02 -0.21640703855E+02 -0.17067326203E+04  0.17090771062E+04  0.80637741625E+02 0.  0.
         25    2    1    2    0    0  0.19183989327E+03  0.46024764893E+01  0.23944460361E+03  0.33136836316E+03  0.12509015335E+03 0.  0.
        -24    2    1    2    0    0 -0.22405095120E+03  0.17038227365E+02  0.16733134926E+04  0.16899129245E+04  0.73065162459E+02 0.  0.
        -13    1    3    3    0    0  0.18184470897E+02 -0.35855684006E+02 -0.15992342760E+04  0.15997395334E+04  0.00000000000E+00 0.  1.
         14    1    3    3    0    0  0.14026587030E+02  0.14214980151E+02 -0.10749834431E+03  0.10933757283E+03  0.00000000000E+00 0. -1.
         11    1    5    5    0    0 -0.27959737062E+02 -0.16423642776E+02  0.38116643708E+03  0.38254324682E+03  0.00000000000E+00 0. -1.
        -12    1    5    5    0    0 -0.19609121414E+03  0.33461870142E+02  0.12921470556E+04  0.13073696777E+04  0.00000000000E+00 0.  1.
          5    1    4    4  501    0  0.13974143090E+03  0.19366056192E+02  0.78485863221E+02  0.16149369885E+03  0.41800000000E+01 0.  1.
         -5    1    4    4    0  501  0.52098462369E+02 -0.14763579703E+02  0.16095874039E+03  0.16987466431E+03  0.41800000000E+01 0.  1.
</event>
<event>
11    1  0.8864208E-009  0.1259769E+03  0.7561462E-02  0.1124313E+00
         22   -1    0    0    0    0  0.00000000000E+00  0.00000000000E+00  0.22953579571E+03  0.22953579571E+03  0.00000000000E+00 0. -1.
         22   -1    0    0    0    0 -0.00000000000E+00 -0.00000000000E+00 -0.13568894866E+03  0.13568894866E+03  0.00000000000E+00 0. -1.
         24    2    1    2    0    0  0.99833631318E+01  0.24779485298E+02 -0.61832316010E+02  0.98975100048E+02  0.72519960669E+02 0.  0.
         25    2    1    2    0    0 -0.74526148916E+01 -0.27690530497E+01  0.59043559084E+02  0.13853906618E+03  0.12507486504E+03 0.  0.
        -24    2    1    2    0    0 -0.25307482403E+01 -0.22010432248E+02  0.96635603972E+02  0.12771057815E+03  0.80502720455E+02 0.  0.
        -13    1    3    3    0    0  0.30688622473E+02  0.11551569019E+02 -0.37991671736E+00  0.32792905220E+02  0.00000000000E+00 0.  1.
         14    1    3    3    0    0 -0.20705259341E+02  0.13227916278E+02 -0.61452399293E+02  0.66182194828E+02  0.00000000000E+00 0. -1.
         13    1    5    5    0    0 -0.16890500057E+02 -0.21648570362E+02  0.10669670633E+03  0.11017321241E+03  0.00000000000E+00 0. -1.
        -14    1    5    5    0    0  0.14359751817E+02 -0.36186188580E+00 -0.10061102359E+02  0.17537365735E+02  0.00000000000E+00 0.  1.
          5    1    4    4  501    0  0.57341524524E+02  0.84653943170E+01  0.37716725331E+02  0.69280134998E+02  0.41800000000E+01 0.  1.
         -5    1    4    4    0  501 -0.64794139415E+02 -0.11234447367E+02  0.21326833754E+02  0.69258931180E+02  0.41800000000E+01 0.  1.
</event>
<event>
11    1  0.8864208E-009  0.1284926E+04  0.7561462E-02  0.8447044E-01
         22   -1    0    0    0    0  0.00000000000E+00  0.00000000000E+00  0.16391177245E+04  0.16391177245E+04  0.00000000000E+00 0.  1.
         22   -1    0    0    0    0 -0.00000000000E+00 -0.00000000000E+00 -0.14470191707E+04  0.14470191707E+04  0.00000000000E+00 0.  1.
         24    2    1    2    0    0  0.19367274718E+03  0.26647330732E+03 -0.25466897109E+03  0.42571923319E+03  0.88675950246E+02 0.  0.
         25    2    1    2    0    0 -0.13228035215E+04  0.19416673989E+03  0.50995242893E+03  0.14363877981E+04  0.12509415333E+03 0.  0.
        -24    2    1    2    0    0  0.11291307744E+04 -0.46064004721E+03 -0.63184904024E+02  0.12240298640E+04  0.84446534062E+02 0.  0.
        -11    1    3    3    0    0  0.13368844615E+03  0.12502321047E+03 -0.17235536685E+03  0.25141554501E+03  0.00000000000E+00 0.  1.
         12    1    3    3    0    0  0.59984301038E+02  0.14145009685E+03 -0.82313604243E+02  0.17430368818E+03  0.00000000000E+00 0. -1.
         13    1    5    5    0    0  0.53246128465E+03 -0.17362572905E+03 -0.40837730913E+02  0.56154130187E+03  0.00000000000E+00 0. -1.
        -14    1    5    5    0    0  0.59666948970E+03 -0.28701431816E+03 -0.22347173112E+02  0.66248856210E+03  0.00000000000E+00 0.  1.
          5    1    4    4  501    0 -0.25049769721E+03  0.85747171928E+02  0.11135106374E+03  0.28725982245E+03  0.41800000000E+01 0.  1.
         -5    1    4    4    0  501 -0.10723058243E+04  0.10841956796E+03  0.39860136518E+03  0.11491279756E+04  0.41800000000E+01 0.  1.
</event>
<event>
11    1  0.8864208E-009  0.1341570E+03  0.7561462E-02  0.1114264E+00
         22   -1    0    0    0    0  0.00000000000E+00  0.00000000000E+00  0.17071500297E+03  0.17071500297E+03  0.00000000000E+00 0.  1.
         22   -1    0    0    0    0 -0.00000000000E+00 -0.00000000000E+00 -0.57940611507E+03  0.57940611507E+03  0.00000000000E+00 0. -1.
        -24    2    1    2    0    0  0.44032208176E+02  0.73744526997E+01 -0.23406821420E+03  0.25131317923E+03  0.79857167795E+02 0.  0.
         25    2    1    2    0    0 -0.55690953632E+02  0.42747030369E+01 -0.31100393810E+03  0.33983833490E+03  0.12508752515E+03 0.  0.
         24    2    1    2    0    0  0.11658745456E+02 -0.11649155737E+02  0.13638104020E+03  0.15896960390E+03  0.79999485395E+02 0.  0.
        -11    1    5    5    0    0 -0.30542132979E+02 -0.19708529965E+02  0.81762378168E+02  0.89478123158E+02  0.00000000000E+00 0.  1.
         12    1    5    5    0    0  0.42200878435E+02  0.80593742284E+01  0.54618662034E+02  0.69491480744E+02  0.00000000000E+00 0. -1.
         13    1    3    3    0    0  0.38456551473E+02  0.19129623865E+02 -0.23439576292E+03  0.23829859952E+03  0.00000000000E+00 0. -1.
        -14    1    3    3    0    0  0.55756567025E+01 -0.11755171165E+02  0.32754872221E+00  0.13014579707E+02  0.00000000000E+00 0.  1.
          5    1    4    4  501    0  0.26154145608E+02  0.93020296845E+01 -0.19896269879E+03  0.20093330983E+03  0.41800000000E+01 0. -1.
         -5    1    4    4    0  501 -0.81845099240E+02 -0.50273266475E+01 -0.11204123931E+03  0.13890502507E+03  0.41800000000E+01 0. -1.
</event>
<event>
11    1  0.8864208E-009  0.1313665E+03  0.7561462E-02  0.1117601E+00
         22   -1    0    0    0    0  0.00000000000E+00  0.00000000000E+00  0.78506128133E+03  0.78506128133E+03  0.00000000000E+00 0. -1.
         22   -1    0    0    0    0 -0.00000000000E+00 -0.00000000000E+00 -0.79113443616E+02  0.79113443616E+02  0.00000000000E+00 0.  1.
         24    2    1    2    0    0  0.18722436191E+02  0.83712793890E+01 -0.29331517129E+02  0.87298700920E+02  0.79624853844E+02 0.  0.
         25    2    1    2    0    0 -0.52620573781E+02 -0.20422955972E+02  0.26567166587E+03  0.29903625925E+03  0.12512085511E+03 0.  0.
        -24    2    1    2    0    0  0.33898137590E+02  0.12051676583E+02  0.46960768897E+03  0.47783976478E+03  0.80654402364E+02 0.  0.
        -11    1    3    3    0    0 -0.98040639958E+01  0.19600378740E+00 -0.50117708980E+02  0.51068021714E+02  0.00000000000E+00 0.  1.
         12    1    3    3    0    0  0.28526500187E+02  0.81752756016E+01  0.20786191851E+02  0.36230679206E+02  0.00000000000E+00 0. -1.
         11    1    5    5    0    0  0.33767651834E+02  0.17823708064E+02  0.47045715335E+03  0.47200410169E+03  0.00000000000E+00 0. -1.
        -12    1    5    5    0    0  0.13048575600E+00 -0.57720314809E+01 -0.84946437243E+00  0.58356630874E+01  0.00000000000E+00 0.  1.
          5    1    4    4  501    0 -0.86654817490E+01 -0.51768412342E+02  0.37796480297E+02  0.64815934871E+02  0.41800000000E+01 0. -1.
         -5    1    4    4    0  501 -0.43955092032E+02  0.31345456370E+02  0.22787518558E+03  0.23422032438E+03  0.41800000000E+01 0. -1.
</event>
<event>
11    1  0.8864208E-009  0.1468454E+03  0.7561462E-02  0.1100146E+00
         22   -1    0    0    0    0  0.00000000000E+00  0.00000000000E+00  0.15459513874E+04  0.15459513874E+04  0.00000000000E+00 0. -1.
         22   -1    0    0    0    0 -0.00000000000E+00 -0.00000000000E+00 -0.13890982755E+03  0.13890982755E+03  0.00000000000E+00 0.  1.
        -24    2    1    2    0    0  0.61599891918E+02  0.27173745193E+02 -0.88742410003E+02  0.13918053535E+03  0.83444873863E+02 0.  0.
         25    2    1    2    0    0 -0.13207578964E+03 -0.18674492950E+02  0.35032845876E+03  0.39518406702E+03  0.12509063480E+03 0.  0.
         24    2    1    2    0    0  0.70475897723E+02 -0.84992522438E+01  0.11454555111E+04  0.11504966126E+04  0.80839583188E+02 0.  0.
        -13    1    5    5    0    0  0.23120106503E+02  0.37126220704E+01  0.67759031894E+02  0.71691068416E+02  0.00000000000E+00 0.  1.
         14    1    5    5    0    0  0.47355791220E+02 -0.12211874314E+02  0.10776964792E+04  0.10788055441E+04  0.00000000000E+00 0. -1.
         11    1    3    3    0    0 -0.19845459375E+02  0.10092422618E+02 -0.92895382076E+01  0.24124567815E+02  0.00000000000E+00 0. -1.
        -12    1    3    3    0    0  0.81445351293E+02  0.17081322575E+02 -0.79452871796E+02  0.11505596753E+03  0.00000000000E+00 0.  1.
          5    1    4    4  501    0  0.16189821352E+02 -0.64142688509E+01  0.11746412196E+03  0.11882148589E+03  0.41800000000E+01 0. -1.
         -5    1    4    4    0  501 -0.14826561099E+03 -0.12260224099E+02  0.23286433680E+03  0.27636258114E+03  0.41800000000E+01 0. -1.
</event>
<event>
11    1  0.8864208E-009  0.1846292E+03  0.7561462E-02  0.1065959E+00
         22   -1    0    0    0    0  0.00000000000E+00  0.00000000000E+00  0.88300512747E+03  0.88300512747E+03  0.00000000000E+00 0.  1.
         22   -1    0    0    0    0 -0.00000000000E+00 -0.00000000000E+00 -0.13804505885E+03  0.13804505885E+03  0.00000000000E+00 0.  1.
        -24    2    1    2    0    0 -0.11607238451E+02 -0.30823345622E+01 -0.75013112105E+02  0.11848056494E+03  0.90920011599E+02 0.  0.
         25    2    1    2    0    0  0.45391105337E+02  0.13295047733E+03  0.26207315648E+03  0.32259177838E+03  0.12508770630E+03 0.  0.
         24    2    1    2    0    0 -0.33783866886E+02 -0.12986814276E+03  0.55790002425E+03  0.57997784300E+03  0.84349138417E+02 0.  0.
        -13    1    5    5    0    0 -0.27419829736E+02 -0.44723806539E+02  0.36858587898E+03  0.37230043798E+03  0.00000000000E+00 0.  1.
         14    1    5    5    0    0 -0.63640371504E+01 -0.85144336224E+02  0.18931414527E+03  0.20767740503E+03  0.00000000000E+00 0. -1.
         13    1    3    3    0    0 -0.27426037321E+02 -0.28027903335E+02 -0.14863640680E+01  0.39242326213E+02  0.00000000000E+00 0. -1.
        -14    1    3    3    0    0  0.15818798870E+02  0.24945568772E+02 -0.73526748037E+02  0.79238238723E+02  0.00000000000E+00 0.  1.
          5    1    4    4  501    0  0.45534918868E+01  0.93507241814E+02  0.24628888025E+03  0.26351475005E+03  0.41800000000E+01 0. -1.
         -5    1    4    4    0  501  0.40837613450E+02  0.39443235512E+02  0.15784276227E+02  0.59077028327E+02  0.41800000000E+01 0. -1.
</event>
<event>
11    1  0.8864208E-009  0.1360115E+03  0.7561462E-02  0.1112096E+00
         22   -1    0    0    0    0  0.00000000000E+00  0.00000000000E+00  0.21707840152E+04  0.21707840152E+04  0.00000000000E+00 0.  1.
         22   -1    0    0    0    0 -0.00000000000E+00 -0.00000000000E+00 -0.71346023690E+02  0.71346023690E+02  0.00000000000E+00 0. -1.
         24    2    1    2    0    0 -0.44825251351E+02  0.21752429176E+02 -0.32901389546E+01  0.95378367856E+02  0.81263378632E+02 0.  0.
         25    2    1    2    0    0  0.61170507375E+02 -0.40371397696E+02  0.22840720797E+03  0.27053421594E+03  0.12508888286E+03 0.  0.
        -24    2    1    2    0    0 -0.16345256023E+02  0.18618968520E+02  0.18743209225E+04  0.18762174551E+04  0.80617522453E+02 0.  0.
        -13    1    3    3    0    0 -0.17792729042E+02 -0.30746552883E+02 -0.70201659454E+01  0.36210695255E+02  0.00000000000E+00 0.  1.
         14    1    3    3    0    0 -0.27032522309E+02  0.52498982059E+02  0.37300269908E+01  0.59167672601E+02  0.00000000000E+00 0. -1.
         13    1    5    5    0    0 -0.44175900188E+02 -0.86855915659E+01  0.10864852988E+04  0.10874176999E+04  0.00000000000E+00 0. -1.
        -14    1    5    5    0    0  0.27830644165E+02  0.27304560086E+02  0.78783562369E+03  0.78879975514E+03  0.00000000000E+00 0.  1.
          5    1    4    4  501    0  0.56346528849E+02  0.14858233736E+02  0.32422420685E+02  0.66816047370E+02  0.41800000000E+01 0. -1.
         -5    1    4    4    0  501  0.48239785258E+01 -0.55229631432E+02  0.19598478728E+03  0.20371816857E+03  0.41800000000E+01 0. -1.
</event>
<event>
11    1  0.8864208E-009  0.1343061E+03  0.7561462E-02  0.1114089E+00
         22   -1    0    0    0    0  0.00000000000E+00  0.00000000000E+00  0.17519492786E+04  0.17519492786E+04  0.00000000000E+00 0.  1.
         22   -1    0    0    0    0 -0.00000000000E+00 -0.00000000000E+00 -0.39075378716E+02  0.39075378716E+02  0.00000000000E+00 0.  1.
        -24    2    1    2    0    0 -0.29453604240E+02 -0.21907670492E+02  0.28558354711E+02  0.90867906289E+02  0.78063665943E+02 0.  0.
         25    2    1    2    0    0 -0.12899428986E+02  0.51285913568E+02  0.95217708073E+03  0.96181360599E+03  0.12509028499E+03 0.  0.
         24    2    1    2    0    0  0.42353033227E+02 -0.29378243075E+02  0.73213846444E+03  0.73834314504E+03  0.80417710228E+02 0.  0.
        -13    1    5    5    0    0  0.53204888407E+02  0.54187767540E+01  0.54995091470E+03  0.55254514012E+03  0.00000000000E+00 0.  1.
         14    1    5    5    0    0 -0.10851855181E+02 -0.34797019829E+02  0.18218754974E+03  0.18579800492E+03  0.00000000000E+00 0. -1.
         11    1    3    3    0    0 -0.19673609775E+02  0.19511484315E+02  0.38239075346E+02  0.47222619846E+02  0.00000000000E+00 0. -1.
        -12    1    3    3    0    0 -0.97799944656E+01 -0.41419154808E+02 -0.96807206352E+01  0.43645286444E+02  0.00000000000E+00 0.  1.
          5    1    4    4  501    0  0.55789109991E+02  0.29655884579E+02  0.47994255498E+03  0.48410146122E+03  0.41800000000E+01 0.  1.
         -5    1    4    4    0  501 -0.68688538977E+02  0.21630028989E+02  0.47223452576E+03  0.47771214477E+03  0.41800000000E+01 0.  1.
</event>
<event>
11    1  0.8864208E-009  0.1441444E+03  0.7561462E-02  0.1103017E+00
         22   -1    0    0    0    0  0.00000000000E+00  0.00000000000E+00  0.13318487865E+04  0.13318487865E+04  0.00000000000E+00 0.  1.
         22   -1    0    0    0    0 -0.00000000000E+00 -0.00000000000E+00 -0.60346564119E+02  0.60346564119E+02  0.00000000000E+00 0.  1.
        -24    2    1    2    0    0 -0.33283500018E+02  0.52971053493E+00 -0.28111131641E+01  0.86700244140E+02  0.80005987338E+02 0.  0.
         25    2    1    2    0    0 -0.28989108569E+02 -0.47254329613E+02  0.38483320482E+03  0.40843230103E+03  0.12508800464E+03 0.  0.
         24    2    1    2    0    0  0.62272608587E+02  0.46724619079E+02  0.88948013073E+03  0.89706280546E+03  0.86519975545E+02 0.  0.
        -13    1    5    5    0    0  0.62187545218E+02  0.69222647519E+02  0.66966196325E+03  0.67609630285E+03  0.00000000000E+00 0.  1.
         14    1    5    5    0    0  0.85063369893E-01 -0.22498028441E+02  0.21981816748E+03  0.22096650261E+03  0.00000000000E+00 0. -1.
         11    1    3    3    0    0 -0.96581317609E+01 -0.22725906958E+02  0.30809952581E+02  0.39484168147E+02  0.00000000000E+00 0. -1.
        -12    1    3    3    0    0 -0.23625368257E+02  0.23255617493E+02 -0.33621065746E+02  0.47216075993E+02  0.00000000000E+00 0.  1.
          5    1    4    4  501    0  0.43869363032E+02 -0.38667433946E+01  0.74018989413E+02  0.86230829237E+02  0.41800000000E+01 0. -1.
         -5    1    4    4    0  501 -0.72858471601E+02 -0.43387586219E+02  0.31081421541E+03  0.32220147179E+03  0.41800000000E+01 0. -1.
</event>
<event>
11    1  0.8864208E-009  0.1395040E+03  0.7561462E-02  0.1108114E+00
         22   -1    0    0    0    0  0.00000000000E+00  0.00000000000E+00  0.55170062451E+03  0.55170062451E+03  0.00000000000E+00 0. -1.
         22   -1    0    0    0    0 -0.00000000000E+00 -0.00000000000E+00 -0.39447623484E+03  0.39447623484E+03  0.00000000000E+00 0.  1.
        -24    2    1    2    0    0  0.57806887650E+02 -0.29507185899E+02 -0.33573990385E+03  0.35094707119E+03  0.78931954603E+02 0.  0.
         25    2    1    2    0    0 -0.22659481103E+02  0.12304781450E+02  0.40338409989E+02  0.13393597383E+03  0.12508716176E+03 0.  0.
         24    2    1    2    0    0 -0.35147406547E+02  0.17202404449E+02  0.45262588353E+03  0.46129381432E+03  0.79940789207E+02 0.  0.
        -11    1    5    5    0    0  0.28207454850E+01  0.27937590002E+02  0.55367699117E+02  0.62080976520E+02  0.00000000000E+00 0.  1.
         12    1    5    5    0    0 -0.37968152032E+02 -0.10735185553E+02  0.39725818442E+03  0.39921283780E+03  0.00000000000E+00 0. -1.
         11    1    3    3    0    0  0.83833259798E+01 -0.42965814449E+02 -0.92014087339E+02  0.10189668118E+03  0.00000000000E+00 0. -1.
        -12    1    3    3    0    0  0.49423561670E+02  0.13458628549E+02 -0.24372581652E+03  0.24905039001E+03  0.00000000000E+00 0.  1.
          5    1    4    4  501    0 -0.32268949717E+02  0.46218558993E+01 -0.40444857664E+02  0.52114350991E+02  0.41800000000E+01 0. -1.
         -5    1    4    4    0  501  0.96094686135E+01  0.76829255506E+01  0.80783267653E+02  0.81821622844E+02  0.41800000000E+01 0. -1.
</event>
<event>
11    1  0.8864208E-009  0.2247779E+03  0.7561462E-02  0.1038265E+00
         22   -1    0    0    0    0  0.00000000000E+00  0.00000000000E+00  0.14804374913E+04  0.14804374913E+04  0.00000000000E+00 0.  1.
         22   -1    0    0    0    0 -0.00000000000E+00 -0.00000000000E+00 -0.68333181565E+03  0.68333181565E+03  0.00000000000E+00 0.  1.
         24    2    1    2    0    0 -0.14334578534E+03 -0.54653869415E+02 -0.34079098340E+03  0.38222064795E+03  0.80119097163E+02 0.  0.
         25    2    1    2    0    0  0.25526769256E+03 -0.93583525359E+02 -0.24327796375E+03  0.38568534999E+03  0.12509816333E+03 0.  0.
        -24    2    1    2    0    0 -0.11192190722E+03  0.14823739477E+03  0.13811746228E+04  0.13958633090E+04  0.79310782669E+02 0.  0.
        -13    1    3    3    0    0 -0.13591007946E+03 -0.61737590558E+02 -0.34068155000E+03  0.37195026320E+03  0.00000000000E+00 0.  1.
         14    1    3    3    0    0 -0.74357058781E+01  0.70837211429E+01 -0.10943340689E+00  0.10270384745E+02  0.00000000000E+00 0. -1.
         13    1    5    5    0    0 -0.27295543538E+01  0.39658975826E+02  0.47849918482E+03  0.48014763845E+03  0.00000000000E+00 0. -1.
        -14    1    5    5    0    0 -0.10919235287E+03  0.10857841895E+03  0.90267543796E+03  0.91571567055E+03  0.00000000000E+00 0.  1.
          5    1    4    4  501    0  0.16751457919E+03 -0.11720562572E+03 -0.19560092469E+03  0.28297612458E+03  0.41800000000E+01 0.  1.
         -5    1    4    4    0  501  0.87753113371E+02  0.23622100357E+02 -0.47677039055E+02  0.10270922541E+03  0.41800000000E+01 0.  1.
</event>
<event>
11    1  0.8864208E-009  0.2216270E+03  0.7561462E-02  0.1040203E+00
         22   -1    0    0    0    0  0.00000000000E+00  0.00000000000E+00  0.19271753216E+03  0.19271753216E+03  0.00000000000E+00 0.  1.
         22   -1    0    0    0    0 -0.00000000000E+00 -0.00000000000E+00 -0.23139620372E+04  0.23139620372E+04  0.00000000000E+00 0. -1.
         24    2    1    2    0    0 -0.41751082229E+02  0.15901709060E+03 -0.77234909974E+03  0.79361863138E+03  0.79232646275E+02 0.  0.
         25    2    1    2    0    0  0.10608558146E+03 -0.32356559904E+03 -0.14498706892E+04  0.14945643809E+04  0.12509526666E+03 0.  0.
        -24    2    1    2    0    0 -0.64334499232E+02  0.16454850844E+03  0.10097528392E+03  0.21849655707E+03  0.79558771176E+02 0.  0.
        -13    1    3    3    0    0 -0.19982844773E+02  0.12256028445E+03 -0.39937342447E+03  0.41823374993E+03  0.00000000000E+00 0.  1.
         14    1    3    3    0    0 -0.21768237456E+02  0.36456806147E+02 -0.37297567527E+03  0.37538488145E+03  0.00000000000E+00 0. -1.
         11    1    5    5    0    0 -0.17026050027E+02  0.55675428192E+01 -0.84266081755E+01  0.19796253128E+02  0.00000000000E+00 0. -1.
        -12    1    5    5    0    0 -0.47308449204E+02  0.15898096562E+03  0.10940189209E+03  0.19870030395E+03  0.00000000000E+00 0.  1.
          5    1    4    4  501    0 -0.19654847475E+02 -0.64776325072E+01 -0.10509709876E+03  0.10719675984E+03  0.41800000000E+01 0. -1.
         -5    1    4    4    0  501  0.12574042894E+03 -0.31708796653E+03 -0.13447735905E+04  0.13873676211E+04  0.41800000000E+01 0. -1.
</event>
<event>
11    1  0.8864208E-009  0.1516897E+03  0.7561462E-02  0.1095165E+00
         22   -1    0    0    0    0  0.00000000000E+00  0.00000000000E+00  0.12532317505E+04  0.12532317505E+04  0.00000000000E+00 0. -1.
         22   -1    0    0    0    0 -0.00000000000E+00 -0.00000000000E+00 -0.61459687789E+03  0.61459687789E+03  0.00000000000E+00 0.  1.
        -24    2    1    2    0    0  0.36528902973E+02 -0.51645141540E+02 -0.45872845534E+03  0.47001084701E+03  0.80478687696E+02 0.  0.
         25    2    1    2    0    0 -0.62603222629E+02  0.13220716731E+03 -0.84532090470E+02  0.21020771361E+03  0.12507481748E+03 0.  0.
         24    2    1    2    0    0  0.26074319656E+02 -0.80562025775E+02  0.11818954184E+04  0.11876100678E+04  0.79817184035E+02 0.  0.
        -13    1    5    5    0    0 -0.27632019611E+01  0.14314451416E+02  0.25720862156E+03  0.25762145448E+03  0.00000000000E+00 0.  1.
         14    1    5    5    0    0  0.28837521617E+02 -0.94876477190E+02  0.92468679684E+03  0.92998861328E+03  0.00000000000E+00 0. -1.
         13    1    3    3    0    0  0.71322581888E+01  0.14867887849E+02 -0.23259650297E+02  0.28512006732E+02  0.00000000000E+00 0. -1.
        -14    1    3    3    0    0  0.29396644784E+02 -0.66513029389E+02 -0.43546880504E+03  0.44149884028E+03  0.00000000000E+00 0.  1.
          5    1    4    4  501    0  0.13883434218E+02  0.65819909763E+02  0.14008873952E+02  0.68838442867E+02  0.41800000000E+01 0.  1.
         -5    1    4    4    0  501 -0.76486656847E+02  0.66387257552E+02 -0.98540964422E+02  0.14136927074E+03  0.41800000000E+01 0.  1.
</event>
<event>
11    1  0.8864208E-009  0.1817173E+03  0.7561462E-02  0.1068262E+00
         22   -1    0    0    0    0  0.00000000000E+00  0.00000000000E+00  0.58980318385E+03  0.58980318385E+03  0.00000000000E+00 0. -1.
         22   -1    0    0    0    0 -0.00000000000E+00 -0.00000000000E+00 -0.44644977153E+03  0.44644977153E+03  0.00000000000E+00 0. -1.
        -24    2    1    2    0    0 -0.58884661191E+02  0.52209624864E+02 -0.36741602128E+03  0.38586064100E+03  0.87753366447E+02 0.  0.
         25    2    1    2    0    0 -0.37102490584E+02  0.60813844391E+02  0.39095509516E+02  0.14916459222E+03  0.12508676282E+03 0.  0.
         24    2    1    2    0    0  0.95987151774E+02 -0.11302346926E+03  0.47167392408E+03  0.50122772216E+03  0.82250233374E+02 0.  0.
        -11    1    5    5    0    0  0.22426600985E+02 -0.24674223385E+02  0.30053168022E+02  0.44888335229E+02  0.00000000000E+00 0.  1.
         12    1    5    5    0    0  0.73560550789E+02 -0.88349245871E+02  0.44162075606E+03  0.45633938693E+03  0.00000000000E+00 0. -1.
         11    1    3    3    0    0 -0.10632234058E+02 -0.58677805215E+01 -0.21904793033E+03  0.21938429987E+03  0.00000000000E+00 0. -1.
        -12    1    3    3    0    0 -0.48252427133E+02  0.58077405386E+02 -0.14836809095E+03  0.16647634112E+03  0.00000000000E+00 0.  1.
          5    1    4    4  501    0  0.13120582865E+01  0.77273835854E+02 -0.16846765029E+02  0.79210183035E+02  0.41800000000E+01 0.  1.
         -5    1    4    4    0  501 -0.38414548870E+02 -0.16459991462E+02  0.55942274545E+02  0.69954409190E+02  0.41800000000E+01 0.  1.
</event>
<event>
11    1  0.8864208E-009  0.1497454E+03  0.7561462E-02  0.1097139E+00
         22   -1    0    0    0    0  0.00000000000E+00  0.00000000000E+00  0.48228563363E+03  0.48228563363E+03  0.00000000000E+00 0.  1.
         22   -1    0    0    0    0 -0.00000000000E+00 -0.00000000000E+00 -0.67620300056E+03  0.67620300056E+03  0.00000000000E+00 0.  1.
        -24    2    1    2    0    0 -0.57299756420E+02 -0.38663664467E+02 -0.58949449729E+03  0.59886374373E+03  0.79723774239E+02 0.  0.
         25    2    1    2    0    0  0.12003225896E+03  0.79845520337E+02  0.50693930626E+02  0.19748767507E+03  0.12509379239E+03 0.  0.
         24    2    1    2    0    0 -0.62732502535E+02 -0.41181855870E+02  0.34488319974E+03  0.36213721539E+03  0.81040910557E+02 0.  0.
        -11    1    5    5    0    0 -0.78146744615E+02 -0.48940262555E+02  0.30614275223E+03  0.31972714576E+03  0.00000000000E+00 0.  1.
         12    1    5    5    0    0  0.15414242080E+02  0.77584066844E+01  0.38740447509E+02  0.42410069634E+02  0.00000000000E+00 0. -1.
         13    1    3    3    0    0 -0.41545681346E+02  0.18336078734E+02 -0.29690432512E+03  0.30035717687E+03  0.00000000000E+00 0. -1.
        -14    1    3    3    0    0 -0.15754075074E+02 -0.56999743201E+02 -0.29259017217E+03  0.29850656686E+03  0.00000000000E+00 0.  1.
          5    1    4    4  501    0  0.27151943615E+02  0.20222803032E+02 -0.41426507015E+02  0.53663932842E+02  0.41800000000E+01 0.  1.
         -5    1    4    4    0  501  0.92880315340E+02  0.59622717305E+02  0.92120437641E+02  0.14382374223E+03  0.41800000000E+01 0.  1.
</event>
<event>
11    1  0.8864208E-009  0.1313231E+03  0.7561462E-02  0.1117654E+00
         22   -1    0    0    0    0  0.00000000000E+00  0.00000000000E+00  0.55160273264E+03  0.55160273264E+03  0.00000000000E+00 0.  1.
         22   -1    0    0    0    0 -0.00000000000E+00 -0.00000000000E+00 -0.40994668609E+03  0.40994668609E+03  0.00000000000E+00 0.  1.
         24    2    1    2    0    0 -0.11973175590E+02 -0.27085052835E+02 -0.19259688206E+03  0.21073827563E+03  0.80250263672E+02 0.  0.
         25    2    1    2    0    0 -0.26951483927E+02  0.36636168775E+02 -0.18206590762E+03  0.22553157909E+03  0.12509159485E+03 0.  0.
        -24    2    1    2    0    0  0.38924659517E+02 -0.95511159401E+01  0.51631883623E+03  0.52527956400E+03  0.87904077167E+02 0.  0.
        -13    1    3    3    0    0 -0.29995545117E+02  0.19373251527E+02 -0.80712661285E+02  0.88258649963E+02  0.00000000000E+00 0.  1.
         14    1    3    3    0    0  0.18022369526E+02 -0.46458304361E+02 -0.11188422077E+03  0.12247962567E+03  0.00000000000E+00 0. -1.
         11    1    5    5    0    0  0.10374768338E+02 -0.10638470855E+02  0.94585430007E+01  0.17614678989E+02  0.00000000000E+00 0. -1.
        -12    1    5    5    0    0  0.28549891179E+02  0.10873549146E+01  0.50686029323E+03  0.50766488501E+03  0.00000000000E+00 0.  1.
          5    1    4    4  501    0 -0.72391607830E+01  0.11332780550E+02 -0.19135895106E+03  0.19187641313E+03  0.41800000000E+01 0. -1.
         -5    1    4    4    0  501 -0.19712323144E+02  0.25303388225E+02  0.92930434429E+01  0.33655165961E+02  0.41800000000E+01 0. -1.
</event>
<event>
11    1  0.8864208E-009  0.2121807E+03  0.7561462E-02  0.1046229E+00
         22   -1    0    0    0    0  0.00000000000E+00  0.00000000000E+00  0.23130327579E+04  0.23130327579E+04  0.00000000000E+00 0.  1.
         22   -1    0    0    0    0 -0.00000000000E+00 -0.00000000000E+00 -0.72694245900E+02  0.72694245900E+02  0.00000000000E+00 0. -1.
        -24    2    1    2    0    0 -0.68812810421E+02  0.43141529304E+02  0.47490206895E+02  0.12462873357E+03  0.81734980584E+02 0.  0.
         25    2    1    2    0    0 -0.83042215441E+02 -0.13313468970E+03  0.31660731950E+03  0.37484395627E+03  0.12508773580E+03 0.  0.
         24    2    1    2    0    0  0.15185502586E+03  0.89993160392E+02  0.18762409856E+04  0.18862543140E+04  0.80724117008E+02 0.  0.
        -11    1    5    5    0    0  0.71167587574E+02  0.65783309407E+02  0.13332272499E+04  0.13367449903E+04  0.00000000000E+00 0.  1.
         12    1    5    5    0    0  0.80687438288E+02  0.24209850985E+02  0.54301373575E+03  0.54950932367E+03  0.00000000000E+00 0. -1.
         13    1    3    3    0    0  0.10825548693E+02  0.15157487081E+02 -0.11277492819E+02  0.21774383192E+02  0.00000000000E+00 0. -1.
        -14    1    3    3    0    0 -0.79638359114E+02  0.27984042223E+02  0.58767699715E+02  0.10285435038E+03  0.00000000000E+00 0.  1.
          5    1    4    4  501    0 -0.72670054651E+02 -0.89747226537E+01  0.88926548301E+02  0.11526875501E+03  0.41800000000E+01 0. -1.
         -5    1    4    4    0  501 -0.10372160790E+02 -0.12415996704E+03  0.22768077120E+03  0.25957520126E+03  0.41800000000E+01 0. -1.
</event>
<event>
11    1  0.8864208E-009  0.1516716E+03  0.7561462E-02  0.1095183E+00
         22   -1    0    0    0    0  0.00000000000E+00  0.00000000000E+00  0.17194139559E+04  0.17194139559E+04  0.00000000000E+00 0. -1.
         22   -1    0    0    0    0 -0.00000000000E+00 -0.00000000000E+00 -0.13840120657E+03  0.13840120657E+03  0.00000000000E+00 0.  1.
        -24    2    1    2    0    0  0.35417448546E+01  0.31047969400E+02 -0.81999091519E+02  0.11905987424E+03  0.80466653237E+02 0.  0.
         25    2    1    2    0    0 -0.40957259649E+02 -0.10622836739E+03  0.16558257308E+03  0.23669992574E+03  0.12508918091E+03 0.  0.
         24    2    1    2    0    0  0.37415514794E+02  0.75180397986E+02  0.14974292678E+04  0.15020553625E+04  0.82606821894E+02 0.  0.
        -11    1    5    5    0    0 -0.13016894536E+02  0.30815488567E+02  0.93981354648E+03  0.94040870690E+03  0.00000000000E+00 0.  1.
         12    1    5    5    0    0  0.50432409330E+02  0.44364909419E+02  0.55761572133E+03  0.56164665563E+03  0.00000000000E+00 0. -1.
         11    1    3    3    0    0  0.37076355101E+02 -0.39174510383E+01 -0.28835253167E+02  0.47132519086E+02  0.00000000000E+00 0. -1.
        -12    1    3    3    0    0 -0.33534610246E+02  0.34965420439E+02 -0.53163838352E+02  0.71927355152E+02  0.00000000000E+00 0.  1.
          5    1    4    4  501    0 -0.33165287347E+02 -0.12344822636E+03  0.17370382946E+03  0.21570788962E+03  0.41800000000E+01 0. -1.
         -5    1    4    4    0  501 -0.77919723018E+01  0.17219858971E+02 -0.81212563778E+01  0.20992036120E+02  0.41800000000E+01 0. -1.
</event>
<event>
11    1  0.8864208E-009  0.1617386E+03  0.7561462E-02  0.1085453E+00
         22   -1    0    0    0    0  0.00000000000E+00  0.00000000000E+00  0.15559522954E+04  0.15559522954E+04  0.00000000000E+00 0.  1.
         22   -1    0    0    0    0 -0.00000000000E+00 -0.00000000000E+00 -0.29158138976E+03  0.29158138976E+03  0.00000000000E+00 0. -1.
        -24    2    1    2    0    0  0.15263544507E+02 -0.34416348426E+02 -0.19107022915E+03  0.21068508365E+03  0.80392233290E+02 0.  0.
         25    2    1    2    0    0 -0.64195943452E+02 -0.56558614800E+02 -0.22209121173E+02  0.15316289129E+03  0.12508249335E+03 0.  0.
         24    2    1    2    0    0  0.48932398944E+02  0.90974963226E+02  0.14776502560E+04  0.14836857103E+04  0.84865683269E+02 0.  0.
        -13    1    5    5    0    0  0.18811109332E+02  0.55274852438E+02  0.12463132505E+04  0.12476802016E+04  0.00000000000E+00 0.  1.
         14    1    5    5    0    0  0.30121289612E+02  0.35700110788E+02  0.23133700553E+03  0.23600550868E+03  0.00000000000E+00 0. -1.
         13    1    3    3    0    0  0.48900292483E+01 -0.44676740965E+02 -0.19087326525E+03  0.19609315887E+03  0.00000000000E+00 0. -1.
        -14    1    3    3    0    0  0.10373515259E+02  0.10260392539E+02 -0.19696390265E+00  0.14591924776E+02  0.00000000000E+00 0.  1.
          5    1    4    4  501    0  0.36912338499E+02 -0.27334444591E+02 -0.43001322653E+01  0.46321227662E+02  0.41800000000E+01 0. -1.
         -5    1    4    4    0  501 -0.10110828195E+03 -0.29224170209E+02 -0.17908988907E+02  0.10684166363E+03  0.41800000000E+01 0. -1.
</event>
<event>
11    1  0.8864208E-009  0.1285147E+03  0.7561462E-02  0.1121107E+00
         22   -1    0    0    0    0  0.00000000000E+00  0.00000000000E+00  0.10626313902E+04  0.10626313902E+04  0.00000000000E+00 0. -1.
         22   -1    0    0    0    0 -0.00000000000E+00 -0.00000000000E+00 -0.67631137457E+02  0.67631137457E+02  0.00000000000E+00 0.  1.
        -24    2    1    2    0    0 -0.16256783269E+02 -0.26558211268E+02 -0.85328318459E+01  0.86178034127E+02  0.79901331395E+02 0.  0.
         25    2    1    2    0    0 -0.12379502612E+01  0.23674332513E+02  0.20422075359E+03  0.24065510312E+03  0.12508699341E+03 0.  0.
         24    2    1    2    0    0  0.17494733530E+02  0.28838787554E+01  0.79931233104E+03  0.80342939045E+03  0.79272948894E+02 0.  0.
        -13    1    5    5    0    0 -0.19402096365E+02  0.84346692248E+01  0.69140834148E+02  0.72305186086E+02  0.00000000000E+00 0.  1.
         14    1    5    5    0    0  0.36896829895E+02 -0.55507904695E+01  0.73017149689E+03  0.73112420436E+03  0.00000000000E+00 0. -1.
         13    1    3    3    0    0 -0.10019268079E+02  0.28073114584E+02  0.31208747384E+01  0.29970407979E+02  0.00000000000E+00 0. -1.
        -14    1    3    3    0    0 -0.62375151894E+01 -0.54631325852E+02 -0.11653706584E+02  0.56207626149E+02  0.00000000000E+00 0.  1.
          5    1    4    4  501    0 -0.40093876329E+02  0.76703792054E+01  0.10461256005E+02  0.42346946920E+02  0.41800000000E+01 0.  1.
         -5    1    4    4    0  501  0.38855926068E+02  0.16003953308E+02  0.19375949758E+03  0.19830815620E+03  0.41800000000E+01 0.  1.
</event>
<event>
11    1  0.8864208E-009  0.1431393E+03  0.7561462E-02  0.1104103E+00
         22   -1    0    0    0    0  0.00000000000E+00  0.00000000000E+00  0.15429574087E+03  0.15429574087E+03  0.00000000000E+00 0. -1.
         22   -1    0    0    0    0 -0.00000000000E+00 -0.00000000000E+00 -0.71714094176E+03  0.71714094176E+03  0.00000000000E+00 0. -1.
        -24    2    1    2    0    0 -0.22282470691E+02 -0.29588821554E+01 -0.59411285800E+03  0.59993837475E+03  0.80316262175E+02 0.  0.
         25    2    1    2    0    0  0.61753982074E+02  0.55237558979E+02 -0.27434058824E+02  0.15252687527E+03  0.12508828031E+03 0.  0.
         24    2    1    2    0    0 -0.39471511383E+02 -0.52278676824E+02  0.58701715933E+02  0.11897143262E+03  0.80107740356E+02 0.  0.
        -13    1    5    5    0    0  0.21871928898E+02 -0.31868647015E+02  0.25375416280E+02  0.46237470602E+02  0.00000000000E+00 0.  1.
         14    1    5    5    0    0 -0.61343440281E+02 -0.20410029809E+02  0.33326299653E+02  0.72733962018E+02  0.00000000000E+00 0. -1.
         13    1    3    3    0    0 -0.19938409871E+02 -0.16276960066E+02 -0.57933748626E+03  0.57990896062E+03  0.00000000000E+00 0. -1.
        -14    1    3    3    0    0 -0.23440608203E+01  0.13318077911E+02 -0.14775371740E+02  0.20029414131E+02  0.00000000000E+00 0.  1.
          5    1    4    4  501    0 -0.32594314708E+02  0.43189323108E+02 -0.16342070338E+02  0.56676649907E+02  0.41800000000E+01 0. -1.
         -5    1    4    4    0  501  0.94348296783E+02  0.12048235872E+02 -0.11091988487E+02  0.95850225362E+02  0.41800000000E+01 0. -1.
</event>
<event>
11    1  0.8864208E-009  0.1449066E+03  0.7561462E-02  0.1102200E+00
         22   -1    0    0    0    0  0.00000000000E+00  0.00000000000E+00  0.45073135118E+03  0.45073135118E+03  0.00000000000E+00 0. -1.
         22   -1    0    0    0    0 -0.00000000000E+00 -0.00000000000E+00 -0.14804811399E+04  0.14804811399E+04  0.00000000000E+00 0. -1.
         24    2    1    2    0    0 -0.71377885863E+02 -0.90158135060E+01 -0.13519260006E+04  0.13561912520E+04  0.79841802401E+02 0.  0.
         25    2    1    2    0    0 -0.61045694033E+01  0.91501570739E+01 -0.85541910258E+02  0.15193958899E+03  0.12508888499E+03 0.  0.
        -24    2    1    2    0    0  0.77482455267E+02 -0.13434356790E+00  0.40771812212E+03  0.42308165013E+03  0.82222056970E+02 0.  0.
        -11    1    3    3    0    0 -0.15725474459E+02 -0.40075212703E+02 -0.47134426901E+03  0.47330617273E+03  0.00000000000E+00 0.  1.
         12    1    3    3    0    0 -0.55652411405E+02  0.31059399197E+02 -0.88058173156E+03  0.88288507923E+03  0.00000000000E+00 0. -1.
         13    1    5    5    0    0  0.94976624230E+01 -0.34131353776E+02  0.16409595935E+03  0.16787685599E+03  0.00000000000E+00 0. -1.
        -14    1    5    5    0    0  0.67984792844E+02  0.33997010208E+02  0.24362216276E+03  0.25520479414E+03  0.00000000000E+00 0.  1.
          5    1    4    4  501    0 -0.68976372871E+01  0.45145287950E+02 -0.10222361110E+03  0.11203933903E+03  0.41800000000E+01 0.  1.
         -5    1    4    4    0  501  0.79306788380E+00 -0.35995130877E+02  0.16681700841E+02  0.39900249955E+02  0.41800000000E+01 0.  1.
</event>
<event>
11    1  0.8864208E-009  0.1338529E+03  0.7561462E-02  0.1114624E+00
         22   -1    0    0    0    0  0.00000000000E+00  0.00000000000E+00  0.13499690557E+03  0.13499690557E+03  0.00000000000E+00 0. -1.
         22   -1    0    0    0    0 -0.00000000000E+00 -0.00000000000E+00 -0.22866108406E+04  0.22866108406E+04  0.00000000000E+00 0. -1.
        -24    2    1    2    0    0 -0.15816082131E+02 -0.43541486257E+02 -0.20522417347E+04  0.20547390570E+04  0.90058010423E+02 0.  0.
         25    2    1    2    0    0  0.25418228533E+02  0.67981075820E+02 -0.19397573911E+03  0.24195592965E+03  0.12509425054E+03 0.  0.
         24    2    1    2    0    0 -0.96021464023E+01 -0.24439589562E+02  0.94603538803E+02  0.12491275950E+03  0.77226117206E+02 0.  0.
        -11    1    5    5    0    0 -0.18884825107E+02 -0.50346668806E+02  0.57610661740E+02  0.78806167432E+02  0.00000000000E+00 0.  1.
         12    1    5    5    0    0  0.92826787051E+01  0.25907079244E+02  0.36992877064E+02  0.46106592070E+02  0.00000000000E+00 0. -1.
         11    1    3    3    0    0 -0.44328667164E+02 -0.54808376556E+02 -0.14761582352E+04  0.14778403581E+04  0.00000000000E+00 0. -1.
        -12    1    3    3    0    0  0.28512585033E+02  0.11266890298E+02 -0.57608349953E+03  0.57689869886E+03  0.00000000000E+00 0.  1.
          5    1    4    4  501    0  0.37512729314E+02  0.35960817161E+02 -0.79193735132E+01  0.52731149317E+02  0.41800000000E+01 0.  1.
         -5    1    4    4    0  501 -0.12094500780E+02  0.32020258658E+02 -0.18605636559E+03  0.18922478033E+03  0.41800000000E+01 0.  1.
</event>
<event>
11    1  0.8864208E-009  0.1341849E+03  0.7561462E-02  0.1114231E+00
         22   -1    0    0    0    0  0.00000000000E+00  0.00000000000E+00  0.73670672530E+03  0.73670672530E+03  0.00000000000E+00 0. -1.
         22   -1    0    0    0    0 -0.00000000000E+00 -0.00000000000E+00 -0.15979088839E+03  0.15979088839E+03  0.00000000000E+00 0. -1.
         24    2    1    2    0    0  0.27833846675E+01 -0.19957798544E+02 -0.33776900307E+02  0.87305660215E+02  0.77944456880E+02 0.  0.
         25    2    1    2    0    0 -0.51243790473E+02  0.19429146724E+02 -0.47048298692E+02  0.14444578047E+03  0.12509046040E+03 0.  0.
        -24    2    1    2    0    0  0.48460405805E+02  0.52865181959E+00  0.65774103590E+03  0.66474617300E+03  0.83159568342E+02 0.  0.
        -13    1    3    3    0    0  0.22026847638E+02  0.93475818324E+01  0.14245395910E+02  0.27847631993E+02  0.00000000000E+00 0.  1.
         14    1    3    3    0    0 -0.19243462971E+02 -0.29305380376E+02 -0.48022296217E+02  0.59458028222E+02  0.00000000000E+00 0. -1.
         13    1    5    5    0    0  0.43612318321E+02 -0.13474333992E+02  0.64002090262E+03  0.64164659102E+03  0.00000000000E+00 0. -1.
        -14    1    5    5    0    0  0.48480874847E+01  0.14002985812E+02  0.17720133286E+02  0.23099581978E+02  0.00000000000E+00 0.  1.
          5    1    4    4  501    0 -0.30100852288E+02  0.41570250994E+02  0.31275447263E+02  0.60247598107E+02  0.41800000000E+01 0. -1.
         -5    1    4    4    0  501 -0.21142938185E+02 -0.22141104270E+02 -0.78323745955E+02  0.84198182366E+02  0.41800000000E+01 0. -1.
</event>
<event>
11    1  0.8864208E-009  0.1605543E+03  0.7561462E-02  0.1086557E+00
         22   -1    0    0    0    0  0.00000000000E+00  0.00000000000E+00  0.42648004983E+03  0.42648004983E+03  0.00000000000E+00 0. -1.
         22   -1    0    0    0    0 -0.00000000000E+00 -0.00000000000E+00 -0.10213737272E+04  0.10213737272E+04  0.00000000000E+00 0.  1.
        -24    2    1    2    0    0  0.30128055510E+02  0.45164115688E+02 -0.82866830877E+03  0.83466479349E+03  0.83825142208E+02 0.  0.
         25    2    1    2    0    0 -0.12812248783E+03 -0.28827224666E+02 -0.13301859723E+03  0.22491785168E+03  0.12509081511E+03 0.  0.
         24    2    1    2    0    0  0.97994432320E+02 -0.16336891022E+02  0.36679322862E+03  0.38827113186E+03  0.79670549775E+02 0.  0.
        -13    1    5    5    0    0  0.21252092281E+02  0.16369829735E+02  0.25789669455E+02  0.37211957789E+02  0.00000000000E+00 0.  1.
         14    1    5    5    0    0  0.76742340038E+02 -0.32706720757E+02  0.34100355916E+03  0.35105917407E+03  0.00000000000E+00 0. -1.
         13    1    3    3    0    0 -0.11538146728E+02 -0.26509720175E+01 -0.18155316838E+02  0.21674224601E+02  0.00000000000E+00 0. -1.
        -14    1    3    3    0    0  0.41666202238E+02  0.47815087706E+02 -0.81051299193E+03  0.81299056889E+03  0.00000000000E+00 0.  1.
          5    1    4    4  501    0 -0.69186835184E+02  0.19472970967E+02 -0.50206711236E+00  0.71998189091E+02  0.41800000000E+01 0.  1.
         -5    1    4    4    0  501 -0.58935652646E+02 -0.48300195633E+02 -0.13251653012E+03  0.15291966259E+03  0.41800000000E+01 0.  1.
</event>
<event>
11    1  0.8864208E-009  0.1324988E+03  0.7561462E-02  0.1116236E+00
         22   -1    0    0    0    0  0.00000000000E+00  0.00000000000E+00  0.15220559659E+03  0.15220559659E+03  0.00000000000E+00 0. -1.
         22   -1    0    0    0    0 -0.00000000000E+00 -0.00000000000E+00 -0.18741991327E+04  0.18741991327E+04  0.00000000000E+00 0.  1.
        -24    2    1    2    0    0  0.19874524847E+02 -0.14330718967E+02 -0.13917155815E+04  0.13946570923E+04  0.87153766894E+02 0.  0.
         25    2    1    2    0    0  0.23435716923E+02  0.46026797250E+01 -0.45727519879E+03  0.47467724647E+03  0.12508982132E+03 0.  0.
         24    2    1    2    0    0 -0.43310241770E+02  0.97280392424E+01  0.12699724414E+03  0.15707039055E+03  0.81070313792E+02 0.  0.
        -13    1    5    5    0    0  0.11406763468E+02 -0.23255954022E+02  0.55118216353E+02  0.60901325307E+02  0.00000000000E+00 0.  1.
         14    1    5    5    0    0 -0.54717005238E+02  0.32983993264E+02  0.71879027790E+02  0.96169065244E+02  0.00000000000E+00 0. -1.
         13    1    3    3    0    0  0.36742671977E+02 -0.27661862268E+02 -0.38874563537E+03  0.39145673016E+03  0.00000000000E+00 0. -1.
        -14    1    3    3    0    0 -0.16868147129E+02  0.13331143301E+02 -0.10029699461E+04  0.10032003621E+04  0.00000000000E+00 0.  1.
          5    1    4    4  501    0 -0.43730315550E+02 -0.15107172767E+02 -0.28360581838E+03  0.28738528109E+03  0.41800000000E+01 0.  1.
         -5    1    4    4    0  501  0.67166032474E+02  0.19709852492E+02 -0.17366938041E+03  0.18729196538E+03  0.41800000000E+01 0.  1.
</event>
<event>
11    1  0.8864208E-009  0.2040214E+03  0.7561462E-02  0.1051716E+00
         22   -1    0    0    0    0  0.00000000000E+00  0.00000000000E+00  0.20231919793E+04  0.20231919793E+04  0.00000000000E+00 0.  1.
         22   -1    0    0    0    0 -0.00000000000E+00 -0.00000000000E+00 -0.10933706969E+03  0.10933706969E+03  0.00000000000E+00 0.  1.
        -24    2    1    2    0    0  0.15801148385E+02 -0.12835198489E+02 -0.54828932790E+02  0.98838678219E+02  0.79677185132E+02 0.  0.
         25    2    1    2    0    0 -0.98419521179E+02  0.14771074343E+03  0.40248601456E+03  0.45732643600E+03  0.12509041240E+03 0.  0.
         24    2    1    2    0    0  0.82618372793E+02 -0.13487554494E+03  0.15661978278E+04  0.15763639347E+04  0.83249088735E+02 0.  0.
        -11    1    5    5    0    0  0.61997514870E+02 -0.13076095193E+03  0.14986037729E+04  0.15055747695E+04  0.00000000000E+00 0.  1.
         12    1    5    5    0    0  0.20620857923E+02 -0.41145930028E+01  0.67594054965E+02  0.70789165299E+02  0.00000000000E+00 0. -1.
         11    1    3    3    0    0 -0.25215736054E+02  0.28047158233E+01 -0.48164424592E+02  0.54438144457E+02  0.00000000000E+00 0. -1.
        -12    1    3    3    0    0  0.41016884440E+02 -0.15639914312E+02 -0.66645081983E+01  0.44400533762E+02  0.00000000000E+00 0.  1.
          5    1    4    4  501    0 -0.67822669699E+02  0.14135482931E+03  0.39488979103E+03  0.42489589520E+03  0.41800000000E+01 0.  1.
         -5    1    4    4    0  501 -0.30596851480E+02  0.63559141140E+01  0.75962235288E+01  0.32430540801E+02  0.41800000000E+01 0.  1.
</event>
<event>
11    1  0.8864208E-009  0.1370655E+03  0.7561462E-02  0.1110880E+00
         22   -1    0    0    0    0  0.00000000000E+00  0.00000000000E+00  0.13356462658E+03  0.13356462658E+03  0.00000000000E+00 0.  1.
         22   -1    0    0    0    0 -0.00000000000E+00 -0.00000000000E+00 -0.51769163358E+03  0.51769163358E+03  0.00000000000E+00 0.  1.
        -24    2    1    2    0    0 -0.69926064256E+02 -0.22577248320E+02 -0.30752115550E+03  0.32606068986E+03  0.79667595566E+02 0.  0.
         25    2    1    2    0    0  0.17182237610E+02 -0.22870249019E+02 -0.14877264615E+03  0.19646508171E+03  0.12508777122E+03 0.  0.
         24    2    1    2    0    0  0.52743826646E+02  0.45447497340E+02  0.72166794660E+02  0.12873048859E+03  0.80722401962E+02 0.  0.
        -11    1    5    5    0    0 -0.17774947040E+02  0.14522805217E+02  0.38209643446E+02  0.44573955018E+02  0.00000000000E+00 0.  1.
         12    1    5    5    0    0  0.70518773687E+02  0.30924692122E+02  0.33957151214E+02  0.84156533577E+02  0.00000000000E+00 0. -1.
         11    1    3    3    0    0 -0.33189319411E+02 -0.51002212909E+02 -0.19674710567E+03  0.20594217692E+03  0.00000000000E+00 0. -1.
        -12    1    3    3    0    0 -0.36736744845E+02  0.28424964589E+02 -0.11077404983E+03  0.12011851294E+03  0.00000000000E+00 0.  1.
          5    1    4    4  501    0  0.55866939852E+02  0.14619461057E+02 -0.12435245858E+03  0.13717087871E+03  0.41800000000E+01 0. -1.
         -5    1    4    4    0  501 -0.38684702242E+02 -0.37489710076E+02 -0.24420187571E+02  0.59294203006E+02  0.41800000000E+01 0. -1.
</event>
<event>
11    1  0.8864208E-009  0.1530562E+03  0.7561462E-02  0.1093796E+00
         22   -1    0    0    0    0  0.00000000000E+00  0.00000000000E+00  0.33725542137E+03  0.33725542137E+03  0.00000000000E+00 0.  1.
         22   -1    0    0    0    0 -0.00000000000E+00 -0.00000000000E+00 -0.27305644893E+04  0.27305644893E+04  0.00000000000E+00 0.  1.
         24    2    1    2    0    0  0.24833849341E+02  0.28433828461E+02 -0.24310023616E+04  0.24325741929E+04  0.78863928775E+02 0.  0.
         25    2    1    2    0    0 -0.30657687578E+02 -0.11529290711E+03 -0.26146366456E+03  0.31343760968E+03  0.12509012367E+03 0.  0.
        -24    2    1    2    0    0  0.58238382371E+01  0.86859078645E+02  0.29915695828E+03  0.32180810803E+03  0.80542883409E+02 0.  0.
        -13    1    3    3    0    0 -0.11458708665E+01 -0.46474506262E+01 -0.18667590023E+04  0.18667651391E+04  0.00000000000E+00 0.  1.
         14    1    3    3    0    0  0.25979720207E+02  0.33081279088E+02 -0.56424335926E+03  0.56580905380E+03  0.00000000000E+00 0. -1.
         11    1    5    5    0    0 -0.31000781644E+02  0.72552195902E+02  0.20786315818E+03  0.22233299827E+03  0.00000000000E+00 0. -1.
        -12    1    5    5    0    0  0.36824619881E+02  0.14306882743E+02  0.91293800106E+02  0.99475109756E+02  0.00000000000E+00 0.  1.
          5    1    4    4  501    0  0.11092933271E+02 -0.12552732369E+03 -0.16427272037E+03  0.20708249858E+03  0.41800000000E+01 0. -1.
         -5    1    4    4    0  501 -0.41750620848E+02  0.10234416584E+02 -0.97190944196E+02  0.10635511110E+03  0.41800000000E+01 0. -1.
</event>
<event>
11    1  0.8864208E-009  0.1436551E+03  0.7561462E-02  0.1103544E+00
         22   -1    0    0    0    0  0.00000000000E+00  0.00000000000E+00  0.18786293326E+03  0.18786293326E+03  0.00000000000E+00 0. -1.
         22   -1    0    0    0    0 -0.00000000000E+00 -0.00000000000E+00 -0.14690872245E+04  0.14690872245E+04  0.00000000000E+00 0. -1.
         24    2    1    2    0    0  0.41033217581E+00  0.61430036690E+01 -0.76324863046E+03  0.76882454740E+03  0.92221515494E+02 0.  0.
         25    2    1    2    0    0  0.69107062756E+02  0.64568423520E+01 -0.68026428046E+03  0.69514527229E+03  0.12509988564E+03 0.  0.
        -24    2    1    2    0    0 -0.69517394932E+02 -0.12599846021E+02  0.16228861970E+03  0.19298033804E+03  0.76892070261E+02 0.  0.
        -11    1    3    3    0    0 -0.45864389624E+02  0.15066554762E+01 -0.38907379491E+03  0.39177063460E+03  0.00000000000E+00 0.  1.
         12    1    3    3    0    0  0.46274721799E+02  0.46363481928E+01 -0.37417483555E+03  0.37705391281E+03  0.00000000000E+00 0. -1.
         13    1    5    5    0    0 -0.39168685414E+02  0.31887134473E+02  0.75243332350E+02  0.90623034186E+02  0.00000000000E+00 0. -1.
        -14    1    5    5    0    0 -0.30348709518E+02 -0.44486980494E+02  0.87045287347E+02  0.10235730385E+03  0.00000000000E+00 0.  1.
          5    1    4    4  501    0  0.53705578835E+02 -0.24133232223E+02 -0.63736653186E+03  0.64009395437E+03  0.41800000000E+01 0. -1.
         -5    1    4    4    0  501  0.15401483921E+02  0.30590074575E+02 -0.42897748605E+02  0.55051317921E+02  0.41800000000E+01 0. -1.
</event>
<event>
11    1  0.8864208E-009  0.1281714E+03  0.7561462E-02  0.1121536E+00
         22   -1    0    0    0    0  0.00000000000E+00  0.00000000000E+00  0.12367951253E+04  0.12367951253E+04  0.00000000000E+00 0.  1.
         22   -1    0    0    0    0 -0.00000000000E+00 -0.00000000000E+00 -0.60817518226E+03  0.60817518226E+03  0.00000000000E+00 0.  1.
         24    2    1    2    0    0  0.28084420970E+02  0.21723323761E+01 -0.56089825958E+03  0.56769635462E+03  0.82938770881E+02 0.  0.
         25    2    1    2    0    0 -0.22993658438E+02  0.24070593624E+02  0.55229015941E+02  0.14073172789E+03  0.12508826175E+03 0.  0.
        -24    2    1    2    0    0 -0.50907625315E+01 -0.26242926000E+02  0.11342891867E+04  0.11365422250E+04  0.66345032108E+02 0.  0.
        -11    1    3    3    0    0  0.44415720050E+02  0.11349598264E+02 -0.16208091053E+03  0.16843928023E+03  0.00000000000E+00 0.  1.
         12    1    3    3    0    0 -0.16331299080E+02 -0.91772658874E+01 -0.39881734905E+03  0.39925707438E+03  0.00000000000E+00 0. -1.
         11    1    5    5    0    0 -0.62091304320E+01  0.44185588530E+01  0.14929033126E+02  0.16761652458E+02  0.00000000000E+00 0. -1.
        -12    1    5    5    0    0  0.11183679005E+01 -0.30661484853E+02  0.11193601535E+04  0.11197805726E+04  0.00000000000E+00 0.  1.
          5    1    4    4  501    0 -0.30501841933E+02 -0.25973804190E+01 -0.34745588196E+02  0.46495559416E+02  0.41800000000E+01 0. -1.
         -5    1    4    4    0  501  0.75081834947E+01  0.26667974043E+02  0.89974604137E+02  0.94236168474E+02  0.41800000000E+01 0. -1.
</event>
<event>
11    1  0.8864208E-009  0.1594108E+03  0.7561462E-02  0.1087633E+00
         22   -1    0    0    0    0  0.00000000000E+00  0.00000000000E+00  0.29841385253E+03  0.29841385253E+03  0.00000000000E+00 0.  1.
         22   -1    0    0    0    0 -0.00000000000E+00 -0.00000000000E+00 -0.19646211263E+03  0.19646211263E+03  0.00000000000E+00 0.  1.
         24    2    1    2    0    0 -0.76883127011E+02 -0.47892184967E+02 -0.70641418057E+02  0.14033304022E+03  0.80613123209E+02 0.  0.
         25    2    1    2    0    0 -0.34576393983E+02  0.80963336329E+02  0.35993627819E+02  0.15714157731E+03  0.12508934897E+03 0.  0.
        -24    2    1    2    0    0  0.11145952099E+03 -0.33071151362E+02  0.13659953014E+03  0.19740134762E+03  0.82407126735E+02 0.  0.
        -13    1    3    3    0    0 -0.58028690291E+02 -0.62462985237E+02 -0.77833648303E+02  0.11544275737E+03  0.00000000000E+00 0.  1.
         14    1    3    3    0    0 -0.18854436721E+02  0.14570800270E+02  0.71922302460E+01  0.24890282852E+02  0.00000000000E+00 0. -1.
         11    1    5    5    0    0  0.42900405872E+02  0.27457893798E+02  0.45093491300E+02  0.68027962732E+02  0.00000000000E+00 0. -1.
        -12    1    5    5    0    0  0.68559115122E+02 -0.60529045160E+02  0.91506038837E+02  0.12937338489E+03  0.00000000000E+00 0.  1.
          5    1    4    4  501    0 -0.27739985420E+02  0.49737402147E+02  0.82633611994E+02  0.10044452297E+03  0.41800000000E+01 0. -1.
         -5    1    4    4    0  501 -0.68364085628E+01  0.31225934183E+02 -0.46639984175E+02  0.56697054345E+02  0.41800000000E+01 0. -1.
</event>
<event>
11    1  0.8864208E-009  0.1320941E+03  0.7561462E-02  0.1116722E+00
         22   -1    0    0    0    0  0.00000000000E+00  0.00000000000E+00  0.10822071581E+04  0.10822071581E+04  0.00000000000E+00 0.  1.
         22   -1    0    0    0    0 -0.00000000000E+00 -0.00000000000E+00 -0.33637982091E+04  0.33637982091E+04  0.00000000000E+00 0.  1.
         24    2    1    2    0    0  0.20316415438E+02  0.36673592546E+02 -0.31938815704E+04  0.31951620353E+04  0.80145100490E+02 0.  0.
         25    2    1    2    0    0 -0.62875287604E+02 -0.42545828027E+02 -0.13560104289E+03  0.19949706418E+03  0.12509191224E+03 0.  0.
        -24    2    1    2    0    0  0.42558872166E+02  0.58722354815E+01  0.10478915623E+04  0.10513462678E+04  0.73528958605E+02 0.  0.
        -13    1    3    3    0    0  0.93580028127E+01  0.41222932981E+02 -0.31235939256E+04  0.31238799456E+04  0.00000000000E+00 0.  1.
         14    1    3    3    0    0  0.10958412626E+02 -0.45493404355E+01 -0.70287644780E+02  0.71282089717E+02  0.00000000000E+00 0. -1.
         13    1    5    5    0    0  0.51142459664E+02  0.19351842684E+02  0.46016623852E+03  0.46340372471E+03  0.00000000000E+00 0. -1.
        -14    1    5    5    0    0 -0.85835874978E+01 -0.13479607203E+02  0.58772532373E+03  0.58794254306E+03  0.00000000000E+00 0.  1.
          5    1    4    4  501    0 -0.42678209083E+02 -0.10886481807E+02  0.13043411535E+02  0.46125350959E+02  0.41800000000E+01 0. -1.
         -5    1    4    4    0  501 -0.20197078521E+02 -0.31659346220E+02 -0.14864445443E+03  0.15337171322E+03  0.41800000000E+01 0. -1.
</event>
<event>
11    1  0.8864208E-009  0.2648318E+03  0.7561462E-02  0.1016282E+00
         22   -1    0    0    0    0  0.00000000000E+00  0.00000000000E+00  0.49267588946E+03  0.49267588946E+03  0.00000000000E+00 0.  1.
         22   -1    0    0    0    0 -0.00000000000E+00 -0.00000000000E+00 -0.26688507342E+03  0.26688507342E+03  0.00000000000E+00 0.  1.
        -24    2    1    2    0    0  0.24532023490E+03 -0.82143902882E+02 -0.98407581011E+02  0.28802906391E+03  0.79668382839E+02 0.  0.
         25    2    1    2    0    0 -0.16372446186E+03  0.68894918687E+02  0.15470219311E+03  0.26670669408E+03  0.12508989920E+03 0.  0.
         24    2    1    2    0    0 -0.81595773040E+02  0.13248984195E+02  0.16949620394E+03  0.20482520490E+03  0.79943703011E+02 0.  0.
        -13    1    5    5    0    0 -0.50184825607E+02  0.46061049226E+02  0.85338719700E+02  0.10919173072E+03  0.00000000000E+00 0.  1.
         14    1    5    5    0    0 -0.31410947433E+02 -0.32812065031E+02  0.84157484239E+02  0.95633474180E+02  0.00000000000E+00 0. -1.
         11    1    3    3    0    0  0.26283550941E+02 -0.24304043697E+02  0.95877763073E+01  0.37059911557E+02  0.00000000000E+00 0. -1.
        -12    1    3    3    0    0  0.21903668396E+03 -0.57839859184E+02 -0.10799535732E+03  0.25096915235E+03  0.00000000000E+00 0.  1.
          5    1    4    4  501    0 -0.25526082338E+02  0.36009439140E+02 -0.13648186826E+02  0.46389718584E+02  0.41800000000E+01 0. -1.
         -5    1    4    4    0  501 -0.13819837952E+03  0.32885479547E+02  0.16835037994E+03  0.22031697550E+03  0.41800000000E+01 0. -1.
</event>
<event>
11    1  0.8864208E-009  0.1556152E+03  0.7561462E-02  0.1091275E+00
         22   -1    0    0    0    0  0.00000000000E+00  0.00000000000E+00  0.21236219512E+03  0.21236219512E+03  0.00000000000E+00 0. -1.
         22   -1    0    0    0    0 -0.00000000000E+00 -0.00000000000E+00 -0.97097314079E+03  0.97097314079E+03  0.00000000000E+00 0.  1.
         24    2    1    2    0    0  0.81700598723E+02 -0.42917818710E+02 -0.69484737841E+03  0.70682571020E+03  0.90954814753E+02 0.  0.
         25    2    1    2    0    0 -0.60259290053E+02  0.82392823727E+02 -0.23301149016E+03  0.28348037387E+03  0.12508800255E+03 0.  0.
        -24    2    1    2    0    0 -0.21441308669E+02 -0.39475005017E+02  0.16924792290E+03  0.19302925183E+03  0.81224546281E+02 0.  0.
        -11    1    3    3    0    0  0.31418652540E+02 -0.59589301221E+02 -0.51349097731E+03  0.51789091547E+03  0.00000000000E+00 0.  1.
         12    1    3    3    0    0  0.50281946182E+02  0.16671482511E+02 -0.18135640110E+03  0.18893479473E+03  0.00000000000E+00 0. -1.
         13    1    5    5    0    0 -0.26599491120E+02 -0.82218574576E+01  0.15638052916E+03  0.15883954724E+03  0.00000000000E+00 0. -1.
        -14    1    5    5    0    0  0.51581824505E+01 -0.31253147559E+02  0.12867393747E+02  0.34189704596E+02  0.00000000000E+00 0.  1.
          5    1    4    4  501    0 -0.47947558572E+02  0.11066730386E+03 -0.21743336541E+03  0.24867842953E+03  0.41800000000E+01 0.  1.
         -5    1    4    4    0  501 -0.12311731481E+02 -0.28274480137E+02 -0.15578124749E+02  0.34801944339E+02  0.41800000000E+01 0.  1.
</event>
<event>
11    1  0.8864208E-009  0.1447837E+03  0.7561462E-02  0.1102331E+00
         22   -1    0    0    0    0  0.00000000000E+00  0.00000000000E+00  0.49831453569E+03  0.49831453569E+03  0.00000000000E+00 0.  1.
         22   -1    0    0    0    0 -0.00000000000E+00 -0.00000000000E+00 -0.18910582198E+03  0.18910582198E+03  0.00000000000E+00 0.  1.
         24    2    1    2    0    0  0.70317020477E+02 -0.17497929202E+02 -0.14089650107E+03  0.17636926843E+03  0.77483120333E+02 0.  0.
         25    2    1    2    0    0 -0.67626331730E+02  0.56308666195E+02  0.25701196571E+03  0.29907624741E+03  0.12508982620E+03 0.  0.
        -24    2    1    2    0    0 -0.26906887470E+01 -0.38810736993E+02  0.19309324907E+03  0.21197484182E+03  0.78325076546E+02 0.  0.
        -13    1    3    3    0    0  0.83379889872E+02 -0.28497026371E+02 -0.12571060317E+03  0.15351691208E+03  0.00000000000E+00 0.  1.
         14    1    3    3    0    0 -0.13062869395E+02  0.10999097169E+02 -0.15185897905E+02  0.22852356345E+02  0.00000000000E+00 0. -1.
         13    1    5    5    0    0 -0.28757879895E+01  0.20064444366E+02  0.17515791961E+02  0.26789084574E+02  0.00000000000E+00 0. -1.
        -14    1    5    5    0    0  0.18509924249E+00 -0.58875181359E+02  0.17557745711E+03  0.18518575725E+03  0.00000000000E+00 0.  1.
          5    1    4    4  501    0 -0.68485913598E+02  0.34432613330E+02  0.26461569425E+03  0.27552652008E+03  0.41800000000E+01 0. -1.
         -5    1    4    4    0  501  0.85958186769E+00  0.21876052865E+02 -0.76037285445E+01  0.23549727338E+02  0.41800000000E+01 0. -1.
</event>
<event>
11    1  0.8864208E-009  0.1370524E+03  0.7561462E-02  0.1110895E+00
         22   -1    0    0    0    0  0.00000000000E+00  0.00000000000E+00  0.80418830140E+03  0.80418830140E+03  0.00000000000E+00 0.  1.
         22   -1    0    0    0    0 -0.00000000000E+00 -0.00000000000E+00 -0.10638753945E+04  0.10638753945E+04  0.00000000000E+00 0. -1.
        -24    2    1    2    0    0  0.23068068761E+02  0.91620003537E+01 -0.98549151888E+03  0.98902065856E+03  0.79701011575E+02 0.  0.
         25    2    1    2    0    0 -0.75951384628E+02  0.60964915692E+01 -0.83298304284E-01  0.14650881326E+03  0.12513610745E+03 0.  0.
         24    2    1    2    0    0  0.52883315867E+02 -0.15258491923E+02  0.72588772411E+03  0.73253422405E+03  0.81632926645E+02 0.  0.
        -11    1    5    5    0    0  0.35616878905E+02 -0.42556544183E+02  0.27808809723E+03  0.28357117508E+03  0.00000000000E+00 0.  1.
         12    1    5    5    0    0  0.17266436962E+02  0.27298052260E+02  0.44779962688E+03  0.44896304896E+03  0.00000000000E+00 0. -1.
         11    1    3    3    0    0  0.41687393828E+02 -0.14195972945E+02 -0.34024880399E+03  0.34308688851E+03  0.00000000000E+00 0. -1.
        -12    1    3    3    0    0 -0.18619325067E+02  0.23357973299E+02 -0.64524271489E+03  0.64593377006E+03  0.00000000000E+00 0.  1.
          5    1    4    4  501    0  0.13821953352E+02 -0.19529741294E+02 -0.38456492203E+02  0.45484408121E+02  0.41800000000E+01 0.  1.
         -5    1    4    4    0  501 -0.89773337980E+02  0.25626232864E+02  0.38373193899E+02  0.10102440514E+03  0.41800000000E+01 0.  1.
</event>
<event>
11    1  0.8864208E-009  0.1460776E+03  0.7561462E-02  0.1100955E+00
         22   -1    0    0    0    0  0.00000000000E+00  0.00000000000E+00  0.33078797157E+04  0.33078797157E+04  0.00000000000E+00 0.  1.
         22   -1    0    0    0    0 -0.00000000000E+00 -0.00000000000E+00 -0.14159343244E+03  0.14159343244E+03  0.00000000000E+00 0.  1.
         24    2    1    2    0    0 -0.77440895881E+02  0.45479797349E+01 -0.10228102626E+03  0.15170089798E+03  0.80833023200E+02 0.  0.
         25    2    1    2    0    0  0.41238071184E+02 -0.46938234683E+02  0.34399910728E+03  0.37132801848E+03  0.12508131399E+03 0.  0.
        -24    2    1    2    0    0  0.36202824697E+02  0.42390254948E+02  0.29245682022E+04  0.29264442317E+04  0.88707910336E+02 0.  0.
        -11    1    3    3    0    0 -0.91310132307E+02  0.17371511417E+02 -0.81507640008E+02  0.12362364277E+03  0.00000000000E+00 0.  1.
         12    1    3    3    0    0  0.13869236426E+02 -0.12823531682E+02 -0.20773386251E+02  0.28077255211E+02  0.00000000000E+00 0. -1.
         13    1    5    5    0    0  0.60078124954E+01  0.38287418285E+02  0.44383500768E+03  0.44552388741E+03  0.00000000000E+00 0. -1.
        -14    1    5    5    0    0  0.30195012202E+02  0.41028366631E+01  0.24807331946E+04  0.24809203443E+04  0.00000000000E+00 0.  1.
          5    1    4    4  501    0  0.26743386495E+02 -0.61798438569E+02  0.72616567378E+02  0.99120603249E+02  0.41800000000E+01 0.  1.
         -5    1    4    4    0  501  0.14494684689E+02  0.14860203885E+02  0.27138253990E+03  0.27220741523E+03  0.41800000000E+01 0.  1.
</event>
<event>
11    1  0.8864208E-009  0.1401489E+03  0.7561462E-02  0.1107392E+00
         22   -1    0    0    0    0  0.00000000000E+00  0.00000000000E+00  0.11853338404E+04  0.11853338404E+04  0.00000000000E+00 0.  1.
         22   -1    0    0    0    0 -0.00000000000E+00 -0.00000000000E+00 -0.27526323094E+03  0.27526323094E+03  0.00000000000E+00 0.  1.
        -24    2    1    2    0    0  0.55529254058E+00  0.55382278301E+02 -0.20385820783E+03  0.22537634303E+03  0.78541848695E+02 0.  0.
         25    2    1    2    0    0 -0.44327689961E+02 -0.98838806713E+02  0.59006168393E+02  0.17567991213E+03  0.12509056642E+03 0.  0.
         24    2    1    2    0    0  0.43772397420E+02  0.43456528412E+02  0.10549226489E+04  0.10595408162E+04  0.77203972474E+02 0.  0.
        -13    1    5    5    0    0  0.47645093286E+01  0.41104034445E+01  0.72288130924E+03  0.72290869632E+03  0.00000000000E+00 0.  1.
         14    1    5    5    0    0  0.39007888092E+02  0.39346124968E+02  0.33204133970E+03  0.33663211990E+03  0.00000000000E+00 0. -1.
         11    1    3    3    0    0  0.13073261263E+02  0.33531763221E+02 -0.22863830794E+02  0.42638527922E+02  0.00000000000E+00 0. -1.
        -12    1    3    3    0    0 -0.12517968722E+02  0.21850515079E+02 -0.18099437704E+03  0.18273781511E+03  0.00000000000E+00 0.  1.
          5    1    4    4  501    0  0.38862660765E+02 -0.40250429451E+02 -0.34580709516E+01  0.56212401900E+02  0.41800000000E+01 0.  1.
         -5    1    4    4    0  501 -0.83190350725E+02 -0.58588377262E+02  0.62464239345E+02  0.11946751023E+03  0.41800000000E+01 0.  1.
</event>
<event>
11    1  0.8864208E-009  0.1963612E+03  0.7561462E-02  0.1057127E+00
         22   -1    0    0    0    0  0.00000000000E+00  0.00000000000E+00  0.12361493391E+04  0.12361493391E+04  0.00000000000E+00 0. -1.
         22   -1    0    0    0    0 -0.00000000000E+00 -0.00000000000E+00 -0.68083486495E+03  0.68083486495E+03  0.00000000000E+00 0.  1.
        -24    2    1    2    0    0  0.94850499564E+02 -0.11609467642E+03 -0.63636985099E+03  0.65877708404E+03  0.80907774960E+02 0.  0.
         25    2    1    2    0    0 -0.14835202776E+03  0.17760838446E+03  0.59316333852E+03  0.64887896152E+03  0.12509235855E+03 0.  0.
         24    2    1    2    0    0  0.53501528198E+02 -0.61513708038E+02  0.59852098660E+03  0.60932815848E+03  0.80044259782E+02 0.  0.
        -11    1    5    5    0    0  0.51172833691E+01 -0.55373979723E+02  0.19197601603E+03  0.19986809388E+03  0.00000000000E+00 0.  1.
         12    1    5    5    0    0  0.48384244829E+02 -0.61397283151E+01  0.40654497056E+03  0.40946006460E+03  0.00000000000E+00 0. -1.
         13    1    3    3    0    0  0.78694104163E+02 -0.93655487306E+02 -0.34400438573E+03  0.36510701135E+03  0.00000000000E+00 0. -1.
        -14    1    3    3    0    0  0.16156395401E+02 -0.22439189113E+02 -0.29236546526E+03  0.29367007269E+03  0.00000000000E+00 0.  1.
          5    1    4    4  501    0 -0.23833591426E+02  0.36293603099E+02  0.28029121157E+03  0.28366512191E+03  0.41800000000E+01 0.  1.
         -5    1    4    4    0  501 -0.12451843634E+03  0.14131478136E+03  0.31287212695E+03  0.36521383961E+03  0.41800000000E+01 0.  1.
</event>
<event>
11    1  0.8864208E-009  0.1764012E+03  0.7561462E-02  0.1072592E+00
         22   -1    0    0    0    0  0.00000000000E+00  0.00000000000E+00  0.55132732843E+03  0.55132732843E+03  0.00000000000E+00 0.  1.
         22   -1    0    0    0    0 -0.00000000000E+00 -0.00000000000E+00 -0.22966074621E+03  0.22966074621E+03  0.00000000000E+00 0.  1.
        -24    2    1    2    0    0 -0.72796759106E+02  0.11307987424E+03 -0.10399662370E+03  0.18800479556E+03  0.80275022996E+02 0.  0.
         25    2    1    2    0    0  0.10005645341E+03 -0.52492507950E+02  0.14970272123E+02  0.16922634123E+03  0.12508672295E+03 0.  0.
         24    2    1    2    0    0 -0.27259694301E+02 -0.60587366292E+02  0.41069293381E+03  0.42375693785E+03  0.80544004199E+02 0.  0.
        -11    1    5    5    0    0 -0.41056495480E+02 -0.17721625037E+02  0.31308172286E+03  0.31625916114E+03  0.00000000000E+00 0.  1.
         12    1    5    5    0    0  0.13796801179E+02 -0.42865741256E+02  0.97611210946E+02  0.10749777671E+03  0.00000000000E+00 0. -1.
         11    1    3    3    0    0 -0.31368340565E+02  0.30794522826E+02  0.61767041593E+01  0.44389493128E+02  0.00000000000E+00 0. -1.
        -12    1    3    3    0    0 -0.41428418541E+02  0.82285351416E+02 -0.11017332786E+03  0.14361530243E+03  0.00000000000E+00 0.  1.
          5    1    4    4  501    0 -0.57657973978E+01 -0.39069981216E+02  0.43325092609E+02  0.58772816007E+02  0.41800000000E+01 0. -1.
         -5    1    4    4    0  501  0.10582225080E+03 -0.13422526734E+02 -0.28354820486E+02  0.11045352522E+03  0.41800000000E+01 0. -1.
</event>
<event>
11    1  0.8864208E-009  0.1778082E+03  0.7561462E-02  0.1071430E+00
         22   -1    0    0    0    0  0.00000000000E+00  0.00000000000E+00  0.10243561045E+04  0.10243561045E+04  0.00000000000E+00 0.  1.
         22   -1    0    0    0    0 -0.00000000000E+00 -0.00000000000E+00 -0.15384275162E+04  0.15384275162E+04  0.00000000000E+00 0.  1.
         24    2    1    2    0    0 -0.13897367861E+02  0.16543462080E+02 -0.14744584497E+04  0.14779424142E+04  0.99092063257E+02 0.  0.
         25    2    1    2    0    0  0.65029818316E+02 -0.12978175695E+03  0.10834528952E+03  0.22013266661E+03  0.12508999736E+03 0.  0.
        -24    2    1    2    0    0 -0.51132450455E+02  0.11323829487E+03  0.85204174839E+03  0.86470853988E+03  0.79424675161E+02 0.  0.
        -13    1    3    3    0    0 -0.20307496619E+02 -0.60945180006E+01 -0.13928162445E+04  0.13929776124E+04  0.00000000000E+00 0.  1.
         14    1    3    3    0    0  0.64101287583E+01  0.22637980081E+02 -0.81642205147E+02  0.84964801854E+02  0.00000000000E+00 0. -1.
         13    1    5    5    0    0 -0.41889847692E+02  0.15762611491E+02  0.37944351293E+03  0.38207407497E+03  0.00000000000E+00 0. -1.
        -14    1    5    5    0    0 -0.92426027637E+01  0.97475683379E+02  0.47259823546E+03  0.48263446491E+03  0.00000000000E+00 0.  1.
          5    1    4    4  501    0 -0.11457086073E+02 -0.10580547161E+03  0.85782951883E+02  0.13675616943E+03  0.41800000000E+01 0.  1.
         -5    1    4    4    0  501  0.76486904389E+02 -0.23976285343E+02  0.22562337637E+02  0.83376497177E+02  0.41800000000E+01 0.  1.
</event>
<event>
11    1  0.8864208E-009  0.2184553E+03  0.7561462E-02  0.1042189E+00
         22   -1    0    0    0    0  0.00000000000E+00  0.00000000000E+00  0.16042304040E+04  0.16042304040E+04  0.00000000000E+00 0.  1.
         22   -1    0    0    0    0 -0.00000000000E+00 -0.00000000000E+00 -0.17735807267E+03  0.17735807267E+03  0.00000000000E+00 0. -1.
        -24    2    1    2    0    0  0.10059946979E+03 -0.15198494773E+03 -0.72164766204E+02  0.21147839413E+03  0.79345321495E+02 0.  0.
         25    2    1    2    0    0 -0.93829020939E+02  0.13556303445E+03  0.27950127940E+03  0.34777796544E+03  0.12508927444E+03 0.  0.
         24    2    1    2    0    0 -0.67704488514E+01  0.16421913280E+02  0.12195358181E+04  0.12223321171E+04  0.80701143458E+02 0.  0.
        -13    1    5    5    0    0 -0.24684415886E+02  0.35258468570E+02  0.10435114009E+04  0.10443986422E+04  0.00000000000E+00 0.  1.
         14    1    5    5    0    0  0.17913967034E+02 -0.18836555289E+02  0.17602441722E+03  0.17793347489E+03  0.00000000000E+00 0. -1.
         11    1    3    3    0    0  0.10138991823E+03 -0.15754493303E+03 -0.78394387821E+02  0.20309111622E+03  0.00000000000E+00 0. -1.
        -12    1    3    3    0    0 -0.79044844375E+00  0.55599853023E+01  0.62296216167E+01  0.83872779130E+01  0.00000000000E+00 0.  1.
          5    1    4    4  501    0 -0.11681078007E+03  0.78902312954E+02  0.22617620295E+03  0.26653982913E+03  0.41800000000E+01 0.  1.
         -5    1    4    4    0  501  0.22981759130E+02  0.56660721495E+02  0.53325076449E+02  0.81238136311E+02  0.41800000000E+01 0.  1.
</event>
<event>
11    1  0.8864208E-009  0.1727363E+03  0.7561462E-02  0.1075675E+00
         22   -1    0    0    0    0  0.00000000000E+00  0.00000000000E+00  0.17891936085E+04  0.17891936085E+04  0.00000000000E+00 0. -1.
         22   -1    0    0    0    0 -0.00000000000E+00 -0.00000000000E+00 -0.36286253426E+03  0.36286253426E+03  0.00000000000E+00 0. -1.
         24    2    1    2    0    0 -0.96222181381E+02  0.71424647659E+02 -0.33295261338E+03  0.36288399746E+03  0.80418681744E+02 0.  0.
         25    2    1    2    0    0  0.71451027294E+02 -0.66741798807E+02  0.45052870792E+03  0.47768471199E+03  0.12508737107E+03 0.  0.
        -24    2    1    2    0    0  0.24771154087E+02 -0.46828488521E+01  0.13087549797E+04  0.13114874333E+04  0.80772221173E+02 0.  0.
        -13    1    3    3    0    0 -0.26286323177E+02 -0.71037320444E+01 -0.14482024014E+03  0.14735784930E+03  0.00000000000E+00 0.  1.
         14    1    3    3    0    0 -0.69935858204E+02  0.78528379704E+02 -0.18813237324E+03  0.21552614817E+03  0.00000000000E+00 0. -1.
         13    1    5    5    0    0  0.15785495911E+02  0.12825686212E+02  0.12345398139E+04  0.12347073467E+04  0.00000000000E+00 0. -1.
        -14    1    5    5    0    0  0.89856581752E+01 -0.17508535064E+02  0.74215165816E+02  0.76780086546E+02  0.00000000000E+00 0.  1.
          5    1    4    4  501    0  0.54638648541E+02  0.26607913666E+02  0.22229606126E+03  0.23049159255E+03  0.41800000000E+01 0.  1.
         -5    1    4    4    0  501  0.16812378753E+02 -0.93349712473E+02  0.22823264666E+03  0.24719311944E+03  0.41800000000E+01 0.  1.
</event>
<event>
11    1  0.8864208E-009  0.1790438E+03  0.7561462E-02  0.1070419E+00
         22   -1    0    0    0    0  0.00000000000E+00  0.00000000000E+00  0.39663717789E+03  0.39663717789E+03  0.00000000000E+00 0. -1.
         22   -1    0    0    0    0 -0.00000000000E+00 -0.00000000000E+00 -0.14737128016E+04  0.14737128016E+04  0.00000000000E+00 0. -1.
        -24    2    1    2    0    0 -0.59694654935E+02 -0.65941505825E+01 -0.10214298933E+04  0.10256611311E+04  0.71097075549E+02 0.  0.
         25    2    1    2    0    0  0.11643023363E+03 -0.10746783162E+03 -0.41169554664E+03  0.45852578588E+03  0.12508932434E+03 0.  0.
         24    2    1    2    0    0 -0.56735578691E+02  0.11406198221E+03  0.35604981627E+03  0.38616306252E+03  0.78239232595E+02 0.  0.
        -11    1    5    5    0    0 -0.78244671779E+01 -0.25973298642E+01 -0.69101548709E-01  0.82445851361E+01  0.00000000000E+00 0.  1.
         12    1    5    5    0    0 -0.48911111513E+02  0.11665931207E+03  0.35611891782E+03  0.37791847739E+03  0.00000000000E+00 0. -1.
         13    1    3    3    0    0 -0.43532826875E+02  0.60036901356E+01 -0.95791456767E+03  0.95892203555E+03  0.00000000000E+00 0. -1.
        -14    1    3    3    0    0 -0.16161828060E+02 -0.12597840718E+02 -0.63515325641E+02  0.66739095501E+02  0.00000000000E+00 0.  1.
          5    1    4    4  501    0  0.35692617838E+02 -0.80912133975E+02 -0.91923909263E+02  0.12762528702E+03  0.41800000000E+01 0.  1.
         -5    1    4    4    0  501  0.80737615788E+02 -0.26555697649E+02 -0.31977163737E+03  0.33090049886E+03  0.41800000000E+01 0.  1.
</event>
<event>
11    1  0.8864208E-009  0.1587801E+03  0.7561462E-02  0.1088230E+00
         22   -1    0    0    0    0  0.00000000000E+00  0.00000000000E+00  0.26442838830E+03  0.26442838830E+03  0.00000000000E+00 0.  1.
         22   -1    0    0    0    0 -0.00000000000E+00 -0.00000000000E+00 -0.36699813139E+03  0.36699813139E+03  0.00000000000E+00 0. -1.
         24    2    1    2    0    0 -0.59696875336E+02 -0.73250026980E+02 -0.24754025259E+03  0.27670487367E+03  0.79750404898E+02 0.  0.
         25    2    1    2    0    0  0.11191770352E+03  0.58135430524E+02 -0.23720570122E+01  0.17764869604E+03  0.12509249341E+03 0.  0.
        -24    2    1    2    0    0 -0.52220828185E+02  0.15114596456E+02  0.14734256651E+03  0.17707294998E+03  0.81789557914E+02 0.  0.
        -11    1    3    3    0    0 -0.89208593500E+01 -0.57416105240E+02 -0.67958392205E+02  0.89412157694E+02  0.00000000000E+00 0.  1.
         12    1    3    3    0    0 -0.50776015986E+02 -0.15833921740E+02 -0.17958186038E+03  0.18729271597E+03  0.00000000000E+00 0. -1.
         11    1    5    5    0    0  0.12472852162E+02 -0.81416084575E+01  0.46420429542E+00  0.14902124511E+02  0.00000000000E+00 0. -1.
        -12    1    5    5    0    0 -0.64693680347E+02  0.23256204913E+02  0.14687836222E+03  0.16217082546E+03  0.00000000000E+00 0.  1.
          5    1    4    4  501    0  0.23115542641E+02  0.35077427928E+02 -0.56891179760E+02  0.70843722348E+02  0.41800000000E+01 0.  1.
         -5    1    4    4    0  501  0.88802160880E+02  0.23058002596E+02  0.54519122748E+02  0.10680497369E+03  0.41800000000E+01 0.  1.
</event>
<event>
11    1  0.8864208E-009  0.1392592E+03  0.7561462E-02  0.1108388E+00
         22   -1    0    0    0    0  0.00000000000E+00  0.00000000000E+00  0.25590910603E+03  0.25590910603E+03  0.00000000000E+00 0.  1.
         22   -1    0    0    0    0 -0.00000000000E+00 -0.00000000000E+00 -0.50169664739E+03  0.50169664739E+03  0.00000000000E+00 0. -1.
        -24    2    1    2    0    0 -0.39807328501E+01  0.82927753636E+02 -0.29861820354E+03  0.31917835104E+03  0.76217647121E+02 0.  0.
         25    2    1    2    0    0 -0.22295982347E+02 -0.12737626758E+02 -0.15667086505E+03  0.20211795595E+03  0.12508617109E+03 0.  0.
         24    2    1    2    0    0  0.26276715197E+02 -0.70190126878E+02  0.20950152722E+03  0.23630944643E+03  0.79587341274E+02 0.  0.
        -11    1    5    5    0    0  0.47489917414E+02 -0.30093757081E+02  0.15786513536E+03  0.16757782501E+03  0.00000000000E+00 0.  1.
         12    1    5    5    0    0 -0.21213202217E+02 -0.40096369796E+02  0.51636391860E+02  0.68731621423E+02  0.00000000000E+00 0. -1.
         13    1    3    3    0    0 -0.32609877210E+02  0.20602917788E+02 -0.15915710492E+03  0.16376467372E+03  0.00000000000E+00 0. -1.
        -14    1    3    3    0    0  0.28629144360E+02  0.62324835849E+02 -0.13946109862E+03  0.15541367732E+03  0.00000000000E+00 0.  1.
          5    1    4    4  501    0  0.21833837307E+02 -0.26143146996E+01 -0.15501131747E+03  0.15661906664E+03  0.41800000000E+01 0.  1.
         -5    1    4    4    0  501 -0.44129819654E+02 -0.10123312059E+02 -0.16595475789E+01  0.45498889304E+02  0.41800000000E+01 0.  1.
</event>
<event>
11    1  0.8864208E-009  0.1397303E+03  0.7561462E-02  0.1107860E+00
         22   -1    0    0    0    0  0.00000000000E+00  0.00000000000E+00  0.41047914268E+03  0.41047914268E+03  0.00000000000E+00 0. -1.
         22   -1    0    0    0    0 -0.00000000000E+00 -0.00000000000E+00 -0.15589454542E+04  0.15589454542E+04  0.00000000000E+00 0. -1.
        -24    2    1    2    0    0 -0.59806571276E+02 -0.16467917659E+02 -0.14293332047E+04  0.14329024881E+04  0.79800451093E+02 0.  0.
         25    2    1    2    0    0  0.49174530803E+02  0.76152080603E+02 -0.71462703505E+02  0.17021176473E+03  0.12509137860E+03 0.  0.
         24    2    1    2    0    0  0.10632040473E+02 -0.59684162944E+02  0.35232959671E+03  0.36631034406E+03  0.79824080697E+02 0.  0.
        -13    1    5    5    0    0  0.32428407855E+02  0.37801805463E+01  0.13279129912E+03  0.13674582452E+03  0.00000000000E+00 0.  1.
         14    1    5    5    0    0 -0.21796367382E+02 -0.63464343490E+02  0.21953829758E+03  0.22956451954E+03  0.00000000000E+00 0. -1.
         13    1    3    3    0    0 -0.31206121645E+02 -0.64058823219E+01 -0.12861513299E+04  0.12865458021E+04  0.00000000000E+00 0. -1.
        -14    1    3    3    0    0 -0.28600449631E+02 -0.10062035337E+02 -0.14318187475E+03  0.14635668598E+03  0.00000000000E+00 0.  1.
          5    1    4    4  501    0 -0.33882199170E+02 -0.58299141259E+01 -0.31414149039E+02  0.46758020480E+02  0.41800000000E+01 0.  1.
         -5    1    4    4    0  501  0.83056729974E+02  0.81981994729E+02 -0.40048554466E+02  0.12345374425E+03  0.41800000000E+01 0.  1.
</event>
<event>
11    1  0.8864208E-009  0.1294127E+03  0.7561462E-02  0.1119993E+00
         22   -1    0    0    0    0  0.00000000000E+00  0.00000000000E+00  0.21020430951E+03  0.21020430951E+03  0.00000000000E+00 0.  1.
         22   -1    0    0    0    0 -0.00000000000E+00 -0.00000000000E+00 -0.18468918688E+04  0.18468918688E+04  0.00000000000E+00 0.  1.
         24    2    1    2    0    0  0.15907861356E+02 -0.29714800826E+02 -0.17479509071E+04  0.17501589750E+04  0.81166709082E+02 0.  0.
         25    2    1    2    0    0  0.36542273520E+02  0.28032928062E+02 -0.33978229046E+02  0.13756105358E+03  0.12508933050E+03 0.  0.
        -24    2    1    2    0    0 -0.52450134876E+02  0.16818727640E+01  0.14524157682E+03  0.16937614977E+03  0.69565214936E+02 0.  0.
        -13    1    3    3    0    0  0.29027676649E+02 -0.53181209152E+02 -0.11291783738E+04  0.11308026561E+04  0.00000000000E+00 0.  1.
         14    1    3    3    0    0 -0.13119815292E+02  0.23466408326E+02 -0.61877253324E+03  0.61935631890E+03  0.00000000000E+00 0. -1.
         11    1    5    5    0    0 -0.14137687110E+02 -0.24633642800E+02  0.17306825774E+02  0.33259837233E+02  0.00000000000E+00 0. -1.
        -12    1    5    5    0    0 -0.38312447766E+02  0.26315515564E+02  0.12793475105E+03  0.13611631254E+03  0.00000000000E+00 0.  1.
          5    1    4    4  501    0 -0.29480366040E+02 -0.12417963178E+02  0.24442633966E+02  0.40474838437E+02  0.41800000000E+01 0.  1.
         -5    1    4    4    0  501  0.66022639560E+02  0.40450891240E+02 -0.58420863012E+02  0.97086215147E+02  0.41800000000E+01 0.  1.
</event>
<event>
11    1  0.8864208E-009  0.1262322E+03  0.7561462E-02  0.1123987E+00
         22   -1    0    0    0    0  0.00000000000E+00  0.00000000000E+00  0.79121696412E+03  0.79121696412E+03  0.00000000000E+00 0. -1.
         22   -1    0    0    0    0 -0.00000000000E+00 -0.00000000000E+00 -0.79950614396E+02  0.79950614396E+02  0.00000000000E+00 0.  1.
         24    2    1    2    0    0  0.90675390475E+00  0.17876824818E+02 -0.36460693013E+02  0.92131399263E+02  0.82694676533E+02 0.  0.
         25    2    1    2    0    0 -0.24905534204E+01 -0.53528683647E+01  0.32727804913E+03  0.35041803579E+03  0.12508805821E+03 0.  0.
        -24    2    1    2    0    0  0.15837995156E+01 -0.12523956454E+02  0.42044899360E+03  0.42861814346E+03  0.82321314221E+02 0.  0.
        -11    1    3    3    0    0  0.20464665066E+02  0.45900466971E+02 -0.24638598569E+02  0.55970670211E+02  0.00000000000E+00 0.  1.
         12    1    3    3    0    0 -0.19557911162E+02 -0.28023642153E+02 -0.11822094444E+02  0.36160729052E+02  0.00000000000E+00 0. -1.
         11    1    5    5    0    0  0.28766535886E+02  0.10496000644E+02  0.32984922910E+03  0.33126755584E+03  0.00000000000E+00 0. -1.
        -12    1    5    5    0    0 -0.27182736370E+02 -0.23019957098E+02  0.90599764506E+02  0.97350587620E+02  0.00000000000E+00 0.  1.
          5    1    4    4  501    0 -0.44941243948E+02 -0.46743849116E+02  0.15093088776E+03  0.16432379048E+03  0.41800000000E+01 0.  1.
         -5    1    4    4    0  501  0.42450690527E+02  0.41390980751E+02  0.17634716137E+03  0.18609424531E+03  0.41800000000E+01 0.  1.
</event>
<event>
11    1  0.8864208E-009  0.2086986E+03  0.7561462E-02  0.1048537E+00
         22   -1    0    0    0    0  0.00000000000E+00  0.00000000000E+00  0.12548005529E+03  0.12548005529E+03  0.00000000000E+00 0.  1.
         22   -1    0    0    0    0 -0.00000000000E+00 -0.00000000000E+00 -0.35523806632E+04  0.35523806632E+04  0.00000000000E+00 0. -1.
         24    2    1    2    0    0  0.34860710003E+01  0.10766295097E+02 -0.22494037248E+04  0.22508740911E+04  0.80554275139E+02 0.  0.
         25    2    1    2    0    0  0.50697259258E+02 -0.16823790249E+03 -0.12174553748E+04  0.12364137949E+04  0.12508908352E+03 0.  0.
        -24    2    1    2    0    0 -0.54183330258E+02  0.15747160740E+03  0.39958491613E+02  0.19057283246E+03  0.83595352784E+02 0.  0.
        -11    1    3    3    0    0 -0.50852516491E+01 -0.16993168202E+02 -0.12304803071E+03  0.12431993168E+03  0.00000000000E+00 0.  1.
         12    1    3    3    0    0  0.85713226493E+01  0.27759463299E+02 -0.21263556941E+04  0.21265541595E+04  0.00000000000E+00 0. -1.
         13    1    5    5    0    0 -0.43607223216E+02  0.19188892063E+02  0.94685670190E+01  0.48574244787E+02  0.00000000000E+00 0. -1.
        -14    1    5    5    0    0 -0.10576107042E+02  0.13828271533E+03  0.30489924594E+02  0.14199858768E+03  0.00000000000E+00 0.  1.
          5    1    4    4  501    0  0.59875964582E+02 -0.18431467414E+02 -0.27527959332E+03  0.28234938821E+03  0.41800000000E+01 0.  1.
         -5    1    4    4    0  501 -0.91787053245E+01 -0.14980643508E+03 -0.94217578145E+03  0.95406440672E+03  0.41800000000E+01 0.  1.
</event>
<event>
11    1  0.8864208E-009  0.1942987E+03  0.7561462E-02  0.1058630E+00
         22   -1    0    0    0    0  0.00000000000E+00  0.00000000000E+00  0.23169079220E+03  0.23169079220E+03  0.00000000000E+00 0. -1.
         22   -1    0    0    0    0 -0.00000000000E+00 -0.00000000000E+00 -0.13475510649E+04  0.13475510649E+04  0.00000000000E+00 0.  1.
         24    2    1    2    0    0  0.14337501653E+03 -0.12129647592E+02 -0.58629945110E+03  0.60876663723E+03  0.78398013561E+02 0.  0.
         25    2    1    2    0    0 -0.15187987251E+03  0.30427657124E+02 -0.72751587879E+03  0.75426817773E+03  0.12509113498E+03 0.  0.
        -24    2    1    2    0    0  0.85048559790E+01 -0.18298009532E+02  0.19795505718E+03  0.21620704215E+03  0.84570270690E+02 0.  0.
        -11    1    3    3    0    0  0.10487242015E+03 -0.19533976432E+02 -0.27430001286E+03  0.29431326473E+03  0.00000000000E+00 0.  1.
         12    1    3    3    0    0  0.38502596386E+02  0.74043288401E+01 -0.31199943824E+03  0.31445337250E+03  0.00000000000E+00 0. -1.
         11    1    5    5    0    0  0.42021578533E+02 -0.10280762628E+02  0.15613263018E+03  0.16201513926E+03  0.00000000000E+00 0. -1.
        -12    1    5    5    0    0 -0.33516722554E+02 -0.80172469044E+01  0.41822426997E+02  0.54191902888E+02  0.00000000000E+00 0.  1.
          5    1    4    4  501    0 -0.13339618998E+03 -0.26790762380E+02 -0.55770391294E+03  0.57407614074E+03  0.41800000000E+01 0. -1.
         -5    1    4    4    0  501 -0.18483682527E+02  0.57218419504E+02 -0.16981196585E+03  0.18019203699E+03  0.41800000000E+01 0. -1.
</event>
<event>
11    1  0.8864208E-009  0.1434013E+03  0.7561462E-02  0.1103819E+00
         22   -1    0    0    0    0  0.00000000000E+00  0.00000000000E+00  0.80599958418E+03  0.80599958418E+03  0.00000000000E+00 0. -1.
         22   -1    0    0    0    0 -0.00000000000E+00 -0.00000000000E+00 -0.13489016180E+03  0.13489016180E+03  0.00000000000E+00 0.  1.
         24    2    1    2    0    0  0.58032819729E+01 -0.70418955778E+02 -0.90878829031E+02  0.14048198604E+03  0.80521546310E+02 0.  0.
         25    2    1    2    0    0 -0.56273837850E+02  0.55172081154E+02  0.42470491759E+03  0.44970237402E+03  0.12508898756E+03 0.  0.
        -24    2    1    2    0    0  0.50470555877E+02  0.15246874624E+02  0.33728333382E+03  0.35070538593E+03  0.80339755097E+02 0.  0.
        -11    1    3    3    0    0 -0.35879343551E+02 -0.19073482895E+02 -0.40235081729E+02  0.57183798800E+02  0.00000000000E+00 0.  1.
         12    1    3    3    0    0  0.41682625524E+02 -0.51345472883E+02 -0.50643747302E+02  0.83298187237E+02  0.00000000000E+00 0. -1.
         13    1    5    5    0    0 -0.10357385768E+01  0.28695796791E+02  0.22049791627E+03  0.22235973689E+03  0.00000000000E+00 0. -1.
        -14    1    5    5    0    0  0.51506294453E+02 -0.13448922167E+02  0.11678541755E+03  0.12834564904E+03  0.00000000000E+00 0.  1.
          5    1    4    4  501    0  0.16602825994E+02  0.65576004529E+02  0.13909188822E+03  0.15472521439E+03  0.41800000000E+01 0.  1.
         -5    1    4    4    0  501 -0.72876663843E+02 -0.10403923375E+02  0.28561302937E+03  0.29497715963E+03  0.41800000000E+01 0.  1.
</event>
<event>
11    1  0.8864208E-009  0.1570982E+03  0.7561462E-02  0.1089839E+00
         22   -1    0    0    0    0  0.00000000000E+00  0.00000000000E+00  0.22996085054E+03  0.22996085054E+03  0.00000000000E+00 0.  1.
         22   -1    0    0    0    0 -0.00000000000E+00 -0.00000000000E+00 -0.82516880496E+03  0.82516880496E+03  0.00000000000E+00 0.  1.
         24    2    1    2    0    0 -0.10436135927E+02  0.99431100123E+02 -0.37527189064E+03  0.39667699717E+03  0.80797225034E+02 0.  0.
         25    2    1    2    0    0  0.31695581597E+02 -0.84636239174E+02 -0.41797449538E+03  0.44555427012E+03  0.12509206993E+03 0.  0.
        -24    2    1    2    0    0 -0.21259445670E+02 -0.14794860949E+02  0.19803843160E+03  0.21289838821E+03  0.73726870068E+02 0.  0.
        -13    1    3    3    0    0 -0.33945023014E+02  0.82073968239E+02 -0.19793458857E+03  0.21694815556E+03  0.00000000000E+00 0.  1.
         14    1    3    3    0    0  0.23508887087E+02  0.17357131884E+02 -0.17733730207E+03  0.17972884160E+03  0.00000000000E+00 0. -1.
         11    1    5    5    0    0  0.64751335917E+01 -0.38901928355E+02  0.12601857741E+03  0.13204533024E+03  0.00000000000E+00 0. -1.
        -12    1    5    5    0    0 -0.27734579262E+02  0.24107067406E+02  0.72019854191E+02  0.80853057972E+02  0.00000000000E+00 0.  1.
          5    1    4    4  501    0 -0.40672643352E+01  0.25922097781E+02 -0.27936996927E+02  0.38554454864E+02  0.41800000000E+01 0. -1.
         -5    1    4    4    0  501  0.35762845932E+02 -0.11055833696E+03 -0.39003749846E+03  0.40699981526E+03  0.41800000000E+01 0. -1.
</event>
<event>
11    1  0.8864208E-009  0.1510394E+03  0.7561462E-02  0.1095821E+00
         22   -1    0    0    0    0  0.00000000000E+00  0.00000000000E+00  0.42927828463E+03  0.42927828463E+03  0.00000000000E+00 0.  1.
         22   -1    0    0    0    0 -0.00000000000E+00 -0.00000000000E+00 -0.16695234570E+04  0.16695234570E+04  0.00000000000E+00 0. -1.
        -24    2    1    2    0    0  0.40793005582E+02  0.52077126626E+02 -0.15383301344E+04  0.15418528628E+04  0.80464598000E+02 0.  0.
         25    2    1    2    0    0 -0.33266366023E+02 -0.13293685353E+03 -0.48809738464E+02  0.19185588549E+03  0.12508969619E+03 0.  0.
         24    2    1    2    0    0 -0.75266395587E+01  0.80859726902E+02  0.34689470050E+03  0.36509299339E+03  0.79762239501E+02 0.  0.
        -11    1    5    5    0    0 -0.16374630993E+02  0.33906863150E+02  0.28202034727E+03  0.28452289923E+03  0.00000000000E+00 0.  1.
         12    1    5    5    0    0  0.88479914345E+01  0.46952863752E+02  0.64874353230E+02  0.80570094166E+02  0.00000000000E+00 0. -1.
         11    1    3    3    0    0 -0.62714486606E+01  0.27974024885E+02 -0.10957768413E+04  0.10961517975E+04  0.00000000000E+00 0. -1.
        -12    1    3    3    0    0  0.47064454242E+02  0.24103101741E+02 -0.44255329313E+03  0.44570106532E+03  0.00000000000E+00 0.  1.
          5    1    4    4  501    0  0.21112356988E+02 -0.11996379923E+03 -0.72952930383E+01  0.12209724994E+03  0.41800000000E+01 0.  1.
         -5    1    4    4    0  501 -0.54378723011E+02 -0.12973054298E+02 -0.41514445426E+02  0.69758635545E+02  0.41800000000E+01 0.  1.
</event>
<event>
11    1  0.9112727E-009  0.2073569E+03  0.7561462E-02  0.1049440E+00
         22   -1    0    0    0    0  0.00000000000E+00  0.00000000000E+00  0.10867723954E+04  0.10867723954E+04  0.00000000000E+00 0. -1.
         22   -1    0    0    0    0 -0.00000000000E+00 -0.00000000000E+00 -0.17000460580E+04  0.17000460580E+04  0.00000000000E+00 0.  1.
         24    2    1    2    0    0 -0.10770139139E+03 -0.22404774996E+02 -0.15101509972E+04  0.15163095816E+04  0.80852638439E+02 0.  0.
         25    2    1    2    0    0  0.15449384133E+03 -0.13569117571E+03 -0.96885823032E+02  0.25945287145E+03  0.12509391521E+03 0.  0.
        -24    2    1    2    0    0 -0.46792449940E+02  0.15809595071E+03  0.99376315768E+03  0.10110560003E+04  0.86516814743E+02 0.  0.
        -11    1    3    3    0    0 -0.10904770767E+03  0.49113543649E+01 -0.11981546812E+04  0.12031168539E+04  0.00000000000E+00 0.  1.
         12    1    3    3    0    0  0.13463162767E+01 -0.27316129361E+02 -0.31199631603E+03  0.31319272774E+03  0.00000000000E+00 0. -1.
         13    1    5    5    0    0 -0.49200681508E+02  0.14799422638E+03  0.70231702922E+03  0.71942491452E+03  0.00000000000E+00 0. -1.
        -14    1    5    5    0    0  0.24082315682E+01  0.10101724331E+02  0.29144612846E+03  0.29163108581E+03  0.00000000000E+00 0.  1.
          5    1    4    4  501    0  0.14224630016E+03 -0.15854844878E+03 -0.77103380607E+02  0.22657013091E+03  0.41800000000E+01 0.  1.
         -5    1    4    4    0  501  0.12247541174E+02  0.22857273071E+02 -0.19782442425E+02  0.32882740539E+02  0.41800000000E+01 0.  1.
</event>
<event>
11    1  0.8864208E-009  0.2228804E+03  0.7561462E-02  0.1039428E+00
         22   -1    0    0    0    0  0.00000000000E+00  0.00000000000E+00  0.39715843089E+03  0.39715843089E+03  0.00000000000E+00 0.  1.
         22   -1    0    0    0    0 -0.00000000000E+00 -0.00000000000E+00 -0.30202741429E+03  0.30202741429E+03  0.00000000000E+00 0. -1.
        -24    2    1    2    0    0 -0.46309016453E+02  0.72417816182E+02 -0.11115837522E+03  0.16170433605E+03  0.80020265013E+02 0.  0.
         25    2    1    2    0    0 -0.42586647584E+02 -0.22248068291E+03  0.59808473172E+01  0.25883288855E+03  0.12508963521E+03 0.  0.
         24    2    1    2    0    0  0.88895664037E+02  0.15006286673E+03  0.20030854449E+03  0.27864862057E+03  0.84262908174E+02 0.  0.
        -13    1    5    5    0    0  0.86997785209E+02  0.65075998165E+02  0.10914308579E+03  0.15399906930E+03  0.00000000000E+00 0.  1.
         14    1    5    5    0    0  0.18978788277E+01  0.84986868567E+02  0.91165458700E+02  0.12464955127E+03  0.00000000000E+00 0. -1.
         11    1    3    3    0    0 -0.21661601529E+01  0.14552628755E+02  0.11773340101E+02  0.18843640588E+02  0.00000000000E+00 0. -1.
        -12    1    3    3    0    0 -0.44142856300E+02  0.57865187427E+02 -0.12293171532E+03  0.14286069547E+03  0.00000000000E+00 0.  1.
          5    1    4    4  501    0 -0.47921759384E+01 -0.21580217926E+03 -0.12031333995E+02  0.21623082787E+03  0.41800000000E+01 0. -1.
         -5    1    4    4    0  501 -0.37794471646E+02 -0.66785036497E+01  0.18012181312E+02  0.42602060673E+02  0.41800000000E+01 0. -1.
</event>
<event>
11    1  0.8864208E-009  0.2387214E+03  0.7561462E-02  0.1030085E+00
         22   -1    0    0    0    0  0.00000000000E+00  0.00000000000E+00  0.75664591590E+03  0.75664591590E+03  0.00000000000E+00 0. -1.
         22   -1    0    0    0    0 -0.00000000000E+00 -0.00000000000E+00 -0.75334594072E+03  0.75334594072E+03  0.00000000000E+00 0.  1.
        -24    2    1    2    0    0 -0.72234889932E+02  0.15157255381E+02 -0.63932344176E+03  0.64851507110E+03  0.79935677513E+02 0.  0.
         25    2    1    2    0    0  0.25225471835E+03 -0.74236198252E+02  0.15004780084E+03  0.32757395752E+03  0.12508756551E+03 0.  0.
         24    2    1    2    0    0 -0.18001982842E+03  0.59078942870E+02  0.49257561611E+03  0.53390282800E+03  0.80771480441E+02 0.  0.
        -11    1    5    5    0    0 -0.32179800797E+02  0.26550862539E+02  0.44730939849E+02  0.61166533829E+02  0.00000000000E+00 0.  1.
         12    1    5    5    0    0 -0.14784002762E+03  0.32528080331E+02  0.44784467626E+03  0.47273629417E+03  0.00000000000E+00 0. -1.
         13    1    3    3    0    0  0.62393803722E+01 -0.21972136349E+00 -0.25562030146E+01  0.67462818469E+01  0.00000000000E+00 0. -1.
        -14    1    3    3    0    0 -0.78474270304E+02  0.15376976745E+02 -0.63676723875E+03  0.64176878925E+03  0.00000000000E+00 0.  1.
          5    1    4    4  501    0  0.23356425954E+02 -0.18963196397E+02 -0.20629107724E+02  0.36717270275E+02  0.41800000000E+01 0. -1.
         -5    1    4    4    0  501  0.22889829240E+03 -0.55273001855E+02  0.17067690857E+03  0.29085668724E+03  0.41800000000E+01 0. -1.
</event>
<event>
11    1  0.8864208E-009  0.1566862E+03  0.7561462E-02  0.1090236E+00
         22   -1    0    0    0    0  0.00000000000E+00  0.00000000000E+00  0.31487710882E+03  0.31487710882E+03  0.00000000000E+00 0.  1.
         22   -1    0    0    0    0 -0.00000000000E+00 -0.00000000000E+00 -0.73176365328E+03  0.73176365328E+03  0.00000000000E+00 0. -1.
        -24    2    1    2    0    0 -0.29749194636E+02 -0.58817079314E+02 -0.49828879329E+03  0.50905302068E+03  0.80615091305E+02 0.  0.
         25    2    1    2    0    0  0.10535738834E+03  0.10909677468E+03 -0.16891127032E+03  0.25919448591E+03  0.12509387980E+03 0.  0.
         24    2    1    2    0    0 -0.75608193708E+02 -0.50279695361E+02  0.25031351915E+03  0.27839325551E+03  0.81248385369E+02 0.  0.
        -13    1    5    5    0    0  0.15221846444E+02 -0.17408946757E+01  0.60845851158E+02  0.62745142653E+02  0.00000000000E+00 0.  1.
         14    1    5    5    0    0 -0.90830040153E+02 -0.48538800685E+02  0.18946766799E+03  0.21564811286E+03  0.00000000000E+00 0. -1.
         13    1    3    3    0    0  0.18601621574E+02 -0.34618832108E+02 -0.32901724516E+03  0.33135604940E+03  0.00000000000E+00 0. -1.
        -14    1    3    3    0    0 -0.48350816210E+02 -0.24198247206E+02 -0.16927154812E+03  0.17769697127E+03  0.00000000000E+00 0.  1.
          5    1    4    4  501    0  0.56991645121E+02  0.20473800743E+02  0.19009763247E+01  0.60731460063E+02  0.41800000000E+01 0.  1.
         -5    1    4    4    0  501  0.48365743224E+02  0.88622973933E+02 -0.17081224664E+03  0.19846302585E+03  0.41800000000E+01 0.  1.
</event>
<event>
11    1  0.8864208E-009  0.1558496E+03  0.7561462E-02  0.1091047E+00
         22   -1    0    0    0    0  0.00000000000E+00  0.00000000000E+00  0.48600556701E+03  0.48600556701E+03  0.00000000000E+00 0. -1.
         22   -1    0    0    0    0 -0.00000000000E+00 -0.00000000000E+00 -0.16284824746E+03  0.16284824746E+03  0.00000000000E+00 0.  1.
         24    2    1    2    0    0 -0.56080636896E+02  0.61412731043E+02 -0.25849405132E+02  0.11707885963E+03  0.78247723664E+02 0.  0.
         25    2    1    2    0    0 -0.11093064275E+01 -0.13204964919E+03  0.22982851707E+02  0.18334150545E+03  0.12509019040E+03 0.  0.
        -24    2    1    2    0    0  0.57189943323E+02  0.70636918144E+02  0.32602387298E+03  0.34843344939E+03  0.82789124173E+02 0.  0.
        -13    1    3    3    0    0 -0.45063367995E+02  0.80395347472E+02 -0.19161257054E+02  0.94134333811E+02  0.00000000000E+00 0.  1.
         14    1    3    3    0    0 -0.11017268901E+02 -0.18982616429E+02 -0.66881480773E+01  0.22944525822E+02  0.00000000000E+00 0. -1.
         11    1    5    5    0    0  0.71754939117E+02  0.42526680171E+02  0.17160394990E+03  0.19080148174E+03  0.00000000000E+00 0. -1.
        -12    1    5    5    0    0 -0.14564995794E+02  0.28110237973E+02  0.15441992308E+03  0.15763196765E+03  0.00000000000E+00 0.  1.
          5    1    4    4  501    0 -0.45920880332E+02 -0.57133378300E+02  0.53420259633E+02  0.90797283581E+02  0.41800000000E+01 0.  1.
         -5    1    4    4    0  501  0.44811573904E+02 -0.74916270888E+02 -0.30437407926E+02  0.92544221866E+02  0.41800000000E+01 0.  1.
</event>
<event>
11    1  0.8864208E-009  0.1726255E+03  0.7561462E-02  0.1075769E+00
         22   -1    0    0    0    0  0.00000000000E+00  0.00000000000E+00  0.27492741831E+04  0.27492741831E+04  0.00000000000E+00 0.  1.
         22   -1    0    0    0    0 -0.00000000000E+00 -0.00000000000E+00 -0.58469748849E+03  0.58469748849E+03  0.00000000000E+00 0. -1.
         24    2    1    2    0    0 -0.63781789633E+02 -0.13885058351E+03 -0.55110586139E+03  0.57756483008E+03  0.80720884890E+02 0.  0.
         25    2    1    2    0    0 -0.17003979713E+02  0.51262453374E+02  0.23534651744E+03  0.27194122399E+03  0.12508825517E+03 0.  0.
        -24    2    1    2    0    0  0.80785769347E+02  0.87588130134E+02  0.24803360386E+04  0.24844656175E+04  0.79401003812E+02 0.  0.
        -11    1    3    3    0    0 -0.18977838075E+02  0.35785191752E+01 -0.11492707388E+03  0.11653839045E+03  0.00000000000E+00 0.  1.
         12    1    3    3    0    0 -0.44803951559E+02 -0.14242910268E+03 -0.43617878751E+03  0.46102643963E+03  0.00000000000E+00 0. -1.
         13    1    5    5    0    0  0.94487770436E+01  0.32990026131E+02  0.13937735974E+04  0.13941959913E+04  0.00000000000E+00 0. -1.
        -14    1    5    5    0    0  0.71336992303E+02  0.54598104002E+02  0.10865624411E+04  0.10902696263E+04  0.00000000000E+00 0.  1.
          5    1    4    4  501    0 -0.43306268313E+02  0.24666112821E+02  0.22821784628E+03  0.23363370424E+03  0.41800000000E+01 0. -1.
         -5    1    4    4    0  501  0.26302288599E+02  0.26596340554E+02  0.71286711560E+01  0.38307519743E+02  0.41800000000E+01 0. -1.
</event>
<event>
11    1  0.8864208E-009  0.1301848E+03  0.7561462E-02  0.1119042E+00
         22   -1    0    0    0    0  0.00000000000E+00  0.00000000000E+00  0.21570397853E+04  0.21570397853E+04  0.00000000000E+00 0.  1.
         22   -1    0    0    0    0 -0.00000000000E+00 -0.00000000000E+00 -0.72609098156E+02  0.72609098156E+02  0.00000000000E+00 0.  1.
         24    2    1    2    0    0 -0.23133746742E+02 -0.22658323506E+02 -0.38060745847E+02  0.93386387431E+02  0.78891236020E+02 0.  0.
         25    2    1    2    0    0 -0.17896005056E+02  0.21660972334E+02  0.76310568278E+03  0.77379930451E+03  0.12508243621E+03 0.  0.
        -24    2    1    2    0    0  0.41029751798E+02  0.99735117114E+00  0.13593857502E+04  0.13624631915E+04  0.81804004275E+02 0.  0.
        -13    1    3    3    0    0  0.14581903928E+02 -0.41903291964E+01 -0.47907811648E+02  0.50252852634E+02  0.00000000000E+00 0.  1.
         14    1    3    3    0    0 -0.37715650670E+02 -0.18467994309E+02  0.98470658013E+01  0.43133534798E+02  0.00000000000E+00 0. -1.
         13    1    5    5    0    0 -0.20136072402E+02 -0.12345464972E+02  0.20026164055E+03  0.20164968781E+03  0.00000000000E+00 0. -1.
        -14    1    5    5    0    0  0.61165824200E+02  0.13342816143E+02  0.11591241096E+04  0.11608135037E+04  0.00000000000E+00 0.  1.
          5    1    4    4  501    0 -0.18718739590E+02  0.33602729050E+02  0.65468398242E+02  0.76046815711E+02  0.41800000000E+01 0.  1.
         -5    1    4    4    0  501  0.82273453397E+00 -0.11941756716E+02  0.69763728454E+03  0.69775248880E+03  0.41800000000E+01 0.  1.
</event>
<event>
11    1  0.8864208E-009  0.1372791E+03  0.7561462E-02  0.1110635E+00
         22   -1    0    0    0    0  0.00000000000E+00  0.00000000000E+00  0.32016109094E+03  0.32016109094E+03  0.00000000000E+00 0. -1.
         22   -1    0    0    0    0 -0.00000000000E+00 -0.00000000000E+00 -0.12106551039E+04  0.12106551039E+04  0.00000000000E+00 0. -1.
         24    2    1    2    0    0  0.34108064205E+02  0.28776986482E+02 -0.10906119732E+04  0.10945229743E+04  0.80960423384E+02 0.  0.
         25    2    1    2    0    0 -0.77794677163E+02  0.59082572185E+01 -0.59339750220E+02  0.15892135562E+03  0.12509145462E+03 0.  0.
        -24    2    1    2    0    0  0.43686612959E+02 -0.34685243701E+02  0.25945771047E+03  0.27737186493E+03  0.80655202251E+02 0.  0.
        -11    1    3    3    0    0  0.14171446176E+02 -0.27561711181E+02 -0.27967592259E+03  0.28138780976E+03  0.00000000000E+00 0.  1.
         12    1    3    3    0    0  0.19936618028E+02  0.56338697663E+02 -0.81093605064E+03  0.81313516454E+03  0.00000000000E+00 0. -1.
         13    1    5    5    0    0  0.10722713201E+02 -0.40377510951E+02  0.22682253774E+03  0.23063777574E+03  0.00000000000E+00 0. -1.
        -14    1    5    5    0    0  0.32963899758E+02  0.56922672501E+01  0.32635172725E+02  0.46734089191E+02  0.00000000000E+00 0.  1.
          5    1    4    4  501    0 -0.96814287693E+02  0.42353398547E+02 -0.37685172663E+02  0.11226959209E+03  0.41800000000E+01 0. -1.
         -5    1    4    4    0  501  0.19019610529E+02 -0.36445141328E+02 -0.21654577557E+02  0.46651763528E+02  0.41800000000E+01 0. -1.
</event>
<event>
11    1  0.8864208E-009  0.1724845E+03  0.7561462E-02  0.1075890E+00
         22   -1    0    0    0    0  0.00000000000E+00  0.00000000000E+00  0.19525958051E+04  0.19525958051E+04  0.00000000000E+00 0.  1.
         22   -1    0    0    0    0 -0.00000000000E+00 -0.00000000000E+00 -0.84790652717E+03  0.84790652717E+03  0.00000000000E+00 0.  1.
         24    2    1    2    0    0 -0.53942293531E+02  0.61120123270E+02 -0.82775417733E+03  0.83570247090E+03  0.81093780827E+02 0.  0.
         25    2    1    2    0    0  0.15844948319E+03 -0.39668390295E+02  0.87424088042E+03  0.89812232638E+03  0.12508707456E+03 0.  0.
        -24    2    1    2    0    0 -0.10450718966E+03 -0.21451732975E+02  0.10582025749E+04  0.10666775350E+04  0.81402363096E+02 0.  0.
        -13    1    3    3    0    0 -0.75206661640E+02  0.47359545835E+02 -0.68157267533E+03  0.68734291318E+03  0.00000000000E+00 0.  1.
         14    1    3    3    0    0  0.21264368109E+02  0.13760577436E+02 -0.14618150199E+03  0.14835955772E+03  0.00000000000E+00 0. -1.
         11    1    5    5    0    0  0.84278539464E+01  0.17494390472E+01  0.16463257254E+02  0.18577623597E+02  0.00000000000E+00 0. -1.
        -12    1    5    5    0    0 -0.11293504361E+03 -0.23201172022E+02  0.10417393176E+04  0.10480999114E+04  0.00000000000E+00 0.  1.
          5    1    4    4  501    0 -0.21205417982E+02 -0.86653527239E+01  0.90859863564E+02  0.93796296817E+02  0.41800000000E+01 0. -1.
         -5    1    4    4    0  501  0.17965490117E+03 -0.31003037572E+02  0.78338101686E+03  0.80432602956E+03  0.41800000000E+01 0. -1.
</event>
<event>
11    1  0.8864208E-009  0.1701349E+03  0.7561462E-02  0.1077914E+00
         22   -1    0    0    0    0  0.00000000000E+00  0.00000000000E+00  0.40374744908E+03  0.40374744908E+03  0.00000000000E+00 0.  1.
         22   -1    0    0    0    0 -0.00000000000E+00 -0.00000000000E+00 -0.86551278077E+03  0.86551278077E+03  0.00000000000E+00 0.  1.
        -24    2    1    2    0    0 -0.10805832973E+03 -0.29368880253E+02 -0.60411535029E+03  0.61910134267E+03  0.76105074020E+02 0.  0.
         25    2    1    2    0    0  0.10778436033E+03  0.94460278109E+02 -0.20985759686E+03  0.28324375178E+03  0.12508636813E+03 0.  0.
         24    2    1    2    0    0  0.27396939652E+00 -0.65091397856E+02  0.35220761547E+03  0.36691513540E+03  0.79621272619E+02 0.  0.
        -11    1    5    5    0    0 -0.29422334381E+02 -0.65454018421E+02  0.27450757083E+03  0.28373281222E+03  0.00000000000E+00 0.  1.
         12    1    5    5    0    0  0.29696303777E+02  0.36262056447E+00  0.77700044636E+02  0.83182323172E+02  0.00000000000E+00 0. -1.
         11    1    3    3    0    0 -0.89179121770E+01  0.17216610899E+02 -0.18103831595E+03  0.18207364634E+03  0.00000000000E+00 0. -1.
        -12    1    3    3    0    0 -0.99140417552E+02 -0.46585491152E+02 -0.42307703434E+03  0.43702769633E+03  0.00000000000E+00 0.  1.
          5    1    4    4  501    0 -0.23566920396E+02  0.41323456743E+02 -0.42574218241E+02  0.63977060522E+02  0.41800000000E+01 0.  1.
         -5    1    4    4    0  501  0.13135128073E+03  0.53136821366E+02 -0.16728337862E+03  0.21926669126E+03  0.41800000000E+01 0.  1.
</event>
<event>
11    1  0.8864208E-009  0.1336884E+03  0.7561462E-02  0.1114818E+00
         22   -1    0    0    0    0  0.00000000000E+00  0.00000000000E+00  0.10058449645E+04  0.10058449645E+04  0.00000000000E+00 0. -1.
         22   -1    0    0    0    0 -0.00000000000E+00 -0.00000000000E+00 -0.66538278073E+03  0.66538278073E+03  0.00000000000E+00 0. -1.
         24    2    1    2    0    0 -0.32122184371E+01  0.48178387986E+02 -0.54688806969E+03  0.55476879518E+03  0.79689271054E+02 0.  0.
         25    2    1    2    0    0 -0.28963212088E+02 -0.36949433716E+02 -0.72946050325E+02  0.15222807627E+03  0.12509249634E+03 0.  0.
        -24    2    1    2    0    0  0.32175430525E+02 -0.11228954269E+02  0.96029630382E+03  0.96423087382E+03  0.80067716013E+02 0.  0.
        -13    1    3    3    0    0 -0.32844440476E+02  0.27385406063E+02 -0.14288151522E+03  0.14914370629E+03  0.00000000000E+00 0.  1.
         14    1    3    3    0    0  0.29632222039E+02  0.20792981923E+02 -0.40400655447E+03  0.40562508889E+03  0.00000000000E+00 0. -1.
         11    1    5    5    0    0  0.56132133108E+02  0.15759229268E+01  0.76445147617E+03  0.76651116059E+03  0.00000000000E+00 0. -1.
        -12    1    5    5    0    0 -0.23956702584E+02 -0.12804877196E+02  0.19584482766E+03  0.19771971323E+03  0.00000000000E+00 0.  1.
          5    1    4    4  501    0 -0.69103920278E+02 -0.45363913076E+02 -0.73946863059E+02  0.11099030302E+03  0.41800000000E+01 0.  1.
         -5    1    4    4    0  501  0.40140708190E+02  0.84144793596E+01  0.10008127345E+01  0.41237773255E+02  0.41800000000E+01 0.  1.
</event>
<event>
11    1  0.8864208E-009  0.1401637E+03  0.7561462E-02  0.1107376E+00
         22   -1    0    0    0    0  0.00000000000E+00  0.00000000000E+00  0.16815445198E+03  0.16815445198E+03  0.00000000000E+00 0.  1.
         22   -1    0    0    0    0 -0.00000000000E+00 -0.00000000000E+00 -0.12771569618E+04  0.12771569618E+04  0.00000000000E+00 0. -1.
        -24    2    1    2    0    0  0.45797442688E+02 -0.46834670772E+02 -0.11414828219E+04  0.11463355534E+04  0.82530455875E+02 0.  0.
         25    2    1    2    0    0  0.45816247390E+01  0.42398690073E+02 -0.76954512811E+02  0.15293256184E+03  0.12509089185E+03 0.  0.
         24    2    1    2    0    0 -0.50379067426E+02  0.44359806985E+01  0.10943482493E+03  0.14604329851E+03  0.82431400405E+02 0.  0.
        -11    1    5    5    0    0 -0.40583034614E+02  0.12703305107E+02  0.12132357151E+03  0.12856035805E+03  0.00000000000E+00 0.  1.
         12    1    5    5    0    0 -0.97960328121E+01 -0.82673244086E+01 -0.11888746580E+02  0.17482940456E+02  0.00000000000E+00 0. -1.
         13    1    3    3    0    0  0.56334259614E+02 -0.61338618202E+02 -0.10358229040E+04  0.10391655611E+04  0.00000000000E+00 0. -1.
        -14    1    3    3    0    0 -0.10536816927E+02  0.14503947430E+02 -0.10565991786E+03  0.10716999227E+03  0.00000000000E+00 0.  1.
          5    1    4    4  501    0 -0.15488158212E+02 -0.93120928989E+01  0.28326609756E+02  0.33859523612E+02  0.41800000000E+01 0.  1.
         -5    1    4    4    0  501  0.20069782951E+02  0.51710782972E+02 -0.10528112257E+03  0.11907303823E+03  0.41800000000E+01 0.  1.
</event>
<event>
11    1  0.8864208E-009  0.2019709E+03  0.7561462E-02  0.1053139E+00
         22   -1    0    0    0    0  0.00000000000E+00  0.00000000000E+00  0.29664474515E+04  0.29664474515E+04  0.00000000000E+00 0.  1.
         22   -1    0    0    0    0 -0.00000000000E+00 -0.00000000000E+00 -0.68480555729E+03  0.68480555729E+03  0.00000000000E+00 0.  1.
        -24    2    1    2    0    0 -0.21063237146E+02  0.92422182529E+01 -0.66326546251E+03  0.66857261558E+03  0.80865258249E+02 0.  0.
         25    2    1    2    0    0 -0.10740368036E+03 -0.10572936380E+03  0.61141063845E+03  0.64201662233E+03  0.12509246824E+03 0.  0.
         24    2    1    2    0    0  0.12846691751E+03  0.96487145547E+02  0.23334967183E+04  0.23406637709E+04  0.87672322059E+02 0.  0.
        -11    1    5    5    0    0  0.11898381631E+03  0.96810943375E+02  0.23129611916E+04  0.23180420577E+04  0.00000000000E+00 0.  1.
         12    1    5    5    0    0  0.94831011936E+01 -0.32379782724E+00  0.20535526637E+02  0.22621713187E+02  0.00000000000E+00 0. -1.
         11    1    3    3    0    0 -0.75070975097E+01  0.17869964723E+02 -0.34267635453E+02  0.39369569362E+02  0.00000000000E+00 0. -1.
        -12    1    3    3    0    0 -0.13556139637E+02 -0.86277464704E+01 -0.62899782705E+03  0.62920304622E+03  0.00000000000E+00 0.  1.
          5    1    4    4  501    0 -0.19582895884E+02 -0.46223559255E+02  0.42105385009E+03  0.42405651076E+03  0.41800000000E+01 0. -1.
         -5    1    4    4    0  501 -0.87820784478E+02 -0.59505804545E+02  0.19035678836E+03  0.21796011157E+03  0.41800000000E+01 0. -1.
</event>
<event>
11    1  0.8864208E-009  0.1421131E+03  0.7561462E-02  0.1105221E+00
         22   -1    0    0    0    0  0.00000000000E+00  0.00000000000E+00  0.16873079903E+04  0.16873079903E+04  0.00000000000E+00 0. -1.
         22   -1    0    0    0    0 -0.00000000000E+00 -0.00000000000E+00 -0.51058921168E+03  0.51058921168E+03  0.00000000000E+00 0. -1.
         24    2    1    2    0    0  0.62833290286E+02  0.32541040792E+02 -0.35460716339E+03  0.37022653383E+03  0.79463855433E+02 0.  0.
         25    2    1    2    0    0 -0.21245201065E+02 -0.66193120063E+02 -0.11187707858E+03  0.18165389981E+03  0.12509504744E+03 0.  0.
        -24    2    1    2    0    0 -0.41588089221E+02  0.33652079271E+02  0.16432030206E+04  0.16460167683E+04  0.79956257794E+02 0.  0.
        -11    1    3    3    0    0 -0.11645159512E+02  0.42744871661E+01 -0.84214519383E+01  0.14993392989E+02  0.00000000000E+00 0.  1.
         12    1    3    3    0    0  0.74478449797E+02  0.28266553625E+02 -0.34618571146E+03  0.35523314084E+03  0.00000000000E+00 0. -1.
         13    1    5    5    0    0 -0.38915626633E+02  0.14954174793E+02  0.15653585957E+04  0.15659136587E+04  0.00000000000E+00 0. -1.
        -14    1    5    5    0    0 -0.26724625872E+01  0.18697904478E+02  0.77844424834E+02  0.80103109589E+02  0.00000000000E+00 0.  1.
          5    1    4    4  501    0 -0.37256241593E+02  0.27287117349E+02 -0.50747530317E+02  0.68741534345E+02  0.41800000000E+01 0.  1.
         -5    1    4    4    0  501  0.16011040528E+02 -0.93480237411E+02 -0.61129548262E+02  0.11291236547E+03  0.41800000000E+01 0.  1.
</event>
<event>
11    1  0.8864208E-009  0.1421189E+03  0.7561462E-02  0.1105215E+00
         22   -1    0    0    0    0  0.00000000000E+00  0.00000000000E+00  0.37966897159E+03  0.37966897159E+03  0.00000000000E+00 0.  1.
         22   -1    0    0    0    0 -0.00000000000E+00 -0.00000000000E+00 -0.12468946501E+03  0.12468946501E+03  0.00000000000E+00 0. -1.
        -24    2    1    2    0    0  0.32507801069E+02 -0.18246199299E+02 -0.54758495743E+02  0.10396577478E+03  0.80129323912E+02 0.  0.
         25    2    1    2    0    0 -0.56050928196E+02 -0.45871627072E+02  0.14635642227E+03  0.20569929992E+03  0.12508431926E+03 0.  0.
         24    2    1    2    0    0  0.23543127127E+02  0.64117826372E+02  0.16338158006E+03  0.19469336191E+03  0.80911000331E+02 0.  0.
        -11    1    5    5    0    0  0.30062764646E+02  0.80933619740E+02  0.14616724260E+03  0.16976125421E+03  0.00000000000E+00 0.  1.
         12    1    5    5    0    0 -0.65196375191E+01 -0.16815793368E+02  0.17214337456E+02  0.24932107693E+02  0.00000000000E+00 0. -1.
         11    1    3    3    0    0  0.25011885622E+02  0.10563412529E+02 -0.66604997416E+02  0.71926391453E+02  0.00000000000E+00 0. -1.
        -12    1    3    3    0    0  0.74959154466E+01 -0.28809611829E+02  0.11846501674E+02  0.32039383328E+02  0.00000000000E+00 0.  1.
          5    1    4    4  501    0  0.89460463570E+01 -0.72213776269E+02  0.88765622341E+02  0.11485499266E+03  0.41800000000E+01 0.  1.
         -5    1    4    4    0  501 -0.64996974553E+02  0.26342149197E+02  0.57590799930E+02  0.90844307262E+02  0.41800000000E+01 0.  1.
</event>
<event>
11    1  0.8864208E-009  0.2144838E+03  0.7561462E-02  0.1044729E+00
         22   -1    0    0    0    0  0.00000000000E+00  0.00000000000E+00  0.19576956285E+04  0.19576956285E+04  0.00000000000E+00 0. -1.
         22   -1    0    0    0    0 -0.00000000000E+00 -0.00000000000E+00 -0.21324755600E+03  0.21324755600E+03  0.00000000000E+00 0.  1.
        -24    2    1    2    0    0 -0.17898566983E+03 -0.34137375282E+02 -0.11487042015E+03  0.23001199330E+03  0.80678827714E+02 0.  0.
         25    2    1    2    0    0  0.12595855296E+03  0.80088940647E+02  0.20388198355E+03  0.28196574781E+03  0.12512803140E+03 0.  0.
         24    2    1    2    0    0  0.53027116875E+02 -0.45951565366E+02  0.16554365091E+04  0.16589654434E+04  0.82297540743E+02 0.  0.
        -11    1    5    5    0    0 -0.16723732584E+02  0.84041308763E+01  0.38532105579E+03  0.38577536039E+03  0.00000000000E+00 0.  1.
         12    1    5    5    0    0  0.69750849459E+02 -0.54355696242E+02  0.12701154533E+04  0.12731900830E+04  0.00000000000E+00 0. -1.
         13    1    3    3    0    0 -0.13189428865E+03  0.90954780501E+01 -0.95908950325E+02  0.16333204784E+03  0.00000000000E+00 0. -1.
        -14    1    3    3    0    0 -0.47091381187E+02 -0.43232853332E+02 -0.18961469822E+02  0.66679945464E+02  0.00000000000E+00 0.  1.
          5    1    4    4  501    0  0.13628507052E+03  0.87145170401E+02  0.13184199092E+03  0.20872873339E+03  0.41800000000E+01 0. -1.
         -5    1    4    4    0  501 -0.10326517562E+02 -0.70562297535E+01  0.72039992630E+02  0.73237014422E+02  0.41800000000E+01 0. -1.
</event>
<event>
11    1  0.8864208E-009  0.1843120E+03  0.7561462E-02  0.1066207E+00
         22   -1    0    0    0    0  0.00000000000E+00  0.00000000000E+00  0.28246530665E+04  0.28246530665E+04  0.00000000000E+00 0. -1.
         22   -1    0    0    0    0 -0.00000000000E+00 -0.00000000000E+00 -0.70712522686E+02  0.70712522686E+02  0.00000000000E+00 0. -1.
         24    2    1    2    0    0 -0.14265153285E+03 -0.25476980412E+01  0.11697155990E+03  0.20420983836E+03  0.87540628666E+02 0.  0.
         25    2    1    2    0    0  0.11800978463E+03 -0.54828045196E+02  0.28777970857E+03  0.33970102794E+03  0.12508878412E+03 0.  0.
        -24    2    1    2    0    0  0.24641748215E+02  0.57375743237E+02  0.23491892753E+04  0.23514547228E+04  0.82157596807E+02 0.  0.
        -11    1    3    3    0    0 -0.55619020526E+02  0.30071110683E+02  0.84964080894E+02  0.10590865019E+03  0.00000000000E+00 0.  1.
         12    1    3    3    0    0 -0.87032512322E+02 -0.32618808724E+02  0.32007479008E+02  0.98301188172E+02  0.00000000000E+00 0. -1.
         13    1    5    5    0    0  0.29983815024E+02  0.67302951414E+02  0.22909438791E+04  0.22921283938E+04  0.00000000000E+00 0. -1.
        -14    1    5    5    0    0 -0.53420668087E+01 -0.99272081773E+01  0.58245396186E+02  0.59326329036E+02  0.00000000000E+00 0.  1.
          5    1    4    4  501    0  0.52139719159E+02 -0.26280301220E+02  0.25325258797E+03  0.25992989489E+03  0.41800000000E+01 0. -1.
         -5    1    4    4    0  501  0.65870065473E+02 -0.28547743976E+02  0.34527120602E+02  0.79771133053E+02  0.41800000000E+01 0. -1.
</event>
<event>
11    1  0.8864208E-009  0.1700698E+03  0.7561462E-02  0.1077971E+00
         22   -1    0    0    0    0  0.00000000000E+00  0.00000000000E+00  0.71442807713E+03  0.71442807713E+03  0.00000000000E+00 0.  1.
         22   -1    0    0    0    0 -0.00000000000E+00 -0.00000000000E+00 -0.16551995710E+03  0.16551995710E+03  0.00000000000E+00 0. -1.
        -24    2    1    2    0    0  0.71618383030E+01  0.24915899539E+02 -0.10986371799E+03  0.13674410761E+03  0.77180440903E+02 0.  0.
         25    2    1    2    0    0  0.92508244568E+02  0.43860742624E+02  0.19086680600E+03  0.25011831618E+03  0.12508994523E+03 0.  0.
         24    2    1    2    0    0 -0.99670082871E+02 -0.68776642164E+02  0.46790503202E+03  0.49308561044E+03  0.97641939255E+02 0.  0.
        -13    1    5    5    0    0 -0.47357229359E+02 -0.76228224777E+02  0.38058429293E+03  0.39102155113E+03  0.00000000000E+00 0.  1.
         14    1    5    5    0    0 -0.52312853512E+02  0.74515826131E+01  0.87320739091E+02  0.10206405930E+03  0.00000000000E+00 0. -1.
         13    1    3    3    0    0  0.37958470617E+02  0.17663002186E+02 -0.90330050724E+02  0.99560761355E+02  0.00000000000E+00 0. -1.
        -14    1    3    3    0    0 -0.30796632314E+02  0.72528973535E+01 -0.19533667266E+02  0.37183346256E+02  0.00000000000E+00 0.  1.
          5    1    4    4  501    0 -0.13894142195E+02 -0.26882866715E+02  0.19210172165E+02  0.36086546313E+02  0.41800000000E+01 0. -1.
         -5    1    4    4    0  501  0.10640238676E+03  0.70743609339E+02  0.17165663384E+03  0.21403176987E+03  0.41800000000E+01 0. -1.
</event>
<event>
11    1  0.8864208E-009  0.1747458E+03  0.7561462E-02  0.1073974E+00
         22   -1    0    0    0    0  0.00000000000E+00  0.00000000000E+00  0.51126786883E+03  0.51126786883E+03  0.00000000000E+00 0. -1.
         22   -1    0    0    0    0 -0.00000000000E+00 -0.00000000000E+00 -0.44903035301E+03  0.44903035301E+03  0.00000000000E+00 0.  1.
         24    2    1    2    0    0  0.28772106323E+01  0.29048799214E+02 -0.23443782977E+03  0.24993076917E+03  0.81560911434E+02 0.  0.
         25    2    1    2    0    0 -0.53581226714E+02  0.83480356206E+02 -0.16271426461E+03  0.22795438102E+03  0.12508936882E+03 0.  0.
        -24    2    1    2    0    0  0.50704016082E+02 -0.11252915542E+03  0.45938961019E+03  0.48241307165E+03  0.80310956135E+02 0.  0.
        -13    1    3    3    0    0  0.29202875847E+02  0.83981152779E+01 -0.19856354768E+03  0.20087513227E+03  0.00000000000E+00 0.  1.
         14    1    3    3    0    0 -0.26325665215E+02  0.20650683936E+02 -0.35874282089E+02  0.49055636898E+02  0.00000000000E+00 0. -1.
         13    1    5    5    0    0 -0.12495909065E+02 -0.45005631799E+02  0.23699942131E+03  0.24155823385E+03  0.00000000000E+00 0. -1.
        -14    1    5    5    0    0  0.63199925147E+02 -0.67523523621E+02  0.22239018888E+03  0.24085483780E+03  0.00000000000E+00 0.  1.
          5    1    4    4  501    0  0.26695604259E+02  0.68988994823E+02 -0.10251177691E+03  0.12648428163E+03  0.41800000000E+01 0.  1.
         -5    1    4    4    0  501 -0.80276830973E+02  0.14491361383E+02 -0.60202487698E+02  0.10147009939E+03  0.41800000000E+01 0.  1.
</event>
<event>
11    1  0.1067690E-008  0.1409306E+03  0.7561462E-02  0.1106524E+00
         22   -1    0    0    0    0  0.00000000000E+00  0.00000000000E+00  0.50386277166E+03  0.50386277166E+03  0.00000000000E+00 0. -1.
         22   -1    0    0    0    0 -0.00000000000E+00 -0.00000000000E+00 -0.10569150525E+04  0.10569150525E+04  0.00000000000E+00 0.  1.
        -24    2    1    2    0    0 -0.72904723979E+01  0.17059934977E+02 -0.77558627480E+03  0.77992562574E+03  0.80035739818E+02 0.  0.
         25    2    1    2    0    0  0.33771430092E+02  0.42526177915E+02 -0.25576067236E+03  0.28984398088E+03  0.12508807469E+03 0.  0.
         24    2    1    2    0    0 -0.26480957694E+02 -0.59586112893E+02  0.47829466633E+03  0.49100821754E+03  0.89841726808E+02 0.  0.
        -13    1    5    5    0    0  0.47959129343E+01 -0.23294791944E+02  0.22621774964E+02  0.32823662427E+02  0.00000000000E+00 0.  1.
         14    1    5    5    0    0 -0.31276870628E+02 -0.36291320948E+02  0.45567289137E+03  0.45818455511E+03  0.00000000000E+00 0. -1.
         13    1    3    3    0    0 -0.42753757367E+02 -0.11633853908E+00 -0.40381605530E+03  0.40607302769E+03  0.00000000000E+00 0. -1.
        -14    1    3    3    0    0  0.35463284969E+02  0.17176273516E+02 -0.37177021951E+03  0.37385259805E+03  0.00000000000E+00 0.  1.
          5    1    4    4  501    0  0.15302014927E+02 -0.39015991819E+02 -0.38689095795E+02  0.57190189822E+02  0.41800000000E+01 0. -1.
         -5    1    4    4    0  501  0.18469415164E+02  0.81542169735E+02 -0.21707157657E+03  0.23265379106E+03  0.41800000000E+01 0. -1.
</event>
<event>
11    1  0.8864208E-009  0.1350248E+03  0.7561462E-02  0.1113245E+00
         22   -1    0    0    0    0  0.00000000000E+00  0.00000000000E+00  0.55075042172E+02  0.55075042172E+02  0.00000000000E+00 0. -1.
         22   -1    0    0    0    0 -0.00000000000E+00 -0.00000000000E+00 -0.12362715388E+04  0.12362715388E+04  0.00000000000E+00 0. -1.
         24    2    1    2    0    0  0.49021709563E+02 -0.73584376266E+01 -0.93445619685E+03  0.93910237854E+03  0.79041880890E+02 0.  0.
         25    2    1    2    0    0 -0.57072702157E+02  0.32357370087E+02 -0.22569965070E+03  0.26625706669E+03  0.12509276760E+03 0.  0.
        -24    2    1    2    0    0  0.80509925945E+01 -0.24998932461E+02 -0.21040649117E+02  0.85987135782E+02  0.79128462002E+02 0.  0.
        -11    1    3    3    0    0  0.57171495051E+02 -0.16906555517E+02 -0.39261538959E+03  0.39711617395E+03  0.00000000000E+00 0.  1.
         12    1    3    3    0    0 -0.81497854880E+01  0.95481178905E+01 -0.54184080726E+03  0.54198620459E+03  0.00000000000E+00 0. -1.
         11    1    5    5    0    0 -0.14821754024E+02  0.93203810875E+01  0.20832853988E+02  0.27213263334E+02  0.00000000000E+00 0. -1.
        -12    1    5    5    0    0  0.22872746619E+02 -0.34319313548E+02 -0.41873503105E+02  0.58773872448E+02  0.00000000000E+00 0.  1.
          5    1    4    4  501    0 -0.94353806774E+02  0.25779410187E+02 -0.12623565927E+03  0.15975022038E+03  0.41800000000E+01 0. -1.
         -5    1    4    4    0  501  0.37281104617E+02  0.65779599004E+01 -0.99463991433E+02  0.10650684630E+03  0.41800000000E+01 0. -1.
</event>
<event>
11    1  0.8864208E-009  0.1475470E+03  0.7561462E-02  0.1099412E+00
         22   -1    0    0    0    0  0.00000000000E+00  0.00000000000E+00  0.25704846623E+03  0.25704846623E+03  0.00000000000E+00 0.  1.
         22   -1    0    0    0    0 -0.00000000000E+00 -0.00000000000E+00 -0.87472006181E+03  0.87472006181E+03  0.00000000000E+00 0. -1.
        -24    2    1    2    0    0 -0.45882385227E+02 -0.70815986172E+02 -0.71059050867E+03  0.72011830540E+03  0.80693281001E+02 0.  0.
         25    2    1    2    0    0  0.56913587280E+02  0.50208749956E+01 -0.11494349465E+03  0.17923273439E+03  0.12509196821E+03 0.  0.
         24    2    1    2    0    0 -0.11031202053E+02  0.65795111177E+02  0.20786240774E+03  0.23241748825E+03  0.79752267818E+02 0.  0.
        -11    1    5    5    0    0  0.18036000035E+02  0.41791478664E+02  0.17966535544E+03  0.18534148195E+03  0.00000000000E+00 0.  1.
         12    1    5    5    0    0 -0.29067202088E+02  0.24003632513E+02  0.28197052294E+02  0.47076006299E+02  0.00000000000E+00 0. -1.
         11    1    3    3    0    0 -0.58554448989E+02 -0.60011920483E+02 -0.68117806733E+03  0.68631888617E+03  0.00000000000E+00 0. -1.
        -12    1    3    3    0    0  0.12672063762E+02 -0.10804065690E+02 -0.29412441333E+02  0.33799419234E+02  0.00000000000E+00 0.  1.
          5    1    4    4  501    0  0.90908270587E+01  0.18199957940E+02  0.23942047571E+02  0.31695041371E+02  0.41800000000E+01 0. -1.
         -5    1    4    4    0  501  0.47822760221E+02 -0.13179082944E+02 -0.13888554222E+03  0.14753769302E+03  0.41800000000E+01 0. -1.
</event>
<event>
11    1  0.8864208E-009  0.1427406E+03  0.7561462E-02  0.1104536E+00
         22   -1    0    0    0    0  0.00000000000E+00  0.00000000000E+00  0.36873135898E+03  0.36873135898E+03  0.00000000000E+00 0. -1.
         22   -1    0    0    0    0 -0.00000000000E+00 -0.00000000000E+00 -0.23414673356E+03  0.23414673356E+03  0.00000000000E+00 0.  1.
        -24    2    1    2    0    0  0.74111799328E+02  0.23022423104E+02 -0.16994834754E+03  0.20313493872E+03  0.79741907006E+02 0.  0.
         25    2    1    2    0    0 -0.98557119353E+01 -0.82759041335E+01  0.68277553268E+02  0.14312280699E+03  0.12512668761E+03 0.  0.
         24    2    1    2    0    0 -0.64256087393E+02 -0.14746518971E+02  0.23625541969E+03  0.25662034683E+03  0.75439210518E+02 0.  0.
        -11    1    5    5    0    0 -0.33123636915E+02  0.17054710008E+01  0.22724445578E+02  0.40205526742E+02  0.00000000000E+00 0.  1.
         12    1    5    5    0    0 -0.31132450478E+02 -0.16451989972E+02  0.21353097411E+03  0.21641482008E+03  0.00000000000E+00 0. -1.
         11    1    3    3    0    0  0.64168704358E+02  0.38951949448E+02 -0.74149885690E+02  0.10551342347E+03  0.00000000000E+00 0. -1.
        -12    1    3    3    0    0  0.99430949706E+01 -0.15929526343E+02 -0.95798461851E+02  0.97621515252E+02  0.00000000000E+00 0.  1.
          5    1    4    4  501    0  0.31600713814E+02  0.43587271780E+02  0.51256746777E+02  0.74452547739E+02  0.41800000000E+01 0.  1.
         -5    1    4    4    0  501 -0.41456425749E+02 -0.51863175913E+02  0.17020806492E+02  0.68670259249E+02  0.41800000000E+01 0.  1.
</event>
<event>
11    1  0.8864208E-009  0.1559245E+03  0.7561462E-02  0.1090974E+00
         22   -1    0    0    0    0  0.00000000000E+00  0.00000000000E+00  0.48157988910E+02  0.48157988910E+02  0.00000000000E+00 0. -1.
         22   -1    0    0    0    0 -0.00000000000E+00 -0.00000000000E+00 -0.27324764917E+04  0.27324764917E+04  0.00000000000E+00 0.  1.
         24    2    1    2    0    0  0.22390238263E+01  0.96883903622E+02 -0.24341537462E+04  0.24374156883E+04  0.80618071915E+02 0.  0.
         25    2    1    2    0    0 -0.17811861021E+02 -0.31376168898E+02 -0.13641247280E+03  0.18856918628E+03  0.12509296108E+03 0.  0.
        -24    2    1    2    0    0  0.15572837195E+02 -0.65507734724E+02 -0.11375228384E+03  0.15464960606E+03  0.80269184681E+02 0.  0.
        -13    1    3    3    0    0  0.11579177931E+02  0.39238799593E+02 -0.18274728343E+04  0.18279307210E+04  0.00000000000E+00 0.  1.
         14    1    3    3    0    0 -0.93401541047E+01  0.57645104028E+02 -0.60668091192E+03  0.60948496732E+03  0.00000000000E+00 0. -1.
         13    1    5    5    0    0  0.30389646426E+02  0.63654434719E+01 -0.28298433728E+02  0.42010127730E+02  0.00000000000E+00 0. -1.
        -14    1    5    5    0    0 -0.14816809231E+02 -0.71873178196E+02 -0.85453850114E+02  0.11263947833E+03  0.00000000000E+00 0.  1.
          5    1    4    4  501    0 -0.59423820547E+02  0.10930994010E+02 -0.32250797992E+02  0.68616786937E+02  0.41800000000E+01 0. -1.
         -5    1    4    4    0  501  0.41611959526E+02 -0.42307162908E+02 -0.10416167481E+03  0.11995239934E+03  0.41800000000E+01 0. -1.
</event>
<event>
11    1  0.8864208E-009  0.1488376E+03  0.7561462E-02  0.1098073E+00
         22   -1    0    0    0    0  0.00000000000E+00  0.00000000000E+00  0.31179329218E+03  0.31179329218E+03  0.00000000000E+00 0.  1.
         22   -1    0    0    0    0 -0.00000000000E+00 -0.00000000000E+00 -0.32566357460E+03  0.32566357460E+03  0.00000000000E+00 0. -1.
        -24    2    1    2    0    0 -0.69596677640E+02 -0.21382345760E+02 -0.19444638497E+03  0.22282721503E+03  0.80880584083E+02 0.  0.
         25    2    1    2    0    0  0.11837658670E+03  0.19996231933E+02 -0.37687119484E+02  0.17742842069E+03  0.12509060685E+03 0.  0.
         24    2    1    2    0    0 -0.48779909065E+02  0.13861138279E+01  0.21826322203E+03  0.23720123106E+03  0.79020181507E+02 0.  0.
        -13    1    5    5    0    0 -0.38636828067E+02 -0.17266047703E+02  0.21031514745E+03  0.21453060885E+03  0.00000000000E+00 0.  1.
         14    1    5    5    0    0 -0.10143080998E+02  0.18652161531E+02  0.79480745812E+01  0.22670622211E+02  0.00000000000E+00 0. -1.
         11    1    3    3    0    0 -0.30740761223E+02 -0.32238449636E+02 -0.16981053173E+03  0.17555605578E+03  0.00000000000E+00 0. -1.
        -12    1    3    3    0    0 -0.38855916417E+02  0.10856103875E+02 -0.24635853245E+02  0.47271159253E+02  0.00000000000E+00 0.  1.
          5    1    4    4  501    0 -0.23756514987E+02  0.19751937982E+02 -0.61114221118E+01  0.31770000608E+02  0.41800000000E+01 0. -1.
         -5    1    4    4    0  501  0.14213310169E+03  0.24429395019E+00 -0.31575697373E+02  0.14565842008E+03  0.41800000000E+01 0. -1.
</event>
<event>
11    1  0.8864208E-009  0.1540550E+03  0.7561462E-02  0.1092806E+00
         22   -1    0    0    0    0  0.00000000000E+00  0.00000000000E+00  0.12978700478E+04  0.12978700478E+04  0.00000000000E+00 0.  1.
         22   -1    0    0    0    0 -0.00000000000E+00 -0.00000000000E+00 -0.14962271802E+04  0.14962271802E+04  0.00000000000E+00 0.  1.
         24    2    1    2    0    0  0.86287097134E+02  0.24157000298E+02 -0.14653162574E+04  0.14703175989E+04  0.81566437302E+02 0.  0.
         25    2    1    2    0    0 -0.11700883954E+03 -0.54663224418E+02  0.28104699643E+03  0.33363999831E+03  0.12509635339E+03 0.  0.
        -24    2    1    2    0    0  0.30721742411E+02  0.30506224119E+02  0.98591212858E+03  0.99013963081E+03  0.80494149198E+02 0.  0.
        -13    1    3    3    0    0  0.34303078396E+02 -0.16088832661E+02 -0.95937905173E+03  0.96012692735E+03  0.00000000000E+00 0.  1.
         14    1    3    3    0    0  0.51984018738E+02  0.40245832959E+02 -0.50593720566E+03  0.51019067156E+03  0.00000000000E+00 0. -1.
         13    1    5    5    0    0  0.61123709361E+00  0.10894204459E+02  0.14926989798E+02  0.18489789777E+02  0.00000000000E+00 0. -1.
        -14    1    5    5    0    0  0.30110505317E+02  0.19612019660E+02  0.97098513879E+03  0.97164984104E+03  0.00000000000E+00 0.  1.
          5    1    4    4  501    0  0.14455973568E+02 -0.26313223028E+01 -0.36800175823E+01  0.15713496055E+02  0.41800000000E+01 0.  1.
         -5    1    4    4    0  501 -0.13146481311E+03 -0.52031902115E+02  0.28472701401E+03  0.31792650225E+03  0.41800000000E+01 0.  1.
</event>
<event>
11    1  0.8864208E-009  0.1857391E+03  0.7561462E-02  0.1065093E+00
         22   -1    0    0    0    0  0.00000000000E+00  0.00000000000E+00  0.22441957832E+03  0.22441957832E+03  0.00000000000E+00 0.  1.
         22   -1    0    0    0    0 -0.00000000000E+00 -0.00000000000E+00 -0.59845704387E+03  0.59845704387E+03  0.00000000000E+00 0.  1.
        -24    2    1    2    0    0  0.67347172817E+02  0.12174829425E+03 -0.39078198123E+03  0.42253028048E+03  0.80392737421E+02 0.  0.
         25    2    1    2    0    0 -0.55248456916E+02 -0.12021949013E+03 -0.13639810738E+03  0.22750318159E+03  0.12509251030E+03 0.  0.
         24    2    1    2    0    0 -0.12098715901E+02 -0.15288041129E+01  0.15314262306E+03  0.17284316013E+03  0.79204664247E+02 0.  0.
        -13    1    5    5    0    0 -0.40510993179E+02 -0.88820075025E+01  0.12678655940E+03  0.13339738480E+03  0.00000000000E+00 0.  1.
         14    1    5    5    0    0  0.28412277278E+02  0.73532033896E+01  0.26356063654E+02  0.39445775332E+02  0.00000000000E+00 0. -1.
         11    1    3    3    0    0  0.45215155799E+02  0.96287119148E+01 -0.10372930481E+03  0.11356447984E+03  0.00000000000E+00 0. -1.
        -12    1    3    3    0    0  0.22132017018E+02  0.11211958233E+03 -0.28705267642E+03  0.30896580063E+03  0.00000000000E+00 0.  1.
          5    1    4    4  501    0 -0.80582043788E+02 -0.12954435647E+03 -0.12720712918E+03  0.19868148427E+03  0.41800000000E+01 0. -1.
         -5    1    4    4    0  501  0.25333586872E+02  0.93248663413E+01 -0.91909781995E+01  0.28821697319E+02  0.41800000000E+01 0. -1.
</event>
<event>
11    1  0.8864208E-009  0.1719780E+03  0.7561462E-02  0.1076323E+00
         22   -1    0    0    0    0  0.00000000000E+00  0.00000000000E+00  0.10075825591E+04  0.10075825591E+04  0.00000000000E+00 0. -1.
         22   -1    0    0    0    0 -0.00000000000E+00 -0.00000000000E+00 -0.38746382763E+03  0.38746382763E+03  0.00000000000E+00 0.  1.
         24    2    1    2    0    0 -0.42727322184E+02 -0.12021586818E+03 -0.33547627379E+03  0.36746818732E+03  0.78810274628E+02 0.  0.
         25    2    1    2    0    0 -0.13330971544E+02  0.40954463435E+02  0.10844574914E+03  0.17106769089E+03  0.12509473003E+03 0.  0.
        -24    2    1    2    0    0  0.56058293727E+02  0.79261404749E+02  0.84714925608E+03  0.85651050847E+03  0.80768103051E+02 0.  0.
        -11    1    3    3    0    0 -0.44440907386E+02 -0.11871885846E+03 -0.33974904409E+03  0.36262732186E+03  0.00000000000E+00 0.  1.
         12    1    3    3    0    0  0.17135852027E+01 -0.14970097257E+01  0.42727702933E+01  0.48408654541E+01  0.00000000000E+00 0. -1.
         13    1    5    5    0    0  0.14535859187E+02  0.80452736741E+02  0.46741999964E+03  0.47451595349E+03  0.00000000000E+00 0. -1.
        -14    1    5    5    0    0  0.41522434540E+02 -0.11913319920E+01  0.37972925644E+03  0.38199455498E+03  0.00000000000E+00 0.  1.
          5    1    4    4  501    0  0.61330673643E+01 -0.63907912644E+01  0.11835541944E+03  0.11875998669E+03  0.41800000000E+01 0. -1.
         -5    1    4    4    0  501 -0.19464038908E+02  0.47345254699E+02 -0.99096702994E+01  0.52307704199E+02  0.41800000000E+01 0. -1.
</event>
<event>
11    1  0.8864208E-009  0.1776395E+03  0.7561462E-02  0.1071568E+00
         22   -1    0    0    0    0  0.00000000000E+00  0.00000000000E+00  0.17333533286E+03  0.17333533286E+03  0.00000000000E+00 0. -1.
         22   -1    0    0    0    0 -0.00000000000E+00 -0.00000000000E+00 -0.10566691427E+04  0.10566691427E+04  0.00000000000E+00 0. -1.
        -24    2    1    2    0    0 -0.38449195789E+02 -0.35157226925E+01 -0.76197594686E+03  0.76713585079E+03  0.79996056231E+02 0.  0.
         25    2    1    2    0    0 -0.34613941758E+02 -0.10334898780E+03 -0.22445739255E+03  0.27912121586E+03  0.12509354033E+03 0.  0.
         24    2    1    2    0    0  0.73063137547E+02  0.10686471049E+03  0.10309952953E+03  0.18374740895E+03  0.79845531428E+02 0.  0.
        -11    1    5    5    0    0  0.14812512455E+01  0.62737702798E+02  0.20870613438E+02  0.66134680486E+02  0.00000000000E+00 0.  1.
         12    1    5    5    0    0  0.71581886302E+02  0.44127007691E+02  0.82228916095E+02  0.11761272846E+03  0.00000000000E+00 0. -1.
         11    1    3    3    0    0 -0.23070247113E+02  0.35560335494E+02 -0.50240351237E+03  0.50418851931E+03  0.00000000000E+00 0. -1.
        -12    1    3    3    0    0 -0.15378948676E+02 -0.39076058187E+02 -0.25957243448E+03  0.26294733147E+03  0.00000000000E+00 0.  1.
          5    1    4    4  501    0  0.10521820250E+02  0.38957354162E+01 -0.12621161904E+03  0.12677827352E+03  0.41800000000E+01 0. -1.
         -5    1    4    4    0  501 -0.45135762007E+02 -0.10724472321E+03 -0.98245773509E+02  0.15234294234E+03  0.41800000000E+01 0. -1.
</event>
<event>
11    1  0.8864208E-009  0.2185206E+03  0.7561462E-02  0.1042148E+00
         22   -1    0    0    0    0  0.00000000000E+00  0.00000000000E+00  0.18328918276E+03  0.18328918276E+03  0.00000000000E+00 0. -1.
         22   -1    0    0    0    0 -0.00000000000E+00 -0.00000000000E+00 -0.13635123590E+04  0.13635123590E+04  0.00000000000E+00 0. -1.
        -24    2    1    2    0    0 -0.14485978938E+03 -0.76231845879E+02 -0.66299247475E+03  0.68752195334E+03  0.79572368588E+02 0.  0.
         25    2    1    2    0    0  0.21188221265E+03  0.35419917547E+02 -0.64411531741E+03  0.69042084635E+03  0.12509100829E+03 0.  0.
         24    2    1    2    0    0 -0.67022423265E+02  0.40811928332E+02  0.12688461597E+03  0.16885874202E+03  0.79094565364E+02 0.  0.
        -13    1    5    5    0    0  0.17414754507E+02  0.19473075429E+01  0.28912553414E+02  0.33808304100E+02  0.00000000000E+00 0.  1.
         14    1    5    5    0    0 -0.84437177772E+02  0.38864620789E+02  0.97972062560E+02  0.13505043792E+03  0.00000000000E+00 0. -1.
         13    1    3    3    0    0 -0.14877447563E+03 -0.58288457242E+02 -0.62792829842E+03  0.64793930025E+03  0.00000000000E+00 0. -1.
        -14    1    3    3    0    0  0.39146862496E+01 -0.17943388637E+02 -0.35064176332E+02  0.39582653095E+02  0.00000000000E+00 0.  1.
          5    1    4    4  501    0  0.52501626471E+02 -0.59021925684E+00 -0.44581684236E+02  0.69005565791E+02  0.41800000000E+01 0.  1.
         -5    1    4    4    0  501  0.15938058618E+03  0.36010136804E+02 -0.59953363318E+03  0.62141528056E+03  0.41800000000E+01 0.  1.
</event>
<event>
11    1  0.8864208E-009  0.2128140E+03  0.7561462E-02  0.1045815E+00
         22   -1    0    0    0    0  0.00000000000E+00  0.00000000000E+00  0.26067911507E+04  0.26067911507E+04  0.00000000000E+00 0.  1.
         22   -1    0    0    0    0 -0.00000000000E+00 -0.00000000000E+00 -0.36362664715E+03  0.36362664715E+03  0.00000000000E+00 0.  1.
        -24    2    1    2    0    0 -0.16622340276E+02 -0.23673429383E+02 -0.32535692138E+03  0.33613898980E+03  0.79344569560E+02 0.  0.
         25    2    1    2    0    0  0.11577946017E+03 -0.11855808631E+03  0.34632426216E+03  0.40379360369E+03  0.12509147288E+03 0.  0.
         24    2    1    2    0    0 -0.99157119899E+02  0.14223151569E+03  0.22221971628E+04  0.22304852044E+04  0.82716855580E+02 0.  0.
        -11    1    5    5    0    0 -0.57515921119E+02  0.13712212734E+03  0.18376913013E+04  0.18436973390E+04  0.00000000000E+00 0.  1.
         12    1    5    5    0    0 -0.41641198780E+02  0.51093883495E+01  0.38450586146E+03  0.38678786535E+03  0.00000000000E+00 0. -1.
         13    1    3    3    0    0  0.24429843937E+02 -0.21562929983E+02 -0.66675290590E+02  0.74211667543E+02  0.00000000000E+00 0. -1.
        -14    1    3    3    0    0 -0.41052184213E+02 -0.21104994001E+01 -0.25868163079E+03  0.26192732225E+03  0.00000000000E+00 0.  1.
          5    1    4    4  501    0  0.48070393696E+02 -0.12753424545E+03  0.19758977460E+03  0.24007277634E+03  0.41800000000E+01 0.  1.
         -5    1    4    4    0  501  0.67709066479E+02  0.89761591440E+01  0.14873448757E+03  0.16372082735E+03  0.41800000000E+01 0.  1.
</event>
<event>
11    1  0.8864208E-009  0.1296382E+03  0.7561462E-02  0.1119714E+00
         22   -1    0    0    0    0  0.00000000000E+00  0.00000000000E+00  0.33118728550E+04  0.33118728550E+04  0.00000000000E+00 0.  1.
         22   -1    0    0    0    0 -0.00000000000E+00 -0.00000000000E+00 -0.59703125681E+03  0.59703125681E+03  0.00000000000E+00 0. -1.
        -24    2    1    2    0    0  0.14868347396E+02  0.25054146812E+02 -0.50858485579E+03  0.51565135906E+03  0.79931161272E+02 0.  0.
         25    2    1    2    0    0  0.18153681815E+02 -0.33567401326E+02 -0.33611415673E+02  0.13502966605E+03  0.12508779658E+03 0.  0.
         24    2    1    2    0    0 -0.33022029211E+02  0.85132545138E+01  0.32570378696E+04  0.32582230867E+04  0.80988075736E+02 0.  0.
        -11    1    5    5    0    0  0.70435115385E+01 -0.27476229905E+02  0.17367036361E+04  0.17369352532E+04  0.00000000000E+00 0.  1.
         12    1    5    5    0    0 -0.40065540750E+02  0.35989484418E+02  0.15203342335E+04  0.15212878334E+04  0.00000000000E+00 0. -1.
         13    1    3    3    0    0 -0.19109227636E+02  0.42296638249E+02 -0.30835849073E+03  0.31183188899E+03  0.00000000000E+00 0. -1.
        -14    1    3    3    0    0  0.33977575032E+02 -0.17242491437E+02 -0.20022636506E+03  0.20381947007E+03  0.00000000000E+00 0.  1.
          5    1    4    4  501    0  0.57009507371E+02  0.19787195570E+02 -0.32967037851E+02  0.68890601854E+02  0.41800000000E+01 0.  1.
         -5    1    4    4    0  501 -0.38855825556E+02 -0.53354596896E+02 -0.64437782282E+00  0.66139064193E+02  0.41800000000E+01 0.  1.
</event>
<event>
11    1  0.8864208E-009  0.1316145E+03  0.7561462E-02  0.1117301E+00
         22   -1    0    0    0    0  0.00000000000E+00  0.00000000000E+00  0.95426390128E+03  0.95426390128E+03  0.00000000000E+00 0.  1.
         22   -1    0    0    0    0 -0.00000000000E+00 -0.00000000000E+00 -0.91119781791E+03  0.91119781791E+03  0.00000000000E+00 0.  1.
        -24    2    1    2    0    0 -0.52126579322E+01 -0.43988341821E+02 -0.78127443940E+03  0.78645429237E+03  0.78475845452E+02 0.  0.
         25    2    1    2    0    0  0.70449906358E+01  0.84074915683E+02 -0.79509028400E+02  0.17054969096E+03  0.12508912082E+03 0.  0.
         24    2    1    2    0    0 -0.18323327036E+01 -0.40086573862E+02  0.90384955116E+03  0.90845773585E+03  0.82104542165E+02 0.  0.
        -13    1    5    5    0    0 -0.29367259084E+02  0.10725830087E+02  0.22658659550E+03  0.22873339196E+03  0.00000000000E+00 0.  1.
         14    1    5    5    0    0  0.27534926381E+02 -0.50812403949E+02  0.67726295567E+03  0.67972434390E+03  0.00000000000E+00 0. -1.
         13    1    3    3    0    0 -0.55963089494E+01 -0.37510219329E+02 -0.13714756706E+03  0.14229473068E+03  0.00000000000E+00 0. -1.
        -14    1    3    3    0    0  0.38365101721E+00 -0.64781224924E+01 -0.64412687233E+03  0.64415956169E+03  0.00000000000E+00 0.  1.
          5    1    4    4  501    0  0.64009310380E+02  0.55749674587E+02 -0.31097540930E+02  0.90497223625E+02  0.41800000000E+01 0. -1.
         -5    1    4    4    0  501 -0.56964319744E+02  0.28325241096E+02 -0.48411487470E+02  0.80052467333E+02  0.41800000000E+01 0. -1.
</event>
<event>
11    1  0.8864208E-009  0.1737241E+03  0.7561462E-02  0.1074836E+00
         22   -1    0    0    0    0  0.00000000000E+00  0.00000000000E+00  0.69224694454E+03  0.69224694454E+03  0.00000000000E+00 0.  1.
         22   -1    0    0    0    0 -0.00000000000E+00 -0.00000000000E+00 -0.20660927191E+04  0.20660927191E+04  0.00000000000E+00 0.  1.
        -24    2    1    2    0    0  0.73756376353E+02 -0.94317560444E+02 -0.19248223582E+04  0.19298209270E+04  0.70227448102E+02 0.  0.
         25    2    1    2    0    0 -0.43057411974E+02  0.14939122118E+03 -0.60396487784E+02  0.20848998567E+03  0.12509460699E+03 0.  0.
         24    2    1    2    0    0 -0.30698964379E+02 -0.55073660732E+02  0.61137307136E+03  0.62002875102E+03  0.81750138702E+02 0.  0.
        -13    1    5    5    0    0 -0.53720225540E+02 -0.24995182539E+02  0.26240964485E+03  0.26901569377E+03  0.00000000000E+00 0.  1.
         14    1    5    5    0    0  0.23021261162E+02 -0.30078478194E+02  0.34896342651E+03  0.35101305725E+03  0.00000000000E+00 0. -1.
         13    1    3    3    0    0  0.11009565845E+02  0.89333876534E+01 -0.38697967057E+03  0.38723930765E+03  0.00000000000E+00 0. -1.
        -14    1    3    3    0    0  0.62746810508E+02 -0.10325094810E+03 -0.15378426876E+04  0.15425816193E+04  0.00000000000E+00 0.  1.
          5    1    4    4  501    0 -0.64370047064E+02  0.49289677302E+02 -0.67831178377E+02  0.10578996364E+03  0.41800000000E+01 0.  1.
         -5    1    4    4    0  501  0.21312635090E+02  0.10010154387E+03  0.74346905933E+01  0.10270002203E+03  0.41800000000E+01 0.  1.
</event>
<event>
11    1  0.8864208E-009  0.1607044E+03  0.7561462E-02  0.1086417E+00
         22   -1    0    0    0    0  0.00000000000E+00  0.00000000000E+00  0.14683431256E+04  0.14683431256E+04  0.00000000000E+00 0. -1.
         22   -1    0    0    0    0 -0.00000000000E+00 -0.00000000000E+00 -0.30886699416E+03  0.30886699416E+03  0.00000000000E+00 0.  1.
        -24    2    1    2    0    0 -0.84710926222E+02  0.52198945177E+02 -0.25064189001E+03  0.28120172933E+03  0.79701848472E+02 0.  0.
         25    2    1    2    0    0  0.99028756335E+02 -0.62025325809E+02  0.13465207946E+03  0.21779104896E+03  0.12509165791E+03 0.  0.
         24    2    1    2    0    0 -0.14317830114E+02  0.98263806320E+01  0.12754659420E+04  0.12782173414E+04  0.82003931815E+02 0.  0.
        -11    1    5    5    0    0  0.15768369126E+02  0.35451981055E+01  0.54047164429E+02  0.56411930274E+02  0.00000000000E+00 0.  1.
         12    1    5    5    0    0 -0.30086199240E+02  0.62811825264E+01  0.12214187775E+04  0.12218054112E+04  0.00000000000E+00 0. -1.
         11    1    3    3    0    0 -0.32506124217E+02  0.63825264300E+02 -0.16957431928E+03  0.18408085787E+03  0.00000000000E+00 0. -1.
        -12    1    3    3    0    0 -0.52204802005E+02 -0.11626319123E+02 -0.81067570735E+02  0.97120871462E+02  0.00000000000E+00 0.  1.
          5    1    4    4  501    0  0.11029461808E+03 -0.74358110250E+01  0.11216962178E+03  0.15754266252E+03  0.41800000000E+01 0. -1.
         -5    1    4    4    0  501 -0.11265861741E+02 -0.54589514784E+02  0.22482457682E+02  0.60248386439E+02  0.41800000000E+01 0. -1.
</event>
<event>
11    1  0.8864208E-009  0.1359503E+03  0.7561462E-02  0.1112167E+00
         22   -1    0    0    0    0  0.00000000000E+00  0.00000000000E+00  0.15040804779E+04  0.15040804779E+04  0.00000000000E+00 0. -1.
         22   -1    0    0    0    0 -0.00000000000E+00 -0.00000000000E+00 -0.12997375495E+04  0.12997375495E+04  0.00000000000E+00 0.  1.
        -24    2    1    2    0    0 -0.47021037396E+02 -0.24255632685E+02 -0.12520472120E+04  0.12557254611E+04  0.80155468109E+02 0.  0.
         25    2    1    2    0    0  0.86600511576E+02 -0.91379615145E+00  0.86391433345E+02  0.17496281661E+03  0.12509206135E+03 0.  0.
         24    2    1    2    0    0 -0.39579474180E+02  0.25169428836E+02  0.13699987070E+04  0.13731297496E+04  0.79930076748E+02 0.  0.
        -13    1    5    5    0    0  0.17872880326E+02  0.19214592855E+02  0.20111778718E+03  0.20282259427E+03  0.00000000000E+00 0.  1.
         14    1    5    5    0    0 -0.57452354506E+02  0.59548359816E+01  0.11688809198E+04  0.11703071554E+04  0.00000000000E+00 0. -1.
         11    1    3    3    0    0 -0.43611488175E+02  0.10090738295E+02 -0.32877882058E+03  0.33181214228E+03  0.00000000000E+00 0. -1.
        -12    1    3    3    0    0 -0.34095492206E+01 -0.34346370980E+02 -0.92326839139E+03  0.92391331886E+03  0.00000000000E+00 0.  1.
          5    1    4    4  501    0  0.57587746548E+01  0.46162303159E+02  0.63029843642E+02  0.78449699222E+02  0.41800000000E+01 0. -1.
         -5    1    4    4    0  501  0.80841736921E+02 -0.47076099310E+02  0.23361589703E+02  0.96513117389E+02  0.41800000000E+01 0. -1.
</event>
<event>
11    1  0.8864208E-009  0.2015940E+03  0.7561462E-02  0.1053402E+00
         22   -1    0    0    0    0  0.00000000000E+00  0.00000000000E+00  0.37463569647E+03  0.37463569647E+03  0.00000000000E+00 0. -1.
         22   -1    0    0    0    0 -0.00000000000E+00 -0.00000000000E+00 -0.22162534749E+04  0.22162534749E+04  0.00000000000E+00 0.  1.
        -24    2    1    2    0    0  0.47220137098E+02 -0.15275535668E+03 -0.16306371027E+04  0.16404156537E+04  0.80138727334E+02 0.  0.
         25    2    1    2    0    0 -0.35505890218E+02  0.14794228355E+03 -0.55924641056E+03  0.59291830624E+03  0.12509189678E+03 0.  0.
         24    2    1    2    0    0 -0.11714246880E+02  0.48130731310E+01  0.34826573490E+03  0.35755521145E+03  0.79976983425E+02 0.  0.
        -13    1    5    5    0    0  0.23453126330E+02  0.29380128428E+02  0.14335859937E+03  0.14820569859E+03  0.00000000000E+00 0.  1.
         14    1    5    5    0    0 -0.35167373210E+02 -0.24567055297E+02  0.20490713553E+03  0.20934951286E+03  0.00000000000E+00 0. -1.
         13    1    3    3    0    0  0.55937699605E+02 -0.55102498288E+02 -0.59752063430E+03  0.60265763081E+03  0.00000000000E+00 0. -1.
        -14    1    3    3    0    0 -0.87175625074E+01 -0.97652858393E+02 -0.10331164684E+04  0.10377580228E+04  0.00000000000E+00 0.  1.
          5    1    4    4  501    0 -0.16336644203E+02 -0.73721961209E+01 -0.83486874170E+01  0.20209111832E+02  0.41800000000E+01 0.  1.
         -5    1    4    4    0  501 -0.19169246015E+02  0.15531447967E+03 -0.55089772314E+03  0.57270919440E+03  0.41800000000E+01 0.  1.
</event>
<event>
11    1  0.8864208E-009  0.1705547E+03  0.7561462E-02  0.1077550E+00
         22   -1    0    0    0    0  0.00000000000E+00  0.00000000000E+00  0.40332598109E+03  0.40332598109E+03  0.00000000000E+00 0. -1.
         22   -1    0    0    0    0 -0.00000000000E+00 -0.00000000000E+00 -0.48267102864E+03  0.48267102864E+03  0.00000000000E+00 0. -1.
         24    2    1    2    0    0  0.10153676915E+03  0.52231333983E+02 -0.41531214465E+03  0.43821238050E+03  0.80672704150E+02 0.  0.
         25    2    1    2    0    0 -0.12980621243E+03 -0.68295591383E+02  0.15437006743E+03  0.24696474330E+03  0.12509007206E+03 0.  0.
        -24    2    1    2    0    0  0.28269443280E+02  0.16064257399E+02  0.18159702967E+03  0.20081988593E+03  0.79334252433E+02 0.  0.
        -11    1    3    3    0    0  0.69004788517E+02  0.32809713165E+01 -0.13326705984E+03  0.15010841032E+03  0.00000000000E+00 0.  1.
         12    1    3    3    0    0  0.32531980629E+02  0.48950362667E+02 -0.28204508481E+03  0.28810397018E+03  0.00000000000E+00 0. -1.
         11    1    5    5    0    0 -0.85615102689E+01 -0.62090475999E+00  0.14800139256E+03  0.14825011697E+03  0.00000000000E+00 0. -1.
        -12    1    5    5    0    0  0.36830953548E+02  0.16685162159E+02  0.33595637110E+02  0.52569768959E+02  0.00000000000E+00 0.  1.
          5    1    4    4  501    0 -0.14501166828E+03 -0.62370582042E+02  0.92863018224E+02  0.18319248346E+03  0.41800000000E+01 0.  1.
         -5    1    4    4    0  501  0.15205455855E+02 -0.59250093409E+01  0.61507049203E+02  0.63772259840E+02  0.41800000000E+01 0.  1.
</event>
<event>
11    1  0.8864208E-009  0.1390580E+03  0.7561462E-02  0.1108615E+00
         22   -1    0    0    0    0  0.00000000000E+00  0.00000000000E+00  0.45973189636E+03  0.45973189636E+03  0.00000000000E+00 0.  1.
         22   -1    0    0    0    0 -0.00000000000E+00 -0.00000000000E+00 -0.29228646772E+04  0.29228646772E+04  0.00000000000E+00 0.  1.
        -24    2    1    2    0    0 -0.83797329811E+01 -0.59847070908E+02 -0.18542047472E+04  0.18569588639E+04  0.81049898855E+02 0.  0.
         25    2    1    2    0    0  0.65867801978E+02  0.47169445971E+02 -0.10564895909E+04  0.10669507741E+04  0.12510065842E+03 0.  0.
         24    2    1    2    0    0 -0.57488068997E+02  0.12677624937E+02  0.44756155722E+03  0.45868693551E+03  0.81343451221E+02 0.  0.
        -11    1    5    5    0    0 -0.30632942271E+02  0.32033947714E+02  0.38817267640E+03  0.39069499313E+03  0.00000000000E+00 0.  1.
         12    1    5    5    0    0 -0.26855126726E+02 -0.19356322778E+02  0.59388880824E+02  0.67991942379E+02  0.00000000000E+00 0. -1.
         13    1    3    3    0    0 -0.10154878635E+02  0.17513370688E+02 -0.22208945578E+03  0.22301023762E+03  0.00000000000E+00 0. -1.
        -14    1    3    3    0    0  0.17751456543E+01 -0.77360441596E+02 -0.16321152914E+04  0.16339486263E+04  0.00000000000E+00 0.  1.
          5    1    4    4  501    0  0.98909584184E+02  0.47763976261E+02 -0.91573685662E+03  0.92231012476E+03  0.41800000000E+01 0.  1.
         -5    1    4    4    0  501 -0.33041782206E+02 -0.59453028977E+00 -0.14075273431E+03  0.14464064938E+03  0.41800000000E+01 0.  1.
</event>
<event>
11    1  0.8864208E-009  0.2023155E+03  0.7561462E-02  0.1052898E+00
         22   -1    0    0    0    0  0.00000000000E+00  0.00000000000E+00  0.11982089627E+04  0.11982089627E+04  0.00000000000E+00 0.  1.
         22   -1    0    0    0    0 -0.00000000000E+00 -0.00000000000E+00 -0.63972528217E+03  0.63972528217E+03  0.00000000000E+00 0.  1.
         24    2    1    2    0    0  0.63228078833E+01  0.45196493485E+01 -0.39220440416E+03  0.39985511046E+03  0.77455855741E+02 0.  0.
         25    2    1    2    0    0 -0.12560065730E+03  0.10055502298E+03 -0.19299077404E+03  0.28067808269E+03  0.12509160433E+03 0.  0.
        -24    2    1    2    0    0  0.11927784942E+03 -0.10507467233E+03  0.11436788587E+04  0.11574010517E+04  0.79422733007E+02 0.  0.
        -13    1    3    3    0    0 -0.27809925569E+02  0.76213690214E+01 -0.30176053250E+03  0.30313511212E+03  0.00000000000E+00 0.  1.
         14    1    3    3    0    0  0.34132733452E+02 -0.31017196730E+01 -0.90443871659E+02  0.96719998338E+02  0.00000000000E+00 0. -1.
         11    1    5    5    0    0  0.47025402750E+01 -0.14824052662E+02  0.26382512318E+02  0.30625208221E+02  0.00000000000E+00 0. -1.
        -12    1    5    5    0    0  0.11457530914E+03 -0.90250619667E+02  0.11172963464E+04  0.11267758435E+04  0.00000000000E+00 0.  1.
          5    1    4    4  501    0 -0.24971892040E+02 -0.29454145481E+02 -0.44926621078E+02  0.59388683767E+02  0.41800000000E+01 0.  1.
         -5    1    4    4    0  501 -0.10062876526E+03  0.13000916846E+03 -0.14806415296E+03  0.22128939892E+03  0.41800000000E+01 0.  1.
</event>
<event>
11    1  0.8864208E-009  0.6295092E+03  0.7561462E-02  0.9143160E-01
         22   -1    0    0    0    0  0.00000000000E+00  0.00000000000E+00  0.12378856030E+04  0.12378856030E+04  0.00000000000E+00 0. -1.
         22   -1    0    0    0    0 -0.00000000000E+00 -0.00000000000E+00 -0.90753029309E+03  0.90753029309E+03  0.00000000000E+00 0. -1.
         24    2    1    2    0    0 -0.61386735939E+02  0.12954197097E+03 -0.22918663079E+03  0.28219448321E+03  0.80980003871E+02 0.  0.
         25    2    1    2    0    0  0.11101586649E+03  0.50336549357E+03 -0.43143694003E+03  0.68372980150E+03  0.12508903033E+03 0.  0.
        -24    2    1    2    0    0 -0.49629130555E+02 -0.63290746454E+03  0.99097888072E+03  0.11794916114E+04  0.78271386769E+02 0.  0.
        -13    1    3    3    0    0  0.11456349881E+02  0.68441422803E+02 -0.10313067402E+03  0.12430370965E+03  0.00000000000E+00 0.  1.
         14    1    3    3    0    0 -0.72843085820E+02  0.61100548166E+02 -0.12605595677E+03  0.15789077356E+03  0.00000000000E+00 0. -1.
         11    1    5    5    0    0 -0.35159044675E+02 -0.58548363073E+03  0.94278037887E+03  0.11103432276E+04  0.00000000000E+00 0. -1.
        -12    1    5    5    0    0 -0.14470085880E+02 -0.47423833804E+02  0.48198501849E+02  0.69148383774E+02  0.00000000000E+00 0.  1.
          5    1    4    4  501    0  0.10790803093E+03  0.49164657853E+03 -0.43978921289E+03  0.66842540757E+03  0.41800000000E+01 0. -1.
         -5    1    4    4    0  501  0.31078355691E+01  0.11718915040E+02  0.83522728560E+01  0.15304393928E+02  0.41800000000E+01 0. -1.
</event>
<event>
11    1  0.8864208E-009  0.1744107E+03  0.7561462E-02  0.1074256E+00
         22   -1    0    0    0    0  0.00000000000E+00  0.00000000000E+00  0.10179415975E+03  0.10179415975E+03  0.00000000000E+00 0.  1.
         22   -1    0    0    0    0 -0.00000000000E+00 -0.00000000000E+00 -0.12153903551E+04  0.12153903551E+04  0.00000000000E+00 0.  1.
         24    2    1    2    0    0 -0.40747796576E+02  0.10788420516E+03 -0.82411116178E+03  0.83579209357E+03  0.78037376041E+02 0.  0.
         25    2    1    2    0    0  0.25940557340E+02 -0.15057497028E+03 -0.32940017451E+03  0.38405346596E+03  0.12508739167E+03 0.  0.
        -24    2    1    2    0    0  0.14807239236E+02  0.42690765124E+02  0.39915140923E+02  0.97338955347E+02  0.76419225281E+02 0.  0.
        -13    1    3    3    0    0 -0.20077252567E+02  0.29168542759E+02 -0.51272137572E+03  0.51394270992E+03  0.00000000000E+00 0.  1.
         14    1    3    3    0    0 -0.20670544009E+02  0.78715662397E+02 -0.31138978606E+03  0.32184938365E+03  0.00000000000E+00 0. -1.
         13    1    5    5    0    0  0.36761982644E+02  0.16742539132E+02  0.47661925117E+02  0.62477316607E+02  0.00000000000E+00 0. -1.
        -14    1    5    5    0    0 -0.21954743409E+02  0.25948225992E+02 -0.77467841948E+01  0.34861638740E+02  0.00000000000E+00 0.  1.
          5    1    4    4  501    0  0.75434480362E+02 -0.76453535959E+02 -0.16316093406E+03  0.19538287231E+03  0.41800000000E+01 0.  1.
         -5    1    4    4    0  501 -0.49493923022E+02 -0.74121434322E+02 -0.16623924045E+03  0.18867059365E+03  0.41800000000E+01 0.  1.
</event>
<event>
11    1  0.8864208E-009  0.1585605E+03  0.7561462E-02  0.1088439E+00
         22   -1    0    0    0    0  0.00000000000E+00  0.00000000000E+00  0.24146204610E+03  0.24146204610E+03  0.00000000000E+00 0.  1.
         22   -1    0    0    0    0 -0.00000000000E+00 -0.00000000000E+00 -0.54777427761E+03  0.54777427761E+03  0.00000000000E+00 0. -1.
         24    2    1    2    0    0  0.21907346390E+02 -0.32559906995E+02 -0.44234137122E+03  0.45127713536E+03  0.80281285724E+02 0.  0.
         25    2    1    2    0    0 -0.77064669891E+02 -0.52133298752E+02  0.85339436966E+01  0.15613456633E+03  0.12509328688E+03 0.  0.
        -24    2    1    2    0    0  0.55157323500E+02  0.84693205747E+02  0.12749519601E+03  0.18182462202E+03  0.81178191230E+02 0.  0.
        -13    1    3    3    0    0 -0.16247844135E+02  0.19131760499E+02 -0.12751286988E+03  0.12995979641E+03  0.00000000000E+00 0.  1.
         14    1    3    3    0    0  0.38155190525E+02 -0.51691667494E+02 -0.31482850134E+03  0.32131733895E+03  0.00000000000E+00 0. -1.
         11    1    5    5    0    0  0.23216302138E+02  0.32387109631E+02 -0.56671175896E+00  0.39852762984E+02  0.00000000000E+00 0. -1.
        -12    1    5    5    0    0  0.31941021362E+02  0.52306096115E+02  0.12806190777E+03  0.14197185904E+03  0.00000000000E+00 0.  1.
          5    1    4    4  501    0 -0.42560881566E+02 -0.23584059716E+02  0.66661690963E+02  0.82637097931E+02  0.41800000000E+01 0.  1.
         -5    1    4    4    0  501 -0.34503788325E+02 -0.28549239036E+02 -0.58127747267E+02  0.73497468396E+02  0.41800000000E+01 0.  1.
</event>
<event>
11    1  0.8864208E-009  0.1512388E+03  0.7561462E-02  0.1095620E+00
         22   -1    0    0    0    0  0.00000000000E+00  0.00000000000E+00  0.32521811339E+04  0.32521811339E+04  0.00000000000E+00 0.  1.
         22   -1    0    0    0    0 -0.00000000000E+00 -0.00000000000E+00 -0.99710137583E+02  0.99710137583E+02  0.00000000000E+00 0. -1.
        -24    2    1    2    0    0  0.21057535109E+02 -0.41594060953E+02 -0.59754706392E+02  0.11299387554E+03  0.83806355851E+02 0.  0.
         25    2    1    2    0    0  0.28597742914E+02 -0.32751113779E+02  0.35125437923E+03  0.37539003049E+03  0.12509024626E+03 0.  0.
         24    2    1    2    0    0 -0.49655278023E+02  0.74345174732E+02  0.28609713235E+04  0.28635073655E+04  0.80775408417E+02 0.  0.
        -13    1    5    5    0    0 -0.41945771738E+02  0.64947952724E+02  0.28115635648E+04  0.28126264173E+04  0.00000000000E+00 0.  1.
         14    1    5    5    0    0 -0.77095062848E+01  0.93972220084E+01  0.49407758745E+02  0.50880948230E+02  0.00000000000E+00 0. -1.
         13    1    3    3    0    0 -0.32047176758E+02 -0.23150683514E+02 -0.21575903198E+02  0.45038819746E+02  0.00000000000E+00 0. -1.
        -14    1    3    3    0    0  0.53104711868E+02 -0.18443377439E+02 -0.38178803195E+02  0.67955055789E+02  0.00000000000E+00 0.  1.
          5    1    4    4  501    0 -0.49567820458E+02 -0.84405514287E+01  0.13619705777E+03  0.14524228957E+03  0.41800000000E+01 0. -1.
         -5    1    4    4    0  501  0.78165563372E+02 -0.24310562350E+02  0.21505732145E+03  0.23014774092E+03  0.41800000000E+01 0. -1.
</event>
<event>
11    1  0.8864208E-009  0.1571591E+03  0.7561462E-02  0.1089780E+00
         22   -1    0    0    0    0  0.00000000000E+00  0.00000000000E+00  0.36308469347E+03  0.36308469347E+03  0.00000000000E+00 0.  1.
         22   -1    0    0    0    0 -0.00000000000E+00 -0.00000000000E+00 -0.63541886689E+03  0.63541886689E+03  0.00000000000E+00 0.  1.
         24    2    1    2    0    0  0.28075105626E+02  0.91592090918E+02 -0.57533074803E+03  0.58885171013E+03  0.81015703483E+02 0.  0.
         25    2    1    2    0    0 -0.20341986611E+02 -0.80721364363E+02  0.77182271842E+02  0.16892108437E+03  0.12508994593E+03 0.  0.
        -24    2    1    2    0    0 -0.77331190148E+01 -0.10870726555E+02  0.22581430277E+03  0.24073076587E+03  0.82348214756E+02 0.  0.
        -13    1    3    3    0    0 -0.24891846264E+02  0.48992814255E+02 -0.31701128376E+03  0.32173910843E+03  0.00000000000E+00 0.  1.
         14    1    3    3    0    0  0.52966951890E+02  0.42599276663E+02 -0.25831946427E+03  0.26711260170E+03  0.00000000000E+00 0. -1.
         13    1    5    5    0    0  0.16150225646E+02  0.20834490092E+02  0.26049877104E+02  0.37060786054E+02  0.00000000000E+00 0. -1.
        -14    1    5    5    0    0 -0.23883344661E+02 -0.31705216647E+02  0.19976442567E+03  0.20366997981E+03  0.00000000000E+00 0.  1.
          5    1    4    4  501    0 -0.36996483905E+01 -0.11176424573E+03  0.43666682372E+02  0.12012154500E+03  0.41800000000E+01 0.  1.
         -5    1    4    4    0  501 -0.16642338220E+02  0.31042881371E+02  0.33515589470E+02  0.48799539370E+02  0.41800000000E+01 0.  1.
</event>
<event>
11    1  0.8864208E-009  0.1300289E+03  0.7561462E-02  0.1119233E+00
         22   -1    0    0    0    0  0.00000000000E+00  0.00000000000E+00  0.11388022457E+04  0.11388022457E+04  0.00000000000E+00 0. -1.
         22   -1    0    0    0    0 -0.00000000000E+00 -0.00000000000E+00 -0.10171311762E+04  0.10171311762E+04  0.00000000000E+00 0.  1.
        -24    2    1    2    0    0 -0.12497649949E+02 -0.28352100121E+02 -0.65593118099E+03  0.66156247497E+03  0.80368907274E+02 0.  0.
         25    2    1    2    0    0 -0.18420945546E+02  0.10633416219E+02 -0.34538816080E+03  0.36795578493E+03  0.12508428066E+03 0.  0.
         24    2    1    2    0    0  0.30918595495E+02  0.17718683902E+02  0.11229904113E+04  0.11264151620E+04  0.80210610834E+02 0.  0.
        -11    1    5    5    0    0 -0.13913188182E+02  0.16422756487E+02  0.93387329183E+02  0.95835677010E+02  0.00000000000E+00 0.  1.
         12    1    5    5    0    0  0.44831783677E+02  0.12959274146E+01  0.10296030821E+04  0.10305794850E+04  0.00000000000E+00 0. -1.
         11    1    3    3    0    0 -0.23604648244E+01 -0.52200809194E+02 -0.28669849164E+03  0.29142155271E+03  0.00000000000E+00 0. -1.
        -12    1    3    3    0    0 -0.10137185125E+02  0.23848709073E+02 -0.36923268935E+03  0.37014092226E+03  0.00000000000E+00 0.  1.
          5    1    4    4  501    0 -0.49297106616E+02 -0.39090548303E+02 -0.12656859011E+03  0.14140493658E+03  0.41800000000E+01 0.  1.
         -5    1    4    4    0  501  0.30876161070E+02  0.49723964522E+02 -0.21881957069E+03  0.22655084835E+03  0.41800000000E+01 0.  1.
</event>
<event>
11    1  0.8864208E-009  0.1418592E+03  0.7561462E-02  0.1105500E+00
         22   -1    0    0    0    0  0.00000000000E+00  0.00000000000E+00  0.26096427589E+03  0.26096427589E+03  0.00000000000E+00 0. -1.
         22   -1    0    0    0    0 -0.00000000000E+00 -0.00000000000E+00 -0.68771332347E+03  0.68771332347E+03  0.00000000000E+00 0.  1.
        -24    2    1    2    0    0 -0.34234119429E+02  0.33466018063E+02 -0.61035998321E+03  0.61742875826E+03  0.79918790755E+02 0.  0.
         25    2    1    2    0    0  0.23332120938E+02 -0.92347826832E+02  0.53666746302E+02  0.16613118059E+03  0.12508773128E+03 0.  0.
         24    2    1    2    0    0  0.10901998491E+02  0.58881808770E+02  0.12994418933E+03  0.16511766050E+03  0.82416190726E+02 0.  0.
        -11    1    5    5    0    0  0.31846398235E+02 -0.52262428843E+01  0.27149198180E+02  0.42173281317E+02  0.00000000000E+00 0.  1.
         12    1    5    5    0    0 -0.20944399744E+02  0.64108051654E+02  0.10279499115E+03  0.12294437919E+03  0.00000000000E+00 0. -1.
         13    1    3    3    0    0 -0.40418110534E+01  0.20181647488E+02 -0.31490908757E+02  0.37620638833E+02  0.00000000000E+00 0. -1.
        -14    1    3    3    0    0 -0.30192308375E+02  0.13284370575E+02 -0.57886907446E+03  0.57980811942E+03  0.00000000000E+00 0.  1.
          5    1    4    4  501    0  0.40452407094E+02 -0.49487463394E+02 -0.29812329480E+02  0.70651635947E+02  0.41800000000E+01 0.  1.
         -5    1    4    4    0  501 -0.17120286156E+02 -0.42860363438E+02  0.83479075782E+02  0.95479544644E+02  0.41800000000E+01 0.  1.
</event>
<event>
11    1  0.8864208E-009  0.1340623E+03  0.7561462E-02  0.1114376E+00
         22   -1    0    0    0    0  0.00000000000E+00  0.00000000000E+00  0.55113175882E+03  0.55113175882E+03  0.00000000000E+00 0.  1.
         22   -1    0    0    0    0 -0.00000000000E+00 -0.00000000000E+00 -0.74085316042E+03  0.74085316042E+03  0.00000000000E+00 0. -1.
        -24    2    1    2    0    0 -0.47798900145E+01 -0.36179300290E+02 -0.67094614251E+03  0.67647939385E+03  0.78255064030E+02 0.  0.
         25    2    1    2    0    0 -0.39275480096E+02  0.53952974323E+02  0.18230983810E+02  0.14294543859E+03  0.12509013898E+03 0.  0.
         24    2    1    2    0    0  0.44055370110E+02 -0.17773674033E+02  0.46299375709E+03  0.47256008679E+03  0.81810985811E+02 0.  0.
        -13    1    5    5    0    0  0.19962197185E+02 -0.25466585490E+01  0.42284312494E+03  0.42332172528E+03  0.00000000000E+00 0.  1.
         14    1    5    5    0    0  0.24093172925E+02 -0.15227015484E+02  0.40150632154E+02  0.49238361513E+02  0.00000000000E+00 0. -1.
         13    1    3    3    0    0 -0.11727263381E+02 -0.38099547685E+01 -0.57216862434E+03  0.57230147574E+03  0.00000000000E+00 0. -1.
        -14    1    3    3    0    0  0.69473733670E+01 -0.32369345521E+02 -0.98777518168E+02  0.10417791811E+03  0.00000000000E+00 0.  1.
          5    1    4    4  501    0 -0.50813472917E+02  0.77794777386E+02 -0.21068166924E+02  0.95369683212E+02  0.41800000000E+01 0. -1.
         -5    1    4    4    0  501  0.11537992821E+02 -0.23841803064E+02  0.39299150734E+02  0.47575755381E+02  0.41800000000E+01 0. -1.
</event>
<event>
11    1  0.8864208E-009  0.1510338E+03  0.7561462E-02  0.1095827E+00
         22   -1    0    0    0    0  0.00000000000E+00  0.00000000000E+00  0.29327471110E+03  0.29327471110E+03  0.00000000000E+00 0.  1.
         22   -1    0    0    0    0 -0.00000000000E+00 -0.00000000000E+00 -0.13541165152E+04  0.13541165152E+04  0.00000000000E+00 0.  1.
        -24    2    1    2    0    0 -0.74120858309E+02 -0.39865361083E+02 -0.12258097304E+04  0.12315285217E+04  0.83485662998E+02 0.  0.
         25    2    1    2    0    0  0.70099877196E+02  0.67433096110E+02 -0.63069447356E+02  0.17054067715E+03  0.12508058259E+03 0.  0.
         24    2    1    2    0    0  0.40209811126E+01 -0.27567735027E+02  0.22803737364E+03  0.24532202748E+03  0.86056406431E+02 0.  0.
        -11    1    5    5    0    0 -0.82717252322E+01 -0.57244579289E+02  0.15851345734E+03  0.16873612374E+03  0.00000000000E+00 0.  1.
         12    1    5    5    0    0  0.12292706345E+02  0.29676844262E+02  0.69523916299E+02  0.76585903744E+02  0.00000000000E+00 0. -1.
         13    1    3    3    0    0 -0.14130345610E+00 -0.32159141784E+02 -0.66904276926E+03  0.66981524129E+03  0.00000000000E+00 0. -1.
        -14    1    3    3    0    0 -0.73979554852E+02 -0.77062192985E+01 -0.55676696114E+03  0.56171328039E+03  0.00000000000E+00 0.  1.
          5    1    4    4  501    0  0.74341578159E+02  0.76198916660E+02 -0.91350036144E+02  0.14033975434E+03  0.41800000000E+01 0.  1.
         -5    1    4    4    0  501 -0.42417009627E+01 -0.87658205503E+01  0.28280588788E+02  0.30200922820E+02  0.41800000000E+01 0.  1.
</event>
<event>
11    1  0.8864208E-009  0.1331890E+03  0.7561462E-02  0.1115412E+00
         22   -1    0    0    0    0  0.00000000000E+00  0.00000000000E+00  0.46917047104E+03  0.46917047104E+03  0.00000000000E+00 0. -1.
         22   -1    0    0    0    0 -0.00000000000E+00 -0.00000000000E+00 -0.34414891654E+03  0.34414891654E+03  0.00000000000E+00 0.  1.
        -24    2    1    2    0    0 -0.31175478082E+02  0.33551614040E+02 -0.29179289731E+03  0.30697585835E+03  0.83626918209E+02 0.  0.
         25    2    1    2    0    0  0.29456677385E+02 -0.33808412021E+02  0.68563030416E+02  0.14952966594E+03  0.12509007671E+03 0.  0.
         24    2    1    2    0    0  0.17188006965E+01  0.25679798144E+00  0.34825142140E+03  0.35681386329E+03  0.77679214142E+02 0.  0.
        -13    1    5    5    0    0 -0.53271669330E+01 -0.11780569427E-01 -0.25747984195E+01  0.59167924769E+01  0.00000000000E+00 0.  1.
         14    1    5    5    0    0  0.70459676295E+01  0.26857855086E+00  0.35082621982E+03  0.35089707081E+03  0.00000000000E+00 0. -1.
         13    1    3    3    0    0  0.23985084662E+02  0.30164474739E+02 -0.14780646417E+03  0.15274793181E+03  0.00000000000E+00 0. -1.
        -14    1    3    3    0    0 -0.55160562744E+02  0.33871393010E+01 -0.14398643314E+03  0.15422792654E+03  0.00000000000E+00 0.  1.
          5    1    4    4  501    0 -0.25131852928E+01 -0.52543452542E+02 -0.17613361778E+02  0.55631227009E+02  0.41800000000E+01 0. -1.
         -5    1    4    4    0  501  0.31969862678E+02  0.18735040521E+02  0.86176392194E+02  0.93898438936E+02  0.41800000000E+01 0. -1.
</event>
<event>
11    1  0.8864208E-009  0.1448250E+03  0.7561462E-02  0.1102287E+00
         22   -1    0    0    0    0  0.00000000000E+00  0.00000000000E+00  0.24718560876E+03  0.24718560876E+03  0.00000000000E+00 0.  1.
         22   -1    0    0    0    0 -0.00000000000E+00 -0.00000000000E+00 -0.16744163180E+04  0.16744163180E+04  0.00000000000E+00 0.  1.
        -24    2    1    2    0    0  0.57970319866E+02 -0.41626424557E+02 -0.15050771748E+04  0.15087103060E+04  0.76525604379E+02 0.  0.
         25    2    1    2    0    0 -0.74427995584E+02  0.97224156291E+02 -0.10612822525E+03  0.20469388979E+03  0.12507727704E+03 0.  0.
         24    2    1    2    0    0  0.16457675719E+02 -0.55597731734E+02  0.18397469088E+03  0.20819773089E+03  0.78343126043E+02 0.  0.
        -13    1    5    5    0    0  0.29507787106E+02 -0.66921884652E+02  0.17274645355E+03  0.18759153861E+03  0.00000000000E+00 0.  1.
         14    1    5    5    0    0 -0.13050111388E+02  0.11324152918E+02  0.11228237335E+02  0.20606192278E+02  0.00000000000E+00 0. -1.
         13    1    3    3    0    0  0.11663160393E+02  0.76199821822E+01 -0.45889623068E+02  0.47957803787E+02  0.00000000000E+00 0. -1.
        -14    1    3    3    0    0  0.46307159472E+02 -0.49246406740E+02 -0.14591875518E+04  0.14607525023E+04  0.00000000000E+00 0.  1.
          5    1    4    4  501    0 -0.56214735884E+02  0.12301267484E+02  0.11081813972E+02  0.58751142228E+02  0.41800000000E+01 0. -1.
         -5    1    4    4    0  501 -0.18213259700E+02  0.84922888807E+02 -0.11721003922E+03  0.14594274757E+03  0.41800000000E+01 0. -1.
</event>
<event>
11    1  0.8864208E-009  0.1574495E+03  0.7561462E-02  0.1089501E+00
         22   -1    0    0    0    0  0.00000000000E+00  0.00000000000E+00  0.45647219130E+03  0.45647219130E+03  0.00000000000E+00 0. -1.
         22   -1    0    0    0    0 -0.00000000000E+00 -0.00000000000E+00 -0.32270493830E+04  0.32270493830E+04  0.00000000000E+00 0. -1.
        -24    2    1    2    0    0  0.24224728969E+01  0.94791748826E+02 -0.29920892205E+04  0.29946565759E+04  0.79867140208E+02 0.  0.
         25    2    1    2    0    0 -0.11820177124E+02 -0.11489329367E+03 -0.19805651996E+03  0.26117828802E+03  0.12509007762E+03 0.  0.
         24    2    1    2    0    0  0.93977042275E+01  0.20101544843E+02  0.41956854870E+03  0.42768671043E+03  0.79910989688E+02 0.  0.
        -11    1    5    5    0    0 -0.27179936233E+02  0.70601098723E+01  0.62575793918E+02  0.68588075272E+02  0.00000000000E+00 0.  1.
         12    1    5    5    0    0  0.36577640460E+02  0.13041434970E+02  0.35699275478E+03  0.35909863516E+03  0.00000000000E+00 0. -1.
         13    1    3    3    0    0  0.41846643414E+00  0.10928025509E+03 -0.26698200822E+04  0.26720556918E+04  0.00000000000E+00 0. -1.
        -14    1    3    3    0    0  0.20040064627E+01 -0.14488506269E+02 -0.32226913832E+03  0.32260088402E+03  0.00000000000E+00 0.  1.
          5    1    4    4  501    0 -0.34551337037E+02 -0.13479640347E+03 -0.17005816908E+03  0.21977515454E+03  0.41800000000E+01 0. -1.
         -5    1    4    4    0  501  0.22731159913E+02  0.19903109802E+02 -0.27998350873E+02  0.41403133485E+02  0.41800000000E+01 0. -1.
</event>
<event>
11    1  0.8864208E-009  0.1294430E+03  0.7561462E-02  0.1119955E+00
         22   -1    0    0    0    0  0.00000000000E+00  0.00000000000E+00  0.28874242676E+03  0.28874242676E+03  0.00000000000E+00 0. -1.
         22   -1    0    0    0    0 -0.00000000000E+00 -0.00000000000E+00 -0.57007159416E+03  0.57007159416E+03  0.00000000000E+00 0.  1.
         24    2    1    2    0    0  0.44394208725E+00  0.29003151719E+02 -0.35793812995E+03  0.36792672891E+03  0.80056187020E+02 0.  0.
         25    2    1    2    0    0  0.37572013057E+01 -0.52985707918E+02 -0.17790909632E+03  0.22387674568E+03  0.12509016306E+03 0.  0.
        -24    2    1    2    0    0 -0.42011433929E+01  0.23982556199E+02  0.25451805887E+03  0.26701054633E+03  0.76956981193E+02 0.  0.
        -11    1    3    3    0    0 -0.44264046363E+01  0.29614920070E+02 -0.36093539712E+03  0.36217536836E+03  0.00000000000E+00 0.  1.
         12    1    3    3    0    0  0.48703467235E+01 -0.61176835154E+00  0.29972671715E+01  0.57513605539E+01  0.00000000000E+00 0. -1.
         11    1    5    5    0    0  0.17799588553E+02  0.42930707307E+02  0.19903884940E+03  0.20439259906E+03  0.00000000000E+00 0. -1.
        -12    1    5    5    0    0 -0.22000731945E+02 -0.18948151108E+02  0.55479209475E+02  0.62617947271E+02  0.00000000000E+00 0.  1.
          5    1    4    4  501    0  0.61937654952E+01  0.41054227569E+02 -0.55771393493E+02  0.69654382952E+02  0.41800000000E+01 0. -1.
         -5    1    4    4    0  501 -0.24365641895E+01 -0.94039935487E+02 -0.12213770283E+03  0.15422236272E+03  0.41800000000E+01 0. -1.
</event>
<event>
11    1  0.8864208E-009  0.1553468E+03  0.7561462E-02  0.1091537E+00
         22   -1    0    0    0    0  0.00000000000E+00  0.00000000000E+00  0.27322196832E+03  0.27322196832E+03  0.00000000000E+00 0. -1.
         22   -1    0    0    0    0 -0.00000000000E+00 -0.00000000000E+00 -0.49802260918E+03  0.49802260918E+03  0.00000000000E+00 0.  1.
        -24    2    1    2    0    0 -0.98756703880E+02  0.64254058166E+01 -0.22793362782E+03  0.26276840339E+03  0.85436073916E+02 0.  0.
         25    2    1    2    0    0  0.68587908034E+02  0.87972233934E+02 -0.20485238344E+03  0.26468015742E+03  0.12509065377E+03 0.  0.
         24    2    1    2    0    0  0.30168795846E+02 -0.94397639750E+02  0.20798537039E+03  0.24379601669E+03  0.79734012946E+02 0.  0.
        -11    1    5    5    0    0 -0.83944301284E+01 -0.50854128838E+01 -0.39657866648E+01  0.10585619739E+02  0.00000000000E+00 0.  1.
         12    1    5    5    0    0  0.38563225974E+02 -0.89312226867E+02  0.21195115706E+03  0.23321039695E+03  0.00000000000E+00 0. -1.
         11    1    3    3    0    0 -0.34925812287E+02  0.21280645397E+02 -0.21548878447E+02  0.46228047706E+02  0.00000000000E+00 0. -1.
        -12    1    3    3    0    0 -0.63830891593E+02 -0.14855239580E+02 -0.20638474937E+03  0.21654035568E+03  0.00000000000E+00 0.  1.
          5    1    4    4  501    0  0.84642668431E+01  0.10441761414E+03 -0.13578230137E+03  0.17154879108E+03  0.41800000000E+01 0.  1.
         -5    1    4    4    0  501  0.60123641191E+02 -0.16445380203E+02 -0.69070082066E+02  0.93131366342E+02  0.41800000000E+01 0.  1.
</event>
<event>
11    1  0.8864208E-009  0.1861104E+03  0.7561462E-02  0.1064805E+00
         22   -1    0    0    0    0  0.00000000000E+00  0.00000000000E+00  0.25391561537E+03  0.25391561537E+03  0.00000000000E+00 0. -1.
         22   -1    0    0    0    0 -0.00000000000E+00 -0.00000000000E+00 -0.19322249573E+04  0.19322249573E+04  0.00000000000E+00 0. -1.
         24    2    1    2    0    0  0.16605543993E+02  0.84702999530E+02 -0.17636075257E+04  0.17673309187E+04  0.75476679790E+02 0.  0.
         25    2    1    2    0    0 -0.17136322252E+02 -0.20380138012E+03 -0.19567595798E+02  0.24053762321E+03  0.12508717479E+03 0.  0.
        -24    2    1    2    0    0  0.53077825857E+00  0.11909838059E+03  0.10486577959E+03  0.17827203076E+03  0.81236563430E+02 0.  0.
        -13    1    3    3    0    0  0.19422926759E+02 -0.63853353055E+01 -0.19254157284E+03  0.19362406839E+03  0.00000000000E+00 0.  1.
         14    1    3    3    0    0 -0.28173827655E+01  0.91088334836E+02 -0.15710659529E+04  0.15737068503E+04  0.00000000000E+00 0. -1.
         13    1    5    5    0    0  0.20384126475E+02  0.11974840232E+03  0.76189027185E+02  0.14338744831E+03  0.00000000000E+00 0. -1.
        -14    1    5    5    0    0 -0.19853348217E+02 -0.65002173620E+00  0.28676752410E+02  0.34884582446E+02  0.00000000000E+00 0.  1.
          5    1    4    4  501    0 -0.38784274827E+02 -0.19434617205E+03 -0.47382146342E+02  0.20380675837E+03  0.41800000000E+01 0. -1.
         -5    1    4    4    0  501  0.21647952575E+02 -0.94552080670E+01  0.27814550545E+02  0.36730864845E+02  0.41800000000E+01 0. -1.
</event>
<event>
11    1  0.8864208E-009  0.2188600E+03  0.7561462E-02  0.1041934E+00
         22   -1    0    0    0    0  0.00000000000E+00  0.00000000000E+00  0.81615767563E+03  0.81615767563E+03  0.00000000000E+00 0. -1.
         22   -1    0    0    0    0 -0.00000000000E+00 -0.00000000000E+00 -0.12330691073E+04  0.12330691073E+04  0.00000000000E+00 0.  1.
         24    2    1    2    0    0 -0.59336662118E+02  0.10341255170E+03 -0.10832933648E+04  0.10927778008E+04  0.80148689756E+02 0.  0.
         25    2    1    2    0    0  0.22990698675E+03 -0.12784915461E+03  0.30708432762E+02  0.29290261909E+03  0.12508520111E+03 0.  0.
        -24    2    1    2    0    0 -0.17057032463E+03  0.24436602909E+02  0.63567350038E+03  0.66354636299E+03  0.80756383948E+02 0.  0.
        -11    1    3    3    0    0 -0.46114210365E+02  0.11455646158E+03 -0.10073281484E+04  0.10148693029E+04  0.00000000000E+00 0.  1.
         12    1    3    3    0    0 -0.13222451753E+02 -0.11143909883E+02 -0.75965216349E+02  0.77908497950E+02  0.00000000000E+00 0. -1.
         13    1    5    5    0    0 -0.16636426731E+03  0.13143640421E+02  0.62665278512E+03  0.64849328278E+03  0.00000000000E+00 0. -1.
        -14    1    5    5    0    0 -0.42060573186E+01  0.11292962488E+02  0.90207152669E+01  0.15053080211E+02  0.00000000000E+00 0.  1.
          5    1    4    4  501    0  0.51183784655E+02 -0.41548020326E+02 -0.45557961901E+02  0.80243492554E+02  0.41800000000E+01 0.  1.
         -5    1    4    4    0  501  0.17872320209E+03 -0.86301134282E+02  0.76266394663E+02  0.21265912654E+03  0.41800000000E+01 0.  1.
</event>
<event>
11    1  0.1423593E-008  0.2075862E+03  0.7561462E-02  0.1049285E+00
         22   -1    0    0    0    0  0.00000000000E+00  0.00000000000E+00  0.44995762757E+03  0.44995762757E+03  0.00000000000E+00 0. -1.
         22   -1    0    0    0    0 -0.00000000000E+00 -0.00000000000E+00 -0.13806707317E+04  0.13806707317E+04  0.00000000000E+00 0. -1.
        -24    2    1    2    0    0  0.12282546926E+02  0.13345692709E+03 -0.99444798287E+03  0.10066543959E+04  0.80403170191E+02 0.  0.
         25    2    1    2    0    0 -0.13844531946E+03 -0.23262480925E+03 -0.29714912678E+03  0.42098328843E+03  0.12509163533E+03 0.  0.
         24    2    1    2    0    0  0.12616277253E+03  0.99167882159E+02  0.36088400552E+03  0.40299067495E+03  0.80080613316E+02 0.  0.
        -13    1    5    5    0    0  0.37699994343E+02 -0.83857176251E+01  0.58758987757E+02  0.70315207998E+02  0.00000000000E+00 0.  1.
         14    1    5    5    0    0  0.88462778190E+02  0.10755359978E+03  0.30212501777E+03  0.33267546695E+03  0.00000000000E+00 0. -1.
         13    1    3    3    0    0  0.84864250243E+01  0.73781757243E+02 -0.79431413566E+03  0.79777861166E+03  0.00000000000E+00 0. -1.
        -14    1    3    3    0    0  0.37961219014E+01  0.59675169846E+02 -0.20013384721E+03  0.20887578423E+03  0.00000000000E+00 0.  1.
          5    1    4    4  501    0 -0.47938332212E+02 -0.15728620241E+03 -0.10361120754E+03  0.19439595647E+03  0.41800000000E+01 0.  1.
         -5    1    4    4    0  501 -0.90506987246E+02 -0.75338606842E+02 -0.19353791924E+03  0.22658733196E+03  0.41800000000E+01 0.  1.
</event>
<event>
11    1  0.8864208E-009  0.4149579E+03  0.7561462E-02  0.9606626E-01
         22   -1    0    0    0    0  0.00000000000E+00  0.00000000000E+00  0.30728473004E+03  0.30728473004E+03  0.00000000000E+00 0. -1.
         22   -1    0    0    0    0 -0.00000000000E+00 -0.00000000000E+00 -0.75856450483E+03  0.75856450483E+03  0.00000000000E+00 0.  1.
         24    2    1    2    0    0  0.13456799729E+03  0.35488942755E+03 -0.34695988261E+03  0.52033730093E+03  0.79465054673E+02 0.  0.
         25    2    1    2    0    0 -0.15302970631E+03 -0.40034237600E+03 -0.10393101202E+03  0.45841102814E+03  0.12508759502E+03 0.  0.
        -24    2    1    2    0    0  0.18461709016E+02  0.45452948451E+02 -0.38888016811E+00  0.87100905804E+02  0.71969516752E+02 0.  0.
        -11    1    3    3    0    0  0.13942486265E+03  0.28167728710E+03 -0.28602640034E+03  0.42496174896E+03  0.00000000000E+00 0.  1.
         12    1    3    3    0    0 -0.48568653596E+01  0.73212140446E+02 -0.60933482274E+02  0.95375551961E+02  0.00000000000E+00 0. -1.
         11    1    5    5    0    0  0.30997296101E+02  0.96835797029E+01  0.25424512027E+02  0.41243301192E+02  0.00000000000E+00 0. -1.
        -12    1    5    5    0    0 -0.12535587084E+02  0.35769368748E+02 -0.25813392195E+02  0.45857604613E+02  0.00000000000E+00 0.  1.
          5    1    4    4  501    0  0.20504196185E+02 -0.69658572333E+02 -0.11140824366E+02  0.73582125059E+02  0.41800000000E+01 0. -1.
         -5    1    4    4    0  501 -0.17353390249E+03 -0.33068380366E+03 -0.92790187652E+02  0.38482890308E+03  0.41800000000E+01 0. -1.
</event>
<event>
11    1  0.8864208E-009  0.2668070E+03  0.7561462E-02  0.1015308E+00
         22   -1    0    0    0    0  0.00000000000E+00  0.00000000000E+00  0.22284376207E+03  0.22284376207E+03  0.00000000000E+00 0.  1.
         22   -1    0    0    0    0 -0.00000000000E+00 -0.00000000000E+00 -0.62719504451E+03  0.62719504451E+03  0.00000000000E+00 0.  1.
        -24    2    1    2    0    0  0.49797283250E+02 -0.62864362903E+02 -0.13986438426E+03  0.17996658061E+03  0.79963908183E+02 0.  0.
         25    2    1    2    0    0 -0.65924031667E+02  0.28306641877E+03 -0.29519469618E+03  0.43273391275E+03  0.12508459221E+03 0.  0.
         24    2    1    2    0    0  0.16126748417E+02 -0.22020205587E+03  0.30707797997E+02  0.23733831321E+03  0.81470783937E+02 0.  0.
        -11    1    5    5    0    0  0.15356976815E+02 -0.22289371904E+03  0.17799623406E+02  0.22413003663E+03  0.00000000000E+00 0.  1.
         12    1    5    5    0    0  0.76977160173E+00  0.26916631729E+01  0.12908174591E+02  0.13208276581E+02  0.00000000000E+00 0. -1.
         13    1    3    3    0    0  0.66432025702E+01 -0.18102883106E+02  0.69749966334E+01  0.20506025826E+02  0.00000000000E+00 0. -1.
        -14    1    3    3    0    0  0.43154080680E+02 -0.44761479797E+02 -0.14683938089E+03  0.15946055479E+03  0.00000000000E+00 0.  1.
          5    1    4    4  501    0 -0.76395447557E+01  0.16942510637E+03 -0.23911869298E+03  0.29318671703E+03  0.41800000000E+01 0.  1.
         -5    1    4    4    0  501 -0.58284486911E+02  0.11364131240E+03 -0.56076003198E+02  0.13954719572E+03  0.41800000000E+01 0.  1.
</event>
<event>
11    1  0.8864208E-009  0.1525331E+03  0.7561462E-02  0.1094318E+00
         22   -1    0    0    0    0  0.00000000000E+00  0.00000000000E+00  0.10078176250E+04  0.10078176250E+04  0.00000000000E+00 0.  1.
         22   -1    0    0    0    0 -0.00000000000E+00 -0.00000000000E+00 -0.86151179895E+03  0.86151179895E+03  0.00000000000E+00 0.  1.
         24    2    1    2    0    0 -0.23842567388E+01  0.14680213262E+02 -0.82304678194E+03  0.82733968330E+03  0.82847769805E+02 0.  0.
         25    2    1    2    0    0 -0.64339861545E+02  0.43436506002E+02  0.13379669660E+03  0.19892582568E+03  0.12507429897E+03 0.  0.
        -24    2    1    2    0    0  0.66724118284E+02 -0.58116719264E+02  0.83555591142E+03  0.84306391500E+03  0.69089960473E+02 0.  0.
        -13    1    3    3    0    0 -0.37952513806E+02 -0.69434527947E+00 -0.57830281583E+03  0.57954725624E+03  0.00000000000E+00 0.  1.
         14    1    3    3    0    0  0.35568257067E+02  0.15374558541E+02 -0.24474396611E+03  0.24779242706E+03  0.00000000000E+00 0. -1.
         13    1    5    5    0    0  0.56847629135E+02 -0.37582371392E+02  0.32839352698E+03  0.33538991657E+03  0.00000000000E+00 0. -1.
        -14    1    5    5    0    0  0.98764891485E+01 -0.20534347872E+02  0.50716238444E+03  0.50767399842E+03  0.00000000000E+00 0.  1.
          5    1    4    4  501    0 -0.73857020838E+02  0.13187555412E+02  0.15949998615E+02  0.76815662470E+02  0.41800000000E+01 0. -1.
         -5    1    4    4    0  501  0.95171592935E+01  0.30248950590E+02  0.11784669798E+03  0.12211016321E+03  0.41800000000E+01 0. -1.
</event>
<event>
11    1  0.8864208E-009  0.2129236E+03  0.7561462E-02  0.1045743E+00
         22   -1    0    0    0    0  0.00000000000E+00  0.00000000000E+00  0.64885642955E+03  0.64885642955E+03  0.00000000000E+00 0. -1.
         22   -1    0    0    0    0 -0.00000000000E+00 -0.00000000000E+00 -0.50296296888E+03  0.50296296888E+03  0.00000000000E+00 0. -1.
         24    2    1    2    0    0  0.17123168292E+03 -0.96471793893E+00 -0.42255000676E+03  0.46292789066E+03  0.80202891643E+02 0.  0.
         25    2    1    2    0    0 -0.18407970930E+03 -0.89109124382E+01  0.16576602317E+03  0.27765246127E+03  0.12509105115E+03 0.  0.
        -24    2    1    2    0    0  0.12848026379E+02  0.98756303771E+01  0.40267744425E+03  0.41123904649E+03  0.81889128630E+02 0.  0.
        -13    1    3    3    0    0  0.25902020517E+01 -0.16864611526E+02 -0.66258229823E+02  0.68419860332E+02  0.00000000000E+00 0.  1.
         14    1    3    3    0    0  0.16864148087E+03  0.15899893587E+02 -0.35629177693E+03  0.39450803033E+03  0.00000000000E+00 0. -1.
         11    1    5    5    0    0  0.42636123150E+02  0.24747728619E+02  0.26883429116E+03  0.27331696833E+03  0.00000000000E+00 0. -1.
        -12    1    5    5    0    0 -0.29788096772E+02 -0.14872098241E+02  0.13384315309E+03  0.13792207816E+03  0.00000000000E+00 0.  1.
          5    1    4    4  501    0  0.14125649468E+02  0.13078851347E+02  0.31689366078E+02  0.37313250299E+02  0.41800000000E+01 0. -1.
         -5    1    4    4    0  501 -0.19820535877E+03 -0.21989763786E+02  0.13407665709E+03  0.24033921098E+03  0.41800000000E+01 0. -1.
</event>
<event>
11    1  0.8864208E-009  0.1363868E+03  0.7561462E-02  0.1111662E+00
         22   -1    0    0    0    0  0.00000000000E+00  0.00000000000E+00  0.52544247670E+03  0.52544247670E+03  0.00000000000E+00 0. -1.
         22   -1    0    0    0    0 -0.00000000000E+00 -0.00000000000E+00 -0.18200388081E+03  0.18200388081E+03  0.00000000000E+00 0.  1.
         24    2    1    2    0    0 -0.11423755278E+02  0.50911300618E+02 -0.89466504485E+02  0.13090755088E+03  0.80062904884E+02 0.  0.
         25    2    1    2    0    0 -0.45819977201E+01 -0.63745628968E+02  0.33830270008E+01  0.14051108772E+03  0.12508965179E+03 0.  0.
        -24    2    1    2    0    0  0.16005752998E+02  0.12834328349E+02  0.42952207337E+03  0.43602771890E+03  0.72180717833E+02 0.  0.
        -11    1    3    3    0    0  0.28505996439E+02  0.39705690430E+02 -0.26752121140E+02  0.55720819009E+02  0.00000000000E+00 0.  1.
         12    1    3    3    0    0 -0.39929751717E+02  0.11205610188E+02 -0.62714383345E+02  0.75186731876E+02  0.00000000000E+00 0. -1.
         13    1    5    5    0    0  0.42619601297E+02 -0.26700623299E+01  0.29145574147E+03  0.29456749461E+03  0.00000000000E+00 0. -1.
        -14    1    5    5    0    0 -0.26613848299E+02  0.15504390679E+02  0.13806633190E+03  0.14146022429E+03  0.00000000000E+00 0.  1.
          5    1    4    4  501    0 -0.47663538245E+02  0.12951057790E+02 -0.12267683665E+02  0.51063795770E+02  0.41800000000E+01 0.  1.
         -5    1    4    4    0  501  0.43081540525E+02 -0.76696686758E+02  0.15650710666E+02  0.89447291954E+02  0.41800000000E+01 0.  1.
</event>
<event>
11    1  0.8864208E-009  0.2530019E+03  0.7561462E-02  0.1022312E+00
         22   -1    0    0    0    0  0.00000000000E+00  0.00000000000E+00  0.29560247122E+03  0.29560247122E+03  0.00000000000E+00 0. -1.
         22   -1    0    0    0    0 -0.00000000000E+00 -0.00000000000E+00 -0.77965189501E+03  0.77965189501E+03  0.00000000000E+00 0.  1.
         24    2    1    2    0    0  0.95287479576E+01  0.84894069620E+02 -0.49998146867E+03  0.51355577836E+03  0.80375794711E+02 0.  0.
         25    2    1    2    0    0 -0.13890621423E+03 -0.24086770077E+03 -0.96260563532E+02  0.31972754453E+03  0.12508965191E+03 0.  0.
        -24    2    1    2    0    0  0.12937746627E+03  0.15597363115E+03  0.11219260842E+03  0.24197104334E+03  0.69975010104E+02 0.  0.
        -13    1    3    3    0    0  0.75563245742E+00  0.99346817798E+02 -0.39990001254E+03  0.41205628404E+03  0.00000000000E+00 0.  1.
         14    1    3    3    0    0  0.87731155002E+01 -0.14452748178E+02 -0.10008145613E+03  0.10149949432E+03  0.00000000000E+00 0. -1.
         13    1    5    5    0    0  0.12829494431E+03  0.11221142541E+03  0.85324125617E+02  0.19060745825E+03  0.00000000000E+00 0. -1.
        -14    1    5    5    0    0  0.10825219575E+01  0.43762205747E+02  0.26868482802E+02  0.51363585094E+02  0.00000000000E+00 0.  1.
          5    1    4    4  501    0  0.10471084470E+02 -0.95446810300E+02 -0.24173590933E+02  0.99103845056E+02  0.41800000000E+01 0.  1.
         -5    1    4    4    0  501 -0.14937729870E+03 -0.14542089047E+03 -0.72086972599E+02  0.22062369948E+03  0.41800000000E+01 0.  1.
</event>
<event>
11    1  0.8864208E-009  0.1505414E+03  0.7561462E-02  0.1096327E+00
         22   -1    0    0    0    0  0.00000000000E+00  0.00000000000E+00  0.49175581789E+03  0.49175581789E+03  0.00000000000E+00 0.  1.
         22   -1    0    0    0    0 -0.00000000000E+00 -0.00000000000E+00 -0.18813168746E+04  0.18813168746E+04  0.00000000000E+00 0.  1.
        -24    2    1    2    0    0  0.86177744203E+02  0.28136643205E+01 -0.16049013558E+04  0.16091997550E+04  0.79880970420E+02 0.  0.
         25    2    1    2    0    0 -0.60408758481E+02 -0.31423609359E+02 -0.24900170498E+03  0.28685839429E+03  0.12509687432E+03 0.  0.
         24    2    1    2    0    0 -0.25768985722E+02  0.28609945039E+02  0.46434200402E+03  0.47701454321E+03  0.10220962848E+03 0.  0.
        -13    1    5    5    0    0 -0.20332010006E+02  0.66718022544E+02  0.26745729494E+03  0.27640204373E+03  0.00000000000E+00 0.  1.
         14    1    5    5    0    0 -0.54369757156E+01 -0.38108077505E+02  0.19688470909E+03  0.20061249948E+03  0.00000000000E+00 0. -1.
         13    1    3    3    0    0 -0.20363212443E+01  0.23161031131E+02 -0.52332038521E+03  0.52383662104E+03  0.00000000000E+00 0. -1.
        -14    1    3    3    0    0  0.88214065447E+02 -0.20347366810E+02 -0.10815809706E+04  0.10853631340E+04  0.00000000000E+00 0.  1.
          5    1    4    4  501    0 -0.84019351559E+02 -0.89161620201E+01 -0.86226023883E+02  0.12079382839E+03  0.41800000000E+01 0. -1.
         -5    1    4    4    0  501  0.23610593078E+02 -0.22507447339E+02 -0.16277568110E+03  0.16606456590E+03  0.41800000000E+01 0. -1.
</event>
<event>
11    1  0.8864208E-009  0.1567534E+03  0.7561462E-02  0.1090171E+00
         22   -1    0    0    0    0  0.00000000000E+00  0.00000000000E+00  0.60256637176E+03  0.60256637176E+03  0.00000000000E+00 0. -1.
         22   -1    0    0    0    0 -0.00000000000E+00 -0.00000000000E+00 -0.52042886993E+03  0.52042886993E+03  0.00000000000E+00 0. -1.
         24    2    1    2    0    0  0.82678985330E+02 -0.52264057458E+02 -0.47634337013E+03  0.49305171172E+03  0.81422588029E+02 0.  0.
         25    2    1    2    0    0 -0.39149688137E+02  0.61802352139E+01  0.11535021799E+03  0.17470930539E+03  0.12508707052E+03 0.  0.
        -24    2    1    2    0    0 -0.43529297192E+02  0.46083822244E+02  0.44313065397E+03  0.45523422458E+03  0.82794349799E+02 0.  0.
        -11    1    3    3    0    0  0.37847613676E+02 -0.24460054655E+02 -0.69687799207E+02  0.82988707021E+02  0.00000000000E+00 0.  1.
         12    1    3    3    0    0  0.44831371654E+02 -0.27804002803E+02 -0.40665557092E+03  0.41006300469E+03  0.00000000000E+00 0. -1.
         11    1    5    5    0    0 -0.60060883385E+02  0.28309813016E+02  0.19656532610E+03  0.20747694486E+03  0.00000000000E+00 0. -1.
        -12    1    5    5    0    0  0.16531586193E+02  0.17774009229E+02  0.24656532787E+03  0.24775727972E+03  0.00000000000E+00 0.  1.
          5    1    4    4  501    0 -0.54446207641E+02 -0.26890502085E+02  0.81534953584E+01  0.61412055131E+02  0.41800000000E+01 0. -1.
         -5    1    4    4    0  501  0.15296519504E+02  0.33070737299E+02  0.10719672263E+03  0.11329725026E+03  0.41800000000E+01 0. -1.
</event>
<event>
11    1  0.8864208E-009  0.1979903E+03  0.7561462E-02  0.1055954E+00
         22   -1    0    0    0    0  0.00000000000E+00  0.00000000000E+00  0.16123379549E+03  0.16123379549E+03  0.00000000000E+00 0. -1.
         22   -1    0    0    0    0 -0.00000000000E+00 -0.00000000000E+00 -0.87242553358E+03  0.87242553358E+03  0.00000000000E+00 0.  1.
        -24    2    1    2    0    0  0.14875439833E+03 -0.43072139885E+02 -0.72043199301E+03  0.74131595880E+03  0.80895079976E+02 0.  0.
         25    2    1    2    0    0 -0.11781764615E+03  0.94964653411E+02 -0.48909088540E+01  0.19639358321E+03  0.12508890996E+03 0.  0.
         24    2    1    2    0    0 -0.30936752177E+02 -0.51892513526E+02  0.14131163776E+02  0.95949787051E+02  0.73189864394E+02 0.  0.
        -11    1    5    5    0    0 -0.54178037225E+02 -0.45245014775E+02  0.12822604330E+02  0.71741133677E+02  0.00000000000E+00 0.  1.
         12    1    5    5    0    0  0.23241285048E+02 -0.66474987516E+01  0.13085594462E+01  0.24208653373E+02  0.00000000000E+00 0. -1.
         11    1    3    3    0    0  0.68710166096E+01  0.14480111506E+02 -0.14424057888E+03  0.14512831941E+03  0.00000000000E+00 0. -1.
        -12    1    3    3    0    0  0.14188338172E+03 -0.57552251391E+02 -0.57619141413E+03  0.59618763939E+03  0.00000000000E+00 0.  1.
          5    1    4    4  501    0 -0.82596268372E+02  0.24760066972E+02 -0.55714955007E+02  0.10274645043E+03  0.41800000000E+01 0. -1.
         -5    1    4    4    0  501 -0.35221377777E+02  0.70204586439E+02  0.50824046153E+02  0.93647132775E+02  0.41800000000E+01 0. -1.
</event>
<event>
11    1  0.8864208E-009  0.1732357E+03  0.7561462E-02  0.1075250E+00
         22   -1    0    0    0    0  0.00000000000E+00  0.00000000000E+00  0.19688530707E+04  0.19688530707E+04  0.00000000000E+00 0. -1.
         22   -1    0    0    0    0 -0.00000000000E+00 -0.00000000000E+00 -0.59556766068E+03  0.59556766068E+03  0.00000000000E+00 0. -1.
        -24    2    1    2    0    0  0.45891511716E+00 -0.25929312691E+02 -0.47132022518E+03  0.47889039770E+03  0.80750965865E+02 0.  0.
         25    2    1    2    0    0 -0.90997615970E+02  0.10386884182E+03 -0.44033162985E+02  0.19145107764E+03  0.12508114676E+03 0.  0.
         24    2    1    2    0    0  0.90538700853E+02 -0.77939529131E+02  0.18886387982E+04  0.18940792560E+04  0.79422236222E+02 0.  0.
        -11    1    5    5    0    0  0.86888857972E+02 -0.43319306773E+02  0.98577882466E+03  0.99054839717E+03  0.00000000000E+00 0.  1.
         12    1    5    5    0    0  0.36498428818E+01 -0.34620222358E+02  0.90285997352E+03  0.90353085887E+03  0.00000000000E+00 0. -1.
         13    1    3    3    0    0 -0.14641700853E+01 -0.36212056403E+02 -0.46552070754E+03  0.46692931582E+03  0.00000000000E+00 0. -1.
        -14    1    3    3    0    0  0.19230852025E+01  0.10282743712E+02 -0.57995176389E+01  0.11961081882E+02  0.00000000000E+00 0.  1.
          5    1    4    4  501    0 -0.76434673671E+02  0.12079387047E+03 -0.12508294357E+01  0.14301208150E+03  0.41800000000E+01 0.  1.
         -5    1    4    4    0  501 -0.14562942300E+02 -0.16925028646E+02 -0.42782333550E+02  0.48438996140E+02  0.41800000000E+01 0.  1.
</event>
<event>
11    1  0.8864208E-009  0.1384334E+03  0.7561462E-02  0.1109320E+00
         22   -1    0    0    0    0  0.00000000000E+00  0.00000000000E+00  0.51365060997E+03  0.51365060997E+03  0.00000000000E+00 0.  1.
         22   -1    0    0    0    0 -0.00000000000E+00 -0.00000000000E+00 -0.24700303057E+03  0.24700303057E+03  0.00000000000E+00 0. -1.
        -24    2    1    2    0    0 -0.45310481348E+02 -0.30015101987E+02 -0.12573784980E+03  0.15715802722E+03  0.77036955942E+02 0.  0.
         25    2    1    2    0    0  0.45968451068E+02  0.65585052439E+02 -0.46912036827E+02  0.15578854743E+03  0.12511928195E+03 0.  0.
         24    2    1    2    0    0 -0.65796972009E+00 -0.35569950452E+02  0.43929746603E+03  0.44770706589E+03  0.78700056460E+02 0.  0.
        -11    1    5    5    0    0  0.16992244391E+02 -0.15539591544E+02  0.39714137751E+03  0.39780835713E+03  0.00000000000E+00 0.  1.
         12    1    5    5    0    0 -0.17650214111E+02 -0.20030358908E+02  0.42156088522E+02  0.49898708757E+02  0.00000000000E+00 0. -1.
         13    1    3    3    0    0 -0.42119525532E+02 -0.43342554575E+02 -0.12953261417E+03  0.14293820204E+03  0.00000000000E+00 0. -1.
        -14    1    3    3    0    0 -0.31909558151E+01  0.13327452588E+02  0.37947643751E+01  0.14219825180E+02  0.00000000000E+00 0.  1.
          5    1    4    4  501    0  0.14327172649E+02  0.64763967712E+02  0.29695950479E+02  0.72793964480E+02  0.41800000000E+01 0.  1.
         -5    1    4    4    0  501  0.31641278419E+02  0.82108472657E+00 -0.76607987306E+02  0.82994582951E+02  0.41800000000E+01 0.  1.
</event>
<event>
11    1  0.8864208E-009  0.1337387E+03  0.7561462E-02  0.1114759E+00
         22   -1    0    0    0    0  0.00000000000E+00  0.00000000000E+00  0.19152736510E+03  0.19152736510E+03  0.00000000000E+00 0.  1.
         22   -1    0    0    0    0 -0.00000000000E+00 -0.00000000000E+00 -0.47655406115E+03  0.47655406115E+03  0.00000000000E+00 0. -1.
         24    2    1    2    0    0 -0.25717527182E+02 -0.18616890667E+02 -0.39471693973E+03  0.40402579222E+03  0.80171057426E+02 0.  0.
         25    2    1    2    0    0 -0.27435795081E+02  0.38471816423E+01  0.15975584855E+02  0.12911425936E+03  0.12509096291E+03 0.  0.
        -24    2    1    2    0    0  0.53153322262E+02  0.14769709025E+02  0.93714658817E+02  0.13494137467E+03  0.79895665399E+02 0.  0.
        -13    1    3    3    0    0 -0.49940188574E+02  0.70025936531E+01 -0.20959518844E+03  0.21557644067E+03  0.00000000000E+00 0.  1.
         14    1    3    3    0    0  0.24222661392E+02 -0.25619484320E+02 -0.18512175128E+03  0.18844935155E+03  0.00000000000E+00 0. -1.
         13    1    5    5    0    0 -0.20536304421E+01  0.36428095566E+02  0.46697292521E+02  0.59260954037E+02  0.00000000000E+00 0. -1.
        -14    1    5    5    0    0  0.55206952705E+02 -0.21658386541E+02  0.47017366296E+02  0.75680420638E+02  0.00000000000E+00 0.  1.
          5    1    4    4  501    0 -0.74248867975E+02  0.20101832858E+02  0.18824220466E+02  0.79301965650E+02  0.41800000000E+01 0.  1.
         -5    1    4    4    0  501  0.46813072895E+02 -0.16254651216E+02 -0.28486356101E+01  0.49812293712E+02  0.41800000000E+01 0.  1.
</event>
<event>
11    1  0.8864208E-009  0.1838178E+03  0.7561462E-02  0.1066596E+00
         22   -1    0    0    0    0  0.00000000000E+00  0.00000000000E+00  0.94433177779E+03  0.94433177779E+03  0.00000000000E+00 0.  1.
         22   -1    0    0    0    0 -0.00000000000E+00 -0.00000000000E+00 -0.40595770494E+03  0.40595770494E+03  0.00000000000E+00 0.  1.
        -24    2    1    2    0    0  0.13669374202E+03 -0.11401683593E+02 -0.31613484404E+03  0.35345922511E+03  0.78593935547E+02 0.  0.
         25    2    1    2    0    0 -0.12086524126E+03 -0.47581064256E+01  0.40229659065E+02  0.17859638964E+03  0.12508876369E+03 0.  0.
         24    2    1    2    0    0 -0.15828500764E+02  0.16159790018E+02  0.81427925783E+03  0.81823386797E+03  0.77099109696E+02 0.  0.
        -13    1    5    5    0    0 -0.30780873046E+02 -0.84417768907E+01  0.68692848608E+03  0.68766959416E+03  0.00000000000E+00 0.  1.
         14    1    5    5    0    0  0.14952372282E+02  0.24601566909E+02  0.12735077175E+03  0.13056427381E+03  0.00000000000E+00 0. -1.
         13    1    3    3    0    0  0.60766871144E+02 -0.35426643117E+02 -0.93458984697E+02  0.11697111392E+03  0.00000000000E+00 0. -1.
        -14    1    3    3    0    0  0.75926870878E+02  0.24024959524E+02 -0.22267585934E+03  0.23648811119E+03  0.00000000000E+00 0.  1.
          5    1    4    4  501    0 -0.13160963031E+03 -0.33490659001E+02  0.11489203370E+02  0.13635319294E+03  0.41800000000E+01 0. -1.
         -5    1    4    4    0  501  0.10744389055E+02  0.28732552575E+02  0.28740455695E+02  0.42243196697E+02  0.41800000000E+01 0. -1.
</event>
<event>
11    1  0.8864208E-009  0.1625832E+03  0.7561462E-02  0.1084673E+00
         22   -1    0    0    0    0  0.00000000000E+00  0.00000000000E+00  0.36052030320E+03  0.36052030320E+03  0.00000000000E+00 0. -1.
         22   -1    0    0    0    0 -0.00000000000E+00 -0.00000000000E+00 -0.55467170873E+03  0.55467170873E+03  0.00000000000E+00 0.  1.
        -24    2    1    2    0    0  0.63212519908E+02  0.80813230863E+02 -0.44153182437E+03  0.46072062119E+03  0.82380446119E+02 0.  0.
         25    2    1    2    0    0 -0.10378658598E+03 -0.62616391052E+02 -0.16426620752E+02  0.17495614935E+03  0.12508937792E+03 0.  0.
         24    2    1    2    0    0  0.40574066069E+02 -0.18196839812E+02  0.26380703959E+03  0.27951524139E+03  0.80976763429E+02 0.  0.
        -13    1    5    5    0    0  0.62829239925E+01  0.31405083950E+02  0.86993055084E+02  0.92701381137E+02  0.00000000000E+00 0.  1.
         14    1    5    5    0    0  0.34291142077E+02 -0.49601923762E+02  0.17681398451E+03  0.18681386026E+03  0.00000000000E+00 0. -1.
         11    1    3    3    0    0  0.68847096404E+02  0.22756623214E+02 -0.22018055705E+03  0.23181299422E+03  0.00000000000E+00 0. -1.
        -12    1    3    3    0    0 -0.56345764959E+01  0.58056607649E+02 -0.22135126732E+03  0.22890762697E+03  0.00000000000E+00 0.  1.
          5    1    4    4  501    0 -0.16977107130E+02 -0.36532515362E+02  0.48643234782E+02  0.63296789296E+02  0.41800000000E+01 0.  1.
         -5    1    4    4    0  501 -0.86809478848E+02 -0.26083875690E+02 -0.65069855533E+02  0.11165936006E+03  0.41800000000E+01 0.  1.
</event>
<event>
11    1  0.8864208E-009  0.1968603E+03  0.7561462E-02  0.1056766E+00
         22   -1    0    0    0    0  0.00000000000E+00  0.00000000000E+00  0.45723562114E+03  0.45723562114E+03  0.00000000000E+00 0. -1.
         22   -1    0    0    0    0 -0.00000000000E+00 -0.00000000000E+00 -0.24679566746E+03  0.24679566746E+03  0.00000000000E+00 0. -1.
        -24    2    1    2    0    0  0.12448664116E+03  0.10980262447E+03 -0.11149559118E+03  0.21539041283E+03  0.80051376754E+02 0.  0.
         25    2    1    2    0    0 -0.82659900258E+02 -0.94134870489E+02  0.25241389984E+02  0.17882546053E+03  0.12508950640E+03 0.  0.
         24    2    1    2    0    0 -0.41826740899E+02 -0.15667753980E+02  0.29669415487E+03  0.30981541525E+03  0.77221857141E+02 0.  0.
        -11    1    5    5    0    0  0.10027871661E+02 -0.32996283377E+02  0.11978507694E+03  0.12465062208E+03  0.00000000000E+00 0.  1.
         12    1    5    5    0    0 -0.51854612560E+02  0.17328529397E+02  0.17690907793E+03  0.18516479316E+03  0.00000000000E+00 0. -1.
         13    1    3    3    0    0  0.33143824490E+02 -0.79526078361E+01 -0.30680617797E+02  0.45859103585E+02  0.00000000000E+00 0. -1.
        -14    1    3    3    0    0  0.91342816667E+02  0.11775523230E+03 -0.80814973382E+02  0.16953130925E+03  0.00000000000E+00 0.  1.
          5    1    4    4  501    0 -0.70741683779E+02  0.10501713390E+02  0.10170430834E+02  0.72357320786E+02  0.41800000000E+01 0.  1.
         -5    1    4    4    0  501 -0.11918216479E+02 -0.10463658388E+03  0.15070959150E+02  0.10646813974E+03  0.41800000000E+01 0.  1.
</event>
<event>
11    1  0.8864208E-009  0.1730775E+03  0.7561462E-02  0.1075384E+00
         22   -1    0    0    0    0  0.00000000000E+00  0.00000000000E+00  0.17469252839E+04  0.17469252839E+04  0.00000000000E+00 0. -1.
         22   -1    0    0    0    0 -0.00000000000E+00 -0.00000000000E+00 -0.41126655847E+03  0.41126655847E+03  0.00000000000E+00 0.  1.
        -24    2    1    2    0    0  0.15864851453E+01  0.12101459461E+03 -0.36936279649E+03  0.39726671711E+03  0.82127462191E+02 0.  0.
         25    2    1    2    0    0  0.26627998781E+02 -0.95606121086E+02  0.21294410103E+03  0.26616263134E+03  0.12509106862E+03 0.  0.
         24    2    1    2    0    0 -0.28214483926E+02 -0.25408473528E+02  0.14920774209E+04  0.14947624939E+04  0.81106323207E+02 0.  0.
        -11    1    5    5    0    0 -0.52480111769E+02 -0.13128614688E+02  0.12485141859E+04  0.12496856385E+04  0.00000000000E+00 0.  1.
         12    1    5    5    0    0  0.24265627842E+02 -0.12279858840E+02  0.24356323500E+03  0.24507685544E+03  0.00000000000E+00 0. -1.
         11    1    3    3    0    0  0.16257451481E+01 -0.52273912428E+01 -0.96062893168E+02  0.96218751344E+02  0.00000000000E+00 0. -1.
        -12    1    3    3    0    0 -0.39260002757E-01  0.12624198586E+03 -0.27329990333E+03  0.30104796577E+03  0.00000000000E+00 0.  1.
          5    1    4    4  501    0 -0.41372149997E+02 -0.15600471446E+01  0.39109801895E+02  0.57106370456E+02  0.41800000000E+01 0. -1.
         -5    1    4    4    0  501  0.68000148778E+02 -0.94046073942E+02  0.17383429913E+03  0.20905626088E+03  0.41800000000E+01 0. -1.
</event>
<event>
11    1  0.8864208E-009  0.2481940E+03  0.7561462E-02  0.1024866E+00
         22   -1    0    0    0    0  0.00000000000E+00  0.00000000000E+00  0.98388412864E+03  0.98388412864E+03  0.00000000000E+00 0. -1.
         22   -1    0    0    0    0 -0.00000000000E+00 -0.00000000000E+00 -0.99154426798E+02  0.99154426798E+02  0.00000000000E+00 0. -1.
         24    2    1    2    0    0  0.20500517060E+03  0.78298560396E+02  0.15864754792E+03  0.28190831350E+03  0.78393036857E+02 0.  0.
         25    2    1    2    0    0 -0.16910240727E+03 -0.11592794247E+03  0.56324341143E+03  0.61231200444E+03  0.12509171946E+03 0.  0.
        -24    2    1    2    0    0 -0.35902763335E+02  0.37629382078E+02  0.16283874250E+03  0.18881823750E+03  0.80192842206E+02 0.  0.
        -13    1    3    3    0    0  0.43178766734E+02 -0.10772268274E+02  0.12102637526E+02  0.46118559123E+02  0.00000000000E+00 0.  1.
         14    1    3    3    0    0  0.16182640387E+03  0.89070828670E+02  0.14654491039E+03  0.23578975438E+03  0.00000000000E+00 0. -1.
         13    1    5    5    0    0 -0.13854781208E+02 -0.23769175606E+02  0.71196275128E+02  0.76327179061E+02  0.00000000000E+00 0. -1.
        -14    1    5    5    0    0 -0.22047982126E+02  0.61398557684E+02  0.91642467373E+02  0.11249105843E+03  0.00000000000E+00 0.  1.
          5    1    4    4  501    0 -0.12217133968E+03 -0.48927432366E+02  0.19652258844E+03  0.23655513109E+03  0.41800000000E+01 0. -1.
         -5    1    4    4    0  501 -0.46931067587E+02 -0.67000510107E+02  0.36672082299E+03  0.37575687336E+03  0.41800000000E+01 0. -1.
</event>
<event>
11    1  0.8864208E-009  0.1422797E+03  0.7561462E-02  0.1105039E+00
         22   -1    0    0    0    0  0.00000000000E+00  0.00000000000E+00  0.34534184178E+04  0.34534184178E+04  0.00000000000E+00 0. -1.
         22   -1    0    0    0    0 -0.00000000000E+00 -0.00000000000E+00 -0.17374411763E+03  0.17374411763E+03  0.00000000000E+00 0. -1.
         24    2    1    2    0    0  0.24568343350E+02 -0.11032564942E+02 -0.15647075233E+03  0.17782470518E+03  0.80082510274E+02 0.  0.
         25    2    1    2    0    0  0.25512273952E+02  0.59038132980E+02  0.89674488998E+03  0.90770853970E+03  0.12508804126E+03 0.  0.
        -24    2    1    2    0    0 -0.50080617303E+02 -0.48005568037E+02  0.25394001625E+04  0.25416292905E+04  0.80707264000E+02 0.  0.
        -13    1    3    3    0    0  0.49060202859E+02  0.61785584215E+01 -0.65589759906E+02  0.82140700589E+02  0.00000000000E+00 0.  1.
         14    1    3    3    0    0 -0.24491859509E+02 -0.17211123364E+02 -0.90880992424E+02  0.95684004586E+02  0.00000000000E+00 0. -1.
         13    1    5    5    0    0 -0.53404442250E+02 -0.23385068478E+02  0.23345898453E+04  0.23353176747E+04  0.00000000000E+00 0. -1.
        -14    1    5    5    0    0  0.33238249470E+01 -0.24620499559E+02  0.20481031719E+03  0.20631161586E+03  0.00000000000E+00 0.  1.
          5    1    4    4  501    0  0.35555438480E+02  0.81802905152E+02  0.38008902404E+03  0.39043698991E+03  0.41800000000E+01 0.  1.
         -5    1    4    4    0  501 -0.10043164528E+02 -0.22764772173E+02  0.51665586594E+03  0.51727154979E+03  0.41800000000E+01 0.  1.
</event>
<event>
11    1  0.8864208E-009  0.2915097E+03  0.7561462E-02  0.1003850E+00
         22   -1    0    0    0    0  0.00000000000E+00  0.00000000000E+00  0.12821233872E+04  0.12821233872E+04  0.00000000000E+00 0.  1.
         22   -1    0    0    0    0 -0.00000000000E+00 -0.00000000000E+00 -0.18512620982E+03  0.18512620982E+03  0.00000000000E+00 0. -1.
         24    2    1    2    0    0 -0.12605226857E+01 -0.24587853829E+03  0.24862907310E+02  0.26309741158E+03  0.90245439280E+02 0.  0.
         25    2    1    2    0    0  0.76061513853E+02  0.32684131950E+03  0.48765122884E+03  0.60503101244E+03  0.12509277757E+03 0.  0.
        -24    2    1    2    0    0 -0.74800991167E+02 -0.80962781213E+02  0.58448304119E+03  0.59912117295E+03  0.71941602856E+02 0.  0.
        -11    1    3    3    0    0  0.25400290688E+02 -0.15135565507E+02  0.83290118119E+00  0.29579618568E+02  0.00000000000E+00 0.  1.
         12    1    3    3    0    0 -0.26660813373E+02 -0.23074297278E+03  0.24030006129E+02  0.23351779301E+03  0.00000000000E+00 0. -1.
         13    1    5    5    0    0 -0.24864394036E+02 -0.14451058715E+02  0.33304371760E+03  0.33428309713E+03  0.00000000000E+00 0. -1.
        -14    1    5    5    0    0 -0.49936597131E+02 -0.66511722498E+02  0.25143932358E+03  0.26483807582E+03  0.00000000000E+00 0.  1.
          5    1    4    4  501    0  0.14269834915E+02  0.22539638460E+03  0.23576812868E+03  0.32651376890E+03  0.41800000000E+01 0.  1.
         -5    1    4    4    0  501  0.61791678938E+02  0.10144493491E+03  0.25188310016E+03  0.27851724354E+03  0.41800000000E+01 0.  1.
</event>
<event>
11    1  0.8864208E-009  0.1503155E+03  0.7561462E-02  0.1096557E+00
         22   -1    0    0    0    0  0.00000000000E+00  0.00000000000E+00  0.10015692292E+03  0.10015692292E+03  0.00000000000E+00 0. -1.
         22   -1    0    0    0    0 -0.00000000000E+00 -0.00000000000E+00 -0.15447132572E+04  0.15447132572E+04  0.00000000000E+00 0.  1.
         24    2    1    2    0    0  0.68123071126E+02 -0.56570390245E+02 -0.13786438303E+04  0.13838248767E+04  0.80445737466E+02 0.  0.
         25    2    1    2    0    0 -0.15230223212E+02 -0.43457774326E+01 -0.70370482576E+02  0.14439862957E+03  0.12509242153E+03 0.  0.
        -24    2    1    2    0    0 -0.52892847914E+02  0.60916167678E+02  0.44579785877E+01  0.11664667386E+03  0.84131683114E+02 0.  0.
        -13    1    3    3    0    0  0.77361478942E+02 -0.30390559159E+02 -0.12152722241E+04  0.12181112278E+04  0.00000000000E+00 0.  1.
         14    1    3    3    0    0 -0.92384078157E+01 -0.26179831086E+02 -0.16337160619E+03  0.16571364893E+03  0.00000000000E+00 0. -1.
         11    1    5    5    0    0  0.13824106906E+01  0.49174560749E+02  0.27690469407E+02  0.56451843018E+02  0.00000000000E+00 0. -1.
        -12    1    5    5    0    0 -0.54275258604E+02  0.11741606929E+02 -0.23232490820E+02  0.60194830837E+02  0.00000000000E+00 0.  1.
          5    1    4    4  501    0 -0.29159069045E+02 -0.49601522780E+02 -0.77202114043E+02  0.96375314175E+02  0.41800000000E+01 0.  1.
         -5    1    4    4    0  501  0.13928845833E+02  0.45255745347E+02  0.68316314668E+01  0.48023315396E+02  0.41800000000E+01 0.  1.
</event>
<event>
11    1  0.8864208E-009  0.1269186E+03  0.7561462E-02  0.1123114E+00
         22   -1    0    0    0    0  0.00000000000E+00  0.00000000000E+00  0.92426788453E+03  0.92426788453E+03  0.00000000000E+00 0. -1.
         22   -1    0    0    0    0 -0.00000000000E+00 -0.00000000000E+00 -0.12194576658E+04  0.12194576658E+04  0.00000000000E+00 0. -1.
        -24    2    1    2    0    0  0.19846031884E+02  0.89821695779E+01 -0.11899244853E+04  0.11928499020E+04  0.80598161530E+02 0.  0.
         25    2    1    2    0    0  0.77630506237E+01  0.50660780716E+01  0.12627196617E+03  0.17798053437E+03  0.12508609464E+03 0.  0.
         24    2    1    2    0    0 -0.27609082507E+02 -0.14048247649E+02  0.76846273792E+03  0.77289511389E+03  0.76630691037E+02 0.  0.
        -13    1    5    5    0    0 -0.43830191291E+02  0.71802966966E+01  0.26276944549E+03  0.26649657373E+03  0.00000000000E+00 0.  1.
         14    1    5    5    0    0  0.16221108784E+02 -0.21228544346E+02  0.50569329244E+03  0.50639854016E+03  0.00000000000E+00 0. -1.
         13    1    3    3    0    0 -0.18181609074E+02 -0.73960826787E+01 -0.87440825225E+03  0.87462852946E+03  0.00000000000E+00 0. -1.
        -14    1    3    3    0    0  0.38027640958E+02  0.16378252257E+02 -0.31551623307E+03  0.31822137256E+03  0.00000000000E+00 0.  1.
          5    1    4    4  501    0 -0.56887001924E+02 -0.45952075668E+01  0.77393053159E+02  0.96251773998E+02  0.41800000000E+01 0.  1.
         -5    1    4    4    0  501  0.64650052548E+02  0.96612856384E+01  0.48878913013E+02  0.81728760372E+02  0.41800000000E+01 0.  1.
</event>
<event>
11    1  0.8864208E-009  0.1858674E+03  0.7561462E-02  0.1064993E+00
         22   -1    0    0    0    0  0.00000000000E+00  0.00000000000E+00  0.26625293809E+03  0.26625293809E+03  0.00000000000E+00 0. -1.
         22   -1    0    0    0    0 -0.00000000000E+00 -0.00000000000E+00 -0.16211790300E+04  0.16211790300E+04  0.00000000000E+00 0. -1.
        -24    2    1    2    0    0  0.78456043788E+02  0.30192751941E+02 -0.14939409776E+04  0.14986376613E+04  0.83595705764E+02 0.  0.
         25    2    1    2    0    0 -0.16794644324E+03 -0.86901981746E+02  0.88839063419E+02  0.24351028263E+03  0.12508763460E+03 0.  0.
         24    2    1    2    0    0  0.89490399452E+02  0.56709229805E+02  0.50175822338E+02  0.14528402416E+03  0.85821711652E+02 0.  0.
        -11    1    5    5    0    0  0.18712652326E+02 -0.21381001459E+02 -0.32929784633E+00  0.28415119523E+02  0.00000000000E+00 0.  1.
         12    1    5    5    0    0  0.70777747126E+02  0.78090231264E+02  0.50505120184E+02  0.11686890464E+03  0.00000000000E+00 0. -1.
         13    1    3    3    0    0  0.80212023558E+02 -0.36305344063E+01 -0.12145654291E+04  0.12172166328E+04  0.00000000000E+00 0. -1.
        -14    1    3    3    0    0 -0.17559797706E+01  0.33823286347E+02 -0.27937554852E+03  0.28142102849E+03  0.00000000000E+00 0.  1.
          5    1    4    4  501    0 -0.10364448384E+03 -0.50269622027E+02 -0.14670980746E+02  0.11619777969E+03  0.41800000000E+01 0.  1.
         -5    1    4    4    0  501 -0.64301959400E+02 -0.36632359718E+02  0.10351004416E+03  0.12731250294E+03  0.41800000000E+01 0.  1.
</event>
<event>
11    1  0.8864208E-009  0.1296341E+03  0.7561462E-02  0.1119719E+00
         22   -1    0    0    0    0  0.00000000000E+00  0.00000000000E+00  0.20821507104E+03  0.20821507104E+03  0.00000000000E+00 0. -1.
         22   -1    0    0    0    0 -0.00000000000E+00 -0.00000000000E+00 -0.91995722792E+03  0.91995722792E+03  0.00000000000E+00 0.  1.
        -24    2    1    2    0    0  0.22467940795E+01 -0.89460655352E+01 -0.82572068319E+03  0.82977353387E+03  0.81390359950E+02 0.  0.
         25    2    1    2    0    0  0.24693893875E+01  0.41515177957E+02 -0.26053375775E+02  0.13437222767E+03  0.12509000478E+03 0.  0.
         24    2    1    2    0    0 -0.47161834671E+01 -0.32569112422E+02  0.14003190208E+03  0.16402653741E+03  0.78821202134E+02 0.  0.
        -13    1    5    5    0    0  0.26033733192E+02  0.12644388106E+02  0.65305867014E+02  0.71431730211E+02  0.00000000000E+00 0.  1.
         14    1    5    5    0    0 -0.30749916659E+02 -0.45213500528E+02  0.74726035064E+02  0.92594807203E+02  0.00000000000E+00 0. -1.
         13    1    3    3    0    0  0.20349233152E+01 -0.34935419464E+02 -0.17135200058E+03  0.17488891488E+03  0.00000000000E+00 0. -1.
        -14    1    3    3    0    0  0.21187076436E+00  0.25989353929E+02 -0.65436868261E+03  0.65488461899E+03  0.00000000000E+00 0.  1.
          5    1    4    4  501    0  0.41220859936E+02  0.42064836845E+02 -0.58899854448E+02  0.83398291629E+02  0.41800000000E+01 0.  1.
         -5    1    4    4    0  501 -0.38751470549E+02 -0.54965888764E+00  0.32846478674E+02  0.50973936044E+02  0.41800000000E+01 0.  1.
</event>
<event>
11    1  0.8864208E-009  0.1364544E+03  0.7561462E-02  0.1111584E+00
         22   -1    0    0    0    0  0.00000000000E+00  0.00000000000E+00  0.41351872278E+02  0.41351872278E+02  0.00000000000E+00 0.  1.
         22   -1    0    0    0    0 -0.00000000000E+00 -0.00000000000E+00 -0.19857478296E+04  0.19857478296E+04  0.00000000000E+00 0. -1.
         24    2    1    2    0    0 -0.45192569730E+02  0.33232742355E+02 -0.13199417995E+04  0.13235243234E+04  0.79520419321E+02 0.  0.
         25    2    1    2    0    0  0.35081412488E+02 -0.33257736625E+02 -0.60334298065E+03  0.61806726853E+03  0.12509042163E+03 0.  0.
        -24    2    1    2    0    0  0.10111157242E+02  0.24994269638E-01 -0.21111177172E+02  0.85508109928E+02  0.82241832034E+02 0.  0.
        -13    1    3    3    0    0 -0.18756958657E+01 -0.24004432567E+02 -0.24185972907E+03  0.24305526031E+03  0.00000000000E+00 0.  1.
         14    1    3    3    0    0 -0.43316873864E+02  0.57237174922E+02 -0.10780820704E+04  0.10804690631E+04  0.00000000000E+00 0. -1.
         11    1    5    5    0    0  0.29880379052E+02 -0.12072088469E+02 -0.42927854893E+02  0.53678423021E+02  0.00000000000E+00 0. -1.
        -12    1    5    5    0    0 -0.19769221810E+02  0.12097082739E+02  0.21816677721E+02  0.31829686907E+02  0.00000000000E+00 0.  1.
          5    1    4    4  501    0  0.76376776399E+02 -0.33290720238E+02 -0.28277661489E+03  0.29482498258E+03  0.41800000000E+01 0.  1.
         -5    1    4    4    0  501 -0.41295363911E+02  0.32983613477E-01 -0.32056636576E+03  0.32324228595E+03  0.41800000000E+01 0.  1.
</event>
<event>
11    1  0.8864208E-009  0.1391745E+03  0.7561462E-02  0.1108484E+00
         22   -1    0    0    0    0  0.00000000000E+00  0.00000000000E+00  0.89554128003E+02  0.89554128003E+02  0.00000000000E+00 0.  1.
         22   -1    0    0    0    0 -0.00000000000E+00 -0.00000000000E+00 -0.34448396697E+04  0.34448396697E+04  0.00000000000E+00 0. -1.
        -24    2    1    2    0    0  0.96263565330E+01 -0.29385340756E+02 -0.30649761413E+04  0.30662119433E+04  0.81368111090E+02 0.  0.
         25    2    1    2    0    0 -0.44474151632E+02  0.76069617255E+02 -0.32681432398E+03  0.36086111291E+03  0.12509437885E+03 0.  0.
         24    2    1    2    0    0  0.34847795099E+02 -0.46684276500E+02  0.36504923582E+02  0.10732074149E+03  0.82409596611E+02 0.  0.
        -13    1    5    5    0    0  0.40956671561E+02 -0.67259152328E+02  0.33774161407E+02  0.85685100782E+02  0.00000000000E+00 0.  1.
         14    1    5    5    0    0 -0.61088764622E+01  0.20574875828E+02  0.27307621751E+01  0.21635640712E+02  0.00000000000E+00 0. -1.
         11    1    3    3    0    0  0.10063509467E+02 -0.49617470765E+02 -0.28023448910E+04  0.28028021793E+04  0.00000000000E+00 0. -1.
        -12    1    3    3    0    0 -0.43715293381E+00  0.20232130009E+02 -0.26263125023E+03  0.26340976403E+03  0.00000000000E+00 0.  1.
          5    1    4    4  501    0 -0.82302729758E+02  0.46055105683E+02 -0.14760555417E+03  0.17521325323E+03  0.41800000000E+01 0.  1.
         -5    1    4    4    0  501  0.37828578126E+02  0.30014511572E+02 -0.17920876981E+03  0.18564785968E+03  0.41800000000E+01 0.  1.
</event>
<event>
11    1  0.8864208E-009  0.1867256E+03  0.7561462E-02  0.1064329E+00
         22   -1    0    0    0    0  0.00000000000E+00  0.00000000000E+00  0.17584844395E+03  0.17584844395E+03  0.00000000000E+00 0.  1.
         22   -1    0    0    0    0 -0.00000000000E+00 -0.00000000000E+00 -0.94185682530E+03  0.94185682530E+03  0.00000000000E+00 0. -1.
        -24    2    1    2    0    0 -0.95041970988E+02 -0.56283591259E+02 -0.36961043175E+03  0.39424639263E+03  0.81348189583E+02 0.  0.
         25    2    1    2    0    0  0.14373729935E+03  0.14515074631E+03 -0.50199152138E+03  0.55621119264E+03  0.12508498271E+03 0.  0.
         24    2    1    2    0    0 -0.48695328365E+02 -0.88867155054E+02  0.10559357178E+03  0.16724768399E+03  0.80951708727E+02 0.  0.
        -13    1    5    5    0    0 -0.68641382119E+02 -0.64343082774E+02  0.95511329852E+02  0.13406746723E+03  0.00000000000E+00 0.  1.
         14    1    5    5    0    0  0.19946053754E+02 -0.24524072279E+02  0.10082241927E+02  0.33180216753E+02  0.00000000000E+00 0. -1.
         11    1    3    3    0    0 -0.73990757886E+02 -0.62190381582E+02 -0.35506564323E+03  0.36798625900E+03  0.00000000000E+00 0. -1.
        -12    1    3    3    0    0 -0.21051213102E+02  0.59067903227E+01 -0.14544788524E+02  0.26260133629E+02  0.00000000000E+00 0.  1.
          5    1    4    4  501    0  0.10250458474E+03  0.78990849081E+02 -0.16206463753E+03  0.20743472050E+03  0.41800000000E+01 0. -1.
         -5    1    4    4    0  501  0.41232714617E+02  0.66159897232E+02 -0.33992688384E+03  0.34877647214E+03  0.41800000000E+01 0. -1.
</event>
<event>
11    1  0.8864208E-009  0.1666542E+03  0.7561462E-02  0.1080981E+00
         22   -1    0    0    0    0  0.00000000000E+00  0.00000000000E+00  0.24334336446E+02  0.24334336446E+02  0.00000000000E+00 0.  1.
         22   -1    0    0    0    0 -0.00000000000E+00 -0.00000000000E+00 -0.22491390907E+04  0.22491390907E+04  0.00000000000E+00 0.  1.
        -24    2    1    2    0    0 -0.29497310407E+02  0.52913934650E+02 -0.60591190375E+03  0.61405536267E+03  0.79150347503E+02 0.  0.
         25    2    1    2    0    0 -0.53093054160E+02 -0.12131039201E+03 -0.13020656834E+04  0.13147462530E+04  0.12509029614E+03 0.  0.
         24    2    1    2    0    0  0.82590364567E+02  0.68396457358E+02 -0.31682716712E+03  0.34467181153E+03  0.83186297797E+02 0.  0.
        -11    1    5    5    0    0  0.79662894821E+02  0.69371496523E+02 -0.18673172424E+03  0.21453978228E+03  0.00000000000E+00 0.  1.
         12    1    5    5    0    0  0.29274697460E+01 -0.97503916514E+00 -0.13009544288E+03  0.13013202925E+03  0.00000000000E+00 0. -1.
         13    1    3    3    0    0 -0.46219194273E+02  0.62132711124E+02 -0.41271087790E+03  0.41991303439E+03  0.00000000000E+00 0. -1.
        -14    1    3    3    0    0  0.16721883865E+02 -0.92187764742E+01 -0.19320102585E+03  0.19414232828E+03  0.00000000000E+00 0.  1.
          5    1    4    4  501    0 -0.76356896092E+02 -0.12125950872E+03 -0.12412108183E+04  0.12494622891E+04  0.41800000000E+01 0.  1.
         -5    1    4    4    0  501  0.23263841932E+02 -0.50883292145E-01 -0.60854865076E+02  0.65283963834E+02  0.41800000000E+01 0.  1.
</event>
<event>
11    1  0.8864208E-009  0.1788397E+03  0.7561462E-02  0.1070585E+00
         22   -1    0    0    0    0  0.00000000000E+00  0.00000000000E+00  0.18099098986E+04  0.18099098986E+04  0.00000000000E+00 0.  1.
         22   -1    0    0    0    0 -0.00000000000E+00 -0.00000000000E+00 -0.49566546992E+03  0.49566546992E+03  0.00000000000E+00 0.  1.
        -24    2    1    2    0    0  0.11011771621E+03 -0.62283660284E+02 -0.42295541650E+03  0.44877472448E+03  0.80636860195E+02 0.  0.
         25    2    1    2    0    0 -0.12088025639E+03  0.77332310854E+02  0.95328158790E+02  0.21290403116E+03  0.12509334889E+03 0.  0.
         24    2    1    2    0    0  0.10762540184E+02 -0.15048650570E+02  0.16418716864E+04  0.16438966129E+04  0.79442716115E+02 0.  0.
        -13    1    5    5    0    0  0.75697270330E+00  0.38874429382E+01  0.15293338619E+04  0.15293389900E+04  0.00000000000E+00 0.  1.
         14    1    5    5    0    0  0.10005567481E+02 -0.18936093509E+02  0.11253782447E+03  0.11455762286E+03  0.00000000000E+00 0. -1.
         13    1    3    3    0    0 -0.79051840619E+01  0.91042395459E+01 -0.31477429207E+02  0.33707679574E+02  0.00000000000E+00 0. -1.
        -14    1    3    3    0    0  0.11802290027E+03 -0.71387899830E+02 -0.39147798729E+03  0.41506704490E+03  0.00000000000E+00 0.  1.
          5    1    4    4  501    0  0.25448679187E+02  0.12792102333E+02  0.25062402265E+02  0.38168960711E+02  0.41800000000E+01 0.  1.
         -5    1    4    4    0  501 -0.14632893558E+03  0.64540208521E+02  0.70265756525E+02  0.17473507045E+03  0.41800000000E+01 0.  1.
</event>
<event>
11    1  0.8864208E-009  0.1307734E+03  0.7561462E-02  0.1118322E+00
         22   -1    0    0    0    0  0.00000000000E+00  0.00000000000E+00  0.21364150923E+03  0.21364150923E+03  0.00000000000E+00 0.  1.
         22   -1    0    0    0    0 -0.00000000000E+00 -0.00000000000E+00 -0.46345578366E+03  0.46345578366E+03  0.00000000000E+00 0. -1.
        -24    2    1    2    0    0 -0.64218117502E+01  0.23806035372E+02 -0.39554642455E+03  0.40432270969E+03  0.80074419183E+02 0.  0.
         25    2    1    2    0    0 -0.27832938466E+02 -0.37351988637E+02  0.49207585937E+02  0.14225911065E+03  0.12508566877E+03 0.  0.
         24    2    1    2    0    0  0.34254750216E+02  0.13545953264E+02  0.96524564181E+02  0.13051547255E+03  0.79752218299E+02 0.  0.
        -11    1    5    5    0    0 -0.12248484737E+02 -0.26496619266E+01  0.76232326219E+02  0.77255508849E+02  0.00000000000E+00 0.  1.
         12    1    5    5    0    0  0.46503234953E+02  0.16195615191E+02  0.20292237962E+02  0.53259963706E+02  0.00000000000E+00 0. -1.
         13    1    3    3    0    0  0.44277931276E+01  0.42449852324E+02 -0.11041971515E+03  0.11838120124E+03  0.00000000000E+00 0. -1.
        -14    1    3    3    0    0 -0.10849604878E+02 -0.18643816952E+02 -0.28512670940E+03  0.28594150844E+03  0.00000000000E+00 0.  1.
          5    1    4    4  501    0  0.21734840695E+02  0.11433825408E+01 -0.32381242531E+02  0.39239366604E+02  0.41800000000E+01 0.  1.
         -5    1    4    4    0  501 -0.49567779161E+02 -0.38495371178E+02  0.81588828468E+02  0.10301974405E+03  0.41800000000E+01 0.  1.
</event>
<event>
11    1  0.8864208E-009  0.1284141E+03  0.7561462E-02  0.1121233E+00
         22   -1    0    0    0    0  0.00000000000E+00  0.00000000000E+00  0.54323749850E+02  0.54323749850E+02  0.00000000000E+00 0.  1.
         22   -1    0    0    0    0 -0.00000000000E+00 -0.00000000000E+00 -0.20913093961E+04  0.20913093961E+04  0.00000000000E+00 0.  1.
         24    2    1    2    0    0 -0.18239224759E+01 -0.29142176807E+02 -0.15508981072E+04  0.15533626975E+04  0.82450822741E+02 0.  0.
         25    2    1    2    0    0  0.13447196998E+02  0.26855198034E+02 -0.49379229205E+03  0.51027431970E+03  0.12508806852E+03 0.  0.
        -24    2    1    2    0    0 -0.11623274522E+02  0.22869787732E+01  0.77047529468E+01  0.81996128722E+02  0.80769246157E+02 0.  0.
        -13    1    3    3    0    0  0.15494353180E+02  0.40493661428E+00 -0.13048905646E+04  0.13049826146E+04  0.00000000000E+00 0.  1.
         14    1    3    3    0    0 -0.17318275656E+02 -0.29547113421E+02 -0.24600754257E+03  0.24838008291E+03  0.00000000000E+00 0. -1.
         11    1    5    5    0    0  0.22054833587E+02  0.27902154837E+02  0.15797408044E+02  0.38916629222E+02  0.00000000000E+00 0. -1.
        -12    1    5    5    0    0 -0.33678108110E+02 -0.25615176064E+02 -0.80926550969E+01  0.43079499500E+02  0.00000000000E+00 0.  1.
          5    1    4    4  501    0  0.52620948694E+02 -0.29023853176E+02 -0.23705741331E+03  0.24459157364E+03  0.41800000000E+01 0. -1.
         -5    1    4    4    0  501 -0.39173751695E+02  0.55879051210E+02 -0.25673487874E+03  0.26568274605E+03  0.41800000000E+01 0. -1.
</event>
<event>
11    1  0.8864208E-009  0.1899976E+03  0.7561462E-02  0.1061831E+00
         22   -1    0    0    0    0  0.00000000000E+00  0.00000000000E+00  0.60500133578E+03  0.60500133578E+03  0.00000000000E+00 0. -1.
         22   -1    0    0    0    0 -0.00000000000E+00 -0.00000000000E+00 -0.83961759901E+03  0.83961759901E+03  0.00000000000E+00 0.  1.
        -24    2    1    2    0    0  0.11701459150E+02  0.46551168951E+02 -0.77426395449E+03  0.78051500282E+03  0.86110759618E+02 0.  0.
         25    2    1    2    0    0 -0.96787858167E+02 -0.14333911376E+03  0.23009442312E+03  0.31385487652E+03  0.12508976353E+03 0.  0.
         24    2    1    2    0    0  0.85086399017E+02  0.96787944805E+02  0.30955326814E+03  0.35024905545E+03  0.10121054031E+03 0.  0.
        -13    1    5    5    0    0  0.40731696596E+02  0.26831051785E+02  0.23099468670E+03  0.23608795338E+03  0.00000000000E+00 0.  1.
         14    1    5    5    0    0  0.44354702421E+02  0.69956893020E+02  0.78558581445E+02  0.11416110207E+03  0.00000000000E+00 0. -1.
         11    1    3    3    0    0  0.29817989601E+02 -0.15734816816E+02 -0.26762003764E+03  0.26973539165E+03  0.00000000000E+00 0. -1.
        -12    1    3    3    0    0 -0.18116530451E+02  0.62285985767E+02 -0.50664391685E+03  0.51077961117E+03  0.00000000000E+00 0.  1.
          5    1    4    4  501    0 -0.17157503010E+01 -0.90254375011E+02  0.49779292324E+02  0.10317095692E+03  0.41800000000E+01 0.  1.
         -5    1    4    4    0  501 -0.95072107866E+02 -0.53084738745E+02  0.18031513080E+03  0.21068391960E+03  0.41800000000E+01 0.  1.
</event>
<event>
11    1  0.8864208E-009  0.1846123E+03  0.7561462E-02  0.1065972E+00
         22   -1    0    0    0    0  0.00000000000E+00  0.00000000000E+00  0.32230806012E+03  0.32230806012E+03  0.00000000000E+00 0.  1.
         22   -1    0    0    0    0 -0.00000000000E+00 -0.00000000000E+00 -0.14253572548E+04  0.14253572548E+04  0.00000000000E+00 0. -1.
         24    2    1    2    0    0 -0.13440534124E+03 -0.48466173867E+02 -0.12564966919E+04  0.12671237613E+04  0.80030769562E+02 0.  0.
         25    2    1    2    0    0  0.86582262679E+02  0.10988267859E+02 -0.11644673455E+03  0.19189672458E+03  0.12508909095E+03 0.  0.
        -24    2    1    2    0    0  0.47823078566E+02  0.37477906007E+02  0.26989423168E+03  0.28864482908E+03  0.82348653762E+02 0.  0.
        -11    1    3    3    0    0 -0.50220521531E+02 -0.31820044295E+02 -0.24985729670E+03  0.25683318461E+03  0.00000000000E+00 0.  1.
         12    1    3    3    0    0 -0.84184819713E+02 -0.16646129572E+02 -0.10066393952E+04  0.10102905767E+04  0.00000000000E+00 0. -1.
         11    1    5    5    0    0  0.70950658597E+02  0.21932386237E+02  0.18781517199E+03  0.20196426503E+03  0.00000000000E+00 0. -1.
        -12    1    5    5    0    0 -0.23127580031E+02  0.15545519770E+02  0.82079059690E+02  0.86680564042E+02  0.00000000000E+00 0.  1.
          5    1    4    4  501    0  0.12501463798E+02  0.58729330782E+02 -0.69543820695E+02  0.91974106618E+02  0.41800000000E+01 0. -1.
         -5    1    4    4    0  501  0.74080798880E+02 -0.47741062923E+02 -0.46902913856E+02  0.99922617960E+02  0.41800000000E+01 0. -1.
</event>
<event>
11    1  0.8864208E-009  0.1827859E+03  0.7561462E-02  0.1067411E+00
         22   -1    0    0    0    0  0.00000000000E+00  0.00000000000E+00  0.12276118565E+04  0.12276118565E+04  0.00000000000E+00 0.  1.
         22   -1    0    0    0    0 -0.00000000000E+00 -0.00000000000E+00 -0.14917455120E+04  0.14917455120E+04  0.00000000000E+00 0.  1.
        -24    2    1    2    0    0  0.55117389223E+02  0.12261223841E+03 -0.14556960407E+04  0.14640931093E+04  0.80286874406E+02 0.  0.
         25    2    1    2    0    0 -0.39530575255E+02 -0.71586669103E+02  0.15905918482E+03  0.21825356696E+03  0.12508987825E+03 0.  0.
         24    2    1    2    0    0 -0.15586813967E+02 -0.51025569310E+02  0.10325032003E+04  0.10370106922E+04  0.80509375739E+02 0.  0.
        -13    1    5    5    0    0  0.28373051531E+02 -0.25239762816E+02  0.65264540402E+03  0.65374926315E+03  0.00000000000E+00 0.  1.
         14    1    5    5    0    0 -0.43959865499E+02 -0.25785806495E+02  0.37985779632E+03  0.38326142907E+03  0.00000000000E+00 0. -1.
         11    1    3    3    0    0  0.57134293975E+02  0.48563777845E+02 -0.50773527242E+03  0.51324251084E+03  0.00000000000E+00 0. -1.
        -12    1    3    3    0    0 -0.20169047518E+01  0.74048460569E+02 -0.94796076829E+03  0.95085059848E+03  0.00000000000E+00 0.  1.
          5    1    4    4  501    0 -0.14603140500E+02 -0.96534521659E+02  0.64096629354E+02  0.11686751422E+03  0.41800000000E+01 0.  1.
         -5    1    4    4    0  501 -0.24927434756E+02  0.24947852556E+02  0.94962555461E+02  0.10138605274E+03  0.41800000000E+01 0.  1.
</event>
<event>
11    1  0.8864208E-009  0.2886412E+03  0.7561462E-02  0.1005116E+00
         22   -1    0    0    0    0  0.00000000000E+00  0.00000000000E+00  0.67899314054E+03  0.67899314054E+03  0.00000000000E+00 0. -1.
         22   -1    0    0    0    0 -0.00000000000E+00 -0.00000000000E+00 -0.13306562818E+04  0.13306562818E+04  0.00000000000E+00 0. -1.
         24    2    1    2    0    0 -0.95313928079E+02  0.24060994912E+03 -0.12405133012E+04  0.12710652619E+04  0.98771235723E+02 0.  0.
         25    2    1    2    0    0  0.11225500423E+03 -0.26979943576E+03  0.30161140950E+03  0.43819092187E+03  0.12509564405E+03 0.  0.
        -24    2    1    2    0    0 -0.16941076154E+02  0.29189486640E+02  0.28723875048E+03  0.30039323855E+03  0.81184800272E+02 0.  0.
        -13    1    3    3    0    0 -0.38844656113E+02  0.37635736529E+02 -0.13100517100E+03  0.14173112150E+03  0.00000000000E+00 0.  1.
         14    1    3    3    0    0 -0.56469271966E+02  0.20297421259E+03 -0.11095081302E+04  0.11293341404E+04  0.00000000000E+00 0. -1.
         11    1    5    5    0    0 -0.36285032071E+02  0.94414114002E+01  0.25578485874E+03  0.25851815751E+03  0.00000000000E+00 0. -1.
        -12    1    5    5    0    0  0.19343955916E+02  0.19748075240E+02  0.31453891739E+02  0.41875081035E+02  0.00000000000E+00 0.  1.
          5    1    4    4  501    0  0.11439567056E+03 -0.27388514047E+03  0.30903123638E+03  0.42850579584E+03  0.41800000000E+01 0. -1.
         -5    1    4    4    0  501 -0.21406663220E+01  0.40857047035E+01 -0.74198268859E+01  0.96851260313E+01  0.41800000000E+01 0. -1.
</event>
<event>
11    1  0.8864208E-009  0.1418533E+03  0.7561462E-02  0.1105506E+00
         22   -1    0    0    0    0  0.00000000000E+00  0.00000000000E+00  0.11148684854E+04  0.11148684854E+04  0.00000000000E+00 0.  1.
         22   -1    0    0    0    0 -0.00000000000E+00 -0.00000000000E+00 -0.80528954361E+02  0.80528954361E+02  0.00000000000E+00 0.  1.
         24    2    1    2    0    0 -0.20809689821E+02  0.72695465438E+02 -0.15555491680E+02  0.11128843371E+03  0.80159018642E+02 0.  0.
         25    2    1    2    0    0  0.22552028148E+02 -0.55991863765E+01  0.28841787241E+03  0.31523082271E+03  0.12508260309E+03 0.  0.
        -24    2    1    2    0    0 -0.17423383262E+01 -0.67096279062E+02  0.76147715032E+03  0.76887818336E+03  0.82590943723E+02 0.  0.
        -11    1    3    3    0    0 -0.94861853700E+01  0.83606383582E+02  0.62836604854E+01  0.84377126508E+02  0.00000000000E+00 0.  1.
         12    1    3    3    0    0 -0.11323504451E+02 -0.10910918144E+02 -0.21839152166E+02  0.26911307198E+02  0.00000000000E+00 0. -1.
         11    1    5    5    0    0  0.37379160819E+02 -0.32360006602E+02  0.48345134681E+03  0.48597281449E+03  0.00000000000E+00 0. -1.
        -12    1    5    5    0    0 -0.39121499145E+02 -0.34736272459E+02  0.27802580351E+03  0.28290536887E+03  0.00000000000E+00 0.  1.
          5    1    4    4  501    0  0.23410303570E+02 -0.15690942933E+02  0.29878882259E+03  0.30014410024E+03  0.41800000000E+01 0.  1.
         -5    1    4    4    0  501 -0.85827542188E+00  0.10091756557E+02 -0.10370950180E+02  0.15086722465E+02  0.41800000000E+01 0.  1.
</event>
<event>
11    1  0.8864208E-009  0.1541220E+03  0.7561462E-02  0.1092740E+00
         22   -1    0    0    0    0  0.00000000000E+00  0.00000000000E+00  0.80533708644E+03  0.80533708644E+03  0.00000000000E+00 0.  1.
         22   -1    0    0    0    0 -0.00000000000E+00 -0.00000000000E+00 -0.26580866933E+03  0.26580866933E+03  0.00000000000E+00 0. -1.
         24    2    1    2    0    0 -0.18587879994E+02  0.31331971380E+01 -0.22361177866E+03  0.23773610077E+03  0.78491399837E+02 0.  0.
         25    2    1    2    0    0 -0.24529313102E+02 -0.83393148399E+02  0.17379819154E+03  0.23109669322E+03  0.12507504080E+03 0.  0.
        -24    2    1    2    0    0  0.43117193096E+02  0.80259951261E+02  0.58934200422E+03  0.60231296178E+03  0.84594053399E+02 0.  0.
        -11    1    3    3    0    0  0.24789802898E+02 -0.13099829784E+02 -0.43410562772E+02  0.51678011071E+02  0.00000000000E+00 0.  1.
         12    1    3    3    0    0 -0.43377682893E+02  0.16233026922E+02 -0.18020121589E+03  0.18605808970E+03  0.00000000000E+00 0. -1.
         11    1    5    5    0    0  0.34472772696E+02  0.41652116428E+01  0.79516925700E+02  0.86767865700E+02  0.00000000000E+00 0. -1.
        -12    1    5    5    0    0  0.86444204000E+01  0.76094739618E+02  0.50982507852E+03  0.51554509608E+03  0.00000000000E+00 0.  1.
          5    1    4    4  501    0  0.99371189890E+01 -0.10865649388E+03  0.11949171039E+03  0.16186636849E+03  0.41800000000E+01 0. -1.
         -5    1    4    4    0  501 -0.34466432091E+02  0.25263345484E+02  0.54306481152E+02  0.69230324723E+02  0.41800000000E+01 0. -1.
</event>
<event>
11    1  0.8864208E-009  0.1720584E+03  0.7561462E-02  0.1076254E+00
         22   -1    0    0    0    0  0.00000000000E+00  0.00000000000E+00  0.26424355178E+03  0.26424355178E+03  0.00000000000E+00 0.  1.
         22   -1    0    0    0    0 -0.00000000000E+00 -0.00000000000E+00 -0.29277288781E+03  0.29277288781E+03  0.00000000000E+00 0.  1.
         24    2    1    2    0    0 -0.23932633039E+02 -0.40058408551E+02 -0.17711879335E+03  0.20062309738E+03  0.81860327534E+02 0.  0.
         25    2    1    2    0    0 -0.81495272898E+02  0.93298927131E+02  0.51067688015E+02  0.18331568562E+03  0.12510220832E+03 0.  0.
        -24    2    1    2    0    0  0.10542790594E+03 -0.53240518579E+02  0.97521769309E+02  0.17307765659E+03  0.80596423951E+02 0.  0.
        -11    1    3    3    0    0 -0.75878446803E+00  0.24917850158E+02 -0.40084448750E+02  0.47204216358E+02  0.00000000000E+00 0.  1.
         12    1    3    3    0    0 -0.23173848571E+02 -0.64976258709E+02 -0.13703434460E+03  0.15341888102E+03  0.00000000000E+00 0. -1.
         13    1    5    5    0    0  0.87745252244E+02 -0.18631726925E+01  0.50731920657E+02  0.10137272058E+03  0.00000000000E+00 0. -1.
        -14    1    5    5    0    0  0.17682653693E+02 -0.51377345887E+02  0.46789848652E+02  0.71704936015E+02  0.00000000000E+00 0.  1.
          5    1    4    4  501    0 -0.81675778025E+02  0.34151606707E+02 -0.19903334217E+02  0.90834355117E+02  0.41800000000E+01 0.  1.
         -5    1    4    4    0  501  0.18050512660E+00  0.59147320424E+02  0.70971022232E+02  0.92481330506E+02  0.41800000000E+01 0.  1.
</event>
<event>
11    1  0.8864208E-009  0.1285200E+03  0.7561462E-02  0.1121101E+00
         22   -1    0    0    0    0  0.00000000000E+00  0.00000000000E+00  0.97461791029E+02  0.97461791029E+02  0.00000000000E+00 0. -1.
         22   -1    0    0    0    0 -0.00000000000E+00 -0.00000000000E+00 -0.11237210513E+04  0.11237210513E+04  0.00000000000E+00 0.  1.
         24    2    1    2    0    0  0.20122494792E+02 -0.84853390882E+01 -0.81248368498E+03  0.81620884594E+03  0.74767814283E+02 0.  0.
         25    2    1    2    0    0 -0.46628758846E+02  0.17221947887E+02 -0.27107533843E+03  0.30265529920E+03  0.12509018503E+03 0.  0.
        -24    2    1    2    0    0  0.26506264054E+02 -0.87366087989E+01  0.57299763188E+02  0.10231869714E+03  0.80043379211E+02 0.  0.
        -11    1    3    3    0    0 -0.18275857514E+02  0.14952055425E+02 -0.49396257487E+03  0.49452663861E+03  0.00000000000E+00 0.  1.
         12    1    3    3    0    0  0.38398352306E+02 -0.23437394513E+02 -0.31852111011E+03  0.32168220733E+03  0.00000000000E+00 0. -1.
         13    1    5    5    0    0  0.53614073365E+02 -0.10893238207E+02  0.25158103208E+02  0.60216788842E+02  0.00000000000E+00 0. -1.
        -14    1    5    5    0    0 -0.27107809311E+02  0.21566294081E+01  0.32141659980E+02  0.42101908298E+02  0.00000000000E+00 0.  1.
          5    1    4    4  501    0 -0.30830822899E+02  0.45915725231E+02 -0.37954028965E+02  0.67206950376E+02  0.41800000000E+01 0.  1.
         -5    1    4    4    0  501 -0.15797935946E+02 -0.28693777344E+02 -0.23312130947E+03  0.23544834883E+03  0.41800000000E+01 0.  1.
</event>
<event>
11    1  0.8864208E-009  0.2019563E+03  0.7561462E-02  0.1053149E+00
         22   -1    0    0    0    0  0.00000000000E+00  0.00000000000E+00  0.58463814788E+03  0.58463814788E+03  0.00000000000E+00 0.  1.
         22   -1    0    0    0    0 -0.00000000000E+00 -0.00000000000E+00 -0.24798615238E+04  0.24798615238E+04  0.00000000000E+00 0.  1.
        -24    2    1    2    0    0  0.29499964336E+02  0.81399933368E+02 -0.21301599991E+04  0.21333761134E+04  0.78840488666E+02 0.  0.
         25    2    1    2    0    0 -0.18509273663E+03 -0.54629641254E+02 -0.29399387128E+03  0.37326045738E+03  0.12508898368E+03 0.  0.
         24    2    1    2    0    0  0.15559277230E+03 -0.26770292114E+02  0.52893049441E+03  0.55786310090E+03  0.80734206517E+02 0.  0.
        -11    1    5    5    0    0  0.49147965947E+02 -0.39936329764E+02  0.27523723483E+03  0.28242869619E+03  0.00000000000E+00 0.  1.
         12    1    5    5    0    0  0.10644480635E+03  0.13166037650E+02  0.25369325957E+03  0.27543440471E+03  0.00000000000E+00 0. -1.
         13    1    3    3    0    0 -0.70936366412E+01  0.57179371906E+02 -0.64512533246E+03  0.64769321043E+03  0.00000000000E+00 0. -1.
        -14    1    3    3    0    0  0.36593600978E+02  0.24220561462E+02 -0.14850346666E+04  0.14856829030E+04  0.00000000000E+00 0.  1.
          5    1    4    4  501    0 -0.40540059035E+02  0.33864830103E+02 -0.11553331245E+03  0.12710523903E+03  0.41800000000E+01 0. -1.
         -5    1    4    4    0  501 -0.14455267760E+03 -0.88494471358E+02 -0.17846055883E+03  0.24615521835E+03  0.41800000000E+01 0. -1.
</event>
<event>
11    1  0.8864208E-009  0.1358944E+03  0.7561462E-02  0.1112232E+00
         22   -1    0    0    0    0  0.00000000000E+00  0.00000000000E+00  0.18465190253E+03  0.18465190253E+03  0.00000000000E+00 0. -1.
         22   -1    0    0    0    0 -0.00000000000E+00 -0.00000000000E+00 -0.19199400973E+04  0.19199400973E+04  0.00000000000E+00 0. -1.
        -24    2    1    2    0    0  0.14869156459E+02 -0.32054905180E+02 -0.18190029062E+04  0.18211916530E+04  0.81968624810E+02 0.  0.
         25    2    1    2    0    0 -0.23481605087E+01 -0.26175670642E+02 -0.30733104199E+02  0.13146003324E+03  0.12508611856E+03 0.  0.
         24    2    1    2    0    0 -0.12520995951E+02  0.58230575822E+02  0.11444781557E+03  0.15194031364E+03  0.80249492973E+02 0.  0.
        -11    1    5    5    0    0 -0.32277035417E+02  0.20933074447E+02  0.10692840545E+02  0.39929155514E+02  0.00000000000E+00 0.  1.
         12    1    5    5    0    0  0.19756039466E+02  0.37297501374E+02  0.10375497502E+03  0.11201115813E+03  0.00000000000E+00 0. -1.
         13    1    3    3    0    0 -0.19827602113E+01 -0.10015674587E+02 -0.16416586454E+04  0.16416903950E+04  0.00000000000E+00 0. -1.
        -14    1    3    3    0    0  0.16851916671E+02 -0.22039230593E+02 -0.17734426078E+03  0.17950125797E+03  0.00000000000E+00 0.  1.
          5    1    4    4  501    0  0.40461542788E+02  0.15585979617E+02  0.24470983096E+02  0.49963592937E+02  0.41800000000E+01 0. -1.
         -5    1    4    4    0  501 -0.42809703297E+02 -0.41761650259E+02 -0.55204087295E+02  0.81496440308E+02  0.41800000000E+01 0. -1.
</event>
<event>
11    1  0.8864208E-009  0.1798246E+03  0.7561462E-02  0.1069785E+00
         22   -1    0    0    0    0  0.00000000000E+00  0.00000000000E+00  0.52858203485E+03  0.52858203485E+03  0.00000000000E+00 0.  1.
         22   -1    0    0    0    0 -0.00000000000E+00 -0.00000000000E+00 -0.38242837071E+03  0.38242837071E+03  0.00000000000E+00 0.  1.
        -24    2    1    2    0    0  0.10326048045E+03 -0.62770040687E+02 -0.26849524008E+03  0.30549071844E+03  0.81437585165E+02 0.  0.
         25    2    1    2    0    0 -0.17996595766E+03  0.99470765759E+02  0.84300356457E+02  0.25503469156E+03  0.12511580494E+03 0.  0.
         24    2    1    2    0    0  0.76705477207E+02 -0.36700725072E+02  0.33034854776E+03  0.35048499556E+03  0.80491587470E+02 0.  0.
        -13    1    5    5    0    0  0.12450446883E+02 -0.49950051305E+02  0.14406216203E+03  0.15298342323E+03  0.00000000000E+00 0.  1.
         14    1    5    5    0    0  0.64255030324E+02  0.13249326233E+02  0.18628638573E+03  0.19750157234E+03  0.00000000000E+00 0. -1.
         11    1    3    3    0    0  0.42702870963E+02  0.13536582679E+02 -0.11800767715E+03  0.12622434838E+03  0.00000000000E+00 0. -1.
        -12    1    3    3    0    0  0.60557609488E+02 -0.76306623366E+02 -0.15048756293E+03  0.17926637006E+03  0.00000000000E+00 0.  1.
          5    1    4    4  501    0 -0.73047627871E+02  0.79610277012E+02 -0.13187832293E+02  0.10892723931E+03  0.41800000000E+01 0. -1.
         -5    1    4    4    0  501 -0.10691832979E+03  0.19860488746E+02  0.97488188749E+02  0.14610745225E+03  0.41800000000E+01 0. -1.
</event>
<event>
11    1  0.8864208E-009  0.1399417E+03  0.7561462E-02  0.1107624E+00
         22   -1    0    0    0    0  0.00000000000E+00  0.00000000000E+00  0.15421269490E+04  0.15421269490E+04  0.00000000000E+00 0. -1.
         22   -1    0    0    0    0 -0.00000000000E+00 -0.00000000000E+00 -0.11429019815E+04  0.11429019815E+04  0.00000000000E+00 0. -1.
         24    2    1    2    0    0 -0.28359832296E+02 -0.55382164544E+02 -0.99533489395E+03  0.10004819970E+04  0.80007568069E+02 0.  0.
         25    2    1    2    0    0  0.68392633629E+02  0.43151911153E+02 -0.10491106564E+03  0.18219261106E+03  0.12509266988E+03 0.  0.
        -24    2    1    2    0    0 -0.40032801334E+02  0.12230253391E+02  0.14994709271E+04  0.15023543225E+04  0.83085768923E+02 0.  0.
        -11    1    3    3    0    0 -0.28290219561E+02  0.75987920966E+01 -0.15188620954E+03  0.15468516028E+03  0.00000000000E+00 0.  1.
         12    1    3    3    0    0 -0.69612734206E-01 -0.62980956641E+02 -0.84344868441E+03  0.84579683671E+03  0.00000000000E+00 0. -1.
         11    1    5    5    0    0 -0.22481261339E+02  0.47632317235E+02  0.95505643907E+03  0.95650773471E+03  0.00000000000E+00 0. -1.
        -12    1    5    5    0    0 -0.17551539995E+02 -0.35402063844E+02  0.54441448802E+03  0.54584658783E+03  0.00000000000E+00 0.  1.
          5    1    4    4  501    0  0.83423964645E+02  0.75783764245E+02 -0.79849237799E+02  0.13818867529E+03  0.41800000000E+01 0. -1.
         -5    1    4    4    0  501 -0.15031331015E+02 -0.32631853092E+02 -0.25061827844E+02  0.44003935769E+02  0.41800000000E+01 0. -1.
</event>
<event>
11    1  0.8864208E-009  0.1582130E+03  0.7561462E-02  0.1088770E+00
         22   -1    0    0    0    0  0.00000000000E+00  0.00000000000E+00  0.36183327571E+03  0.36183327571E+03  0.00000000000E+00 0. -1.
         22   -1    0    0    0    0 -0.00000000000E+00 -0.00000000000E+00 -0.14666861561E+04  0.14666861561E+04  0.00000000000E+00 0.  1.
         24    2    1    2    0    0  0.99816606747E+01 -0.10747236833E+03 -0.12882920232E+04  0.12953038416E+04  0.80409958934E+02 0.  0.
         25    2    1    2    0    0 -0.48079196900E+01  0.19348936018E+02 -0.13966909925E+03  0.18855445737E+03  0.12509128144E+03 0.  0.
        -24    2    1    2    0    0 -0.51737409847E+01  0.88123432314E+02  0.32310824204E+03  0.34466113288E+03  0.81239482532E+02 0.  0.
        -11    1    3    3    0    0 -0.13624475359E+02 -0.10333078992E+03 -0.85152861628E+03  0.85788336201E+03  0.00000000000E+00 0.  1.
         12    1    3    3    0    0  0.23606136034E+02 -0.41415784084E+01 -0.43676340691E+03  0.43742047957E+03  0.00000000000E+00 0. -1.
         11    1    5    5    0    0  0.91682965190E+01  0.97484786844E+02  0.30201223197E+03  0.31748815660E+03  0.00000000000E+00 0. -1.
        -12    1    5    5    0    0 -0.14342037504E+02 -0.93613545294E+01  0.21096010075E+02  0.27172976272E+02  0.00000000000E+00 0.  1.
          5    1    4    4  501    0 -0.38654573554E+01 -0.37918278316E+02 -0.87983454895E+00  0.38353410537E+02  0.41800000000E+01 0. -1.
         -5    1    4    4    0  501 -0.94246233451E+00  0.57267214333E+02 -0.13878926470E+03  0.15020104683E+03  0.41800000000E+01 0. -1.
</event>
<event>
11    1  0.8864208E-009  0.1660421E+03  0.7561462E-02  0.1081528E+00
         22   -1    0    0    0    0  0.00000000000E+00  0.00000000000E+00  0.18175242374E+04  0.18175242374E+04  0.00000000000E+00 0. -1.
         22   -1    0    0    0    0 -0.00000000000E+00 -0.00000000000E+00 -0.24721817847E+04  0.24721817847E+04  0.00000000000E+00 0.  1.
         24    2    1    2    0    0  0.89300957710E+01  0.34541924866E+02 -0.21109529477E+04  0.21127528080E+04  0.79556202203E+02 0.  0.
         25    2    1    2    0    0 -0.10890037156E+03  0.94652712109E+01 -0.33848125987E+03  0.37704985291E+03  0.12509254976E+03 0.  0.
        -24    2    1    2    0    0  0.99970275792E+02 -0.44007196077E+02  0.17947766602E+04  0.17999033612E+04  0.80611165582E+02 0.  0.
        -11    1    3    3    0    0  0.12956990728E+02 -0.10997726320E+02 -0.14983317680E+04  0.14984281500E+04  0.00000000000E+00 0.  1.
         12    1    3    3    0    0 -0.40268949575E+01  0.45539651186E+02 -0.61262117967E+03  0.61432465805E+03  0.00000000000E+00 0. -1.
         13    1    5    5    0    0  0.94403985682E+02 -0.71402668959E+01  0.14576329519E+04  0.14607042542E+04  0.00000000000E+00 0. -1.
        -14    1    5    5    0    0  0.55662901102E+01 -0.36866929181E+02  0.33714370837E+03  0.33919910693E+03  0.00000000000E+00 0.  1.
          5    1    4    4  501    0 -0.24895590107E+02  0.56556208336E+02 -0.79951204709E+02  0.10113388474E+03  0.41800000000E+01 0. -1.
         -5    1    4    4    0  501 -0.84004781456E+02 -0.47090937125E+02 -0.25853005517E+03  0.27591596817E+03  0.41800000000E+01 0. -1.
</event>
<event>
11    1  0.8864208E-009  0.4869351E+03  0.7561462E-02  0.9423199E-01
         22   -1    0    0    0    0  0.00000000000E+00  0.00000000000E+00  0.32142712424E+04  0.32142712424E+04  0.00000000000E+00 0. -1.
         22   -1    0    0    0    0 -0.00000000000E+00 -0.00000000000E+00 -0.65274427239E+03  0.65274427239E+03  0.00000000000E+00 0.  1.
         24    2    1    2    0    0  0.13076110357E+03  0.45316109677E+03 -0.52637756102E+03  0.71135996217E+03  0.80661100946E+02 0.  0.
         25    2    1    2    0    0 -0.21103022688E+03 -0.40687051613E+03  0.17873169440E+04  0.18493853208E+04  0.12508730161E+03 0.  0.
        -24    2    1    2    0    0  0.80269123315E+02 -0.46290580633E+02  0.13005875870E+04  0.13062702318E+04  0.78917025659E+02 0.  0.
        -13    1    3    3    0    0  0.12518245057E+03  0.44119141857E+03 -0.52640157227E+03  0.69815408689E+03  0.00000000000E+00 0.  1.
         14    1    3    3    0    0  0.55786529960E+01  0.11969678192E+02  0.24011254513E-01  0.13205875276E+02  0.00000000000E+00 0. -1.
         11    1    5    5    0    0  0.75869032422E+02 -0.41493808133E+01  0.67845529570E+03  0.68269679632E+03  0.00000000000E+00 0. -1.
        -12    1    5    5    0    0  0.44000908930E+01 -0.42141199819E+02  0.62213229128E+03  0.62357343543E+03  0.00000000000E+00 0.  1.
          5    1    4    4  501    0 -0.21719269245E+03 -0.41072204971E+03  0.17722365459E+04  0.18321313039E+04  0.41800000000E+01 0. -1.
         -5    1    4    4    0  501  0.61624655644E+01  0.38515335779E+01  0.15080398125E+02  0.17254016934E+02  0.41800000000E+01 0. -1.
</event>
<event>
11    1  0.8864208E-009  0.1381330E+03  0.7561462E-02  0.1109661E+00
         22   -1    0    0    0    0  0.00000000000E+00  0.00000000000E+00  0.10783715442E+04  0.10783715442E+04  0.00000000000E+00 0. -1.
         22   -1    0    0    0    0 -0.00000000000E+00 -0.00000000000E+00 -0.18676136748E+04  0.18676136748E+04  0.00000000000E+00 0.  1.
         24    2    1    2    0    0  0.58251859745E+02 -0.55562259937E+01 -0.18272882092E+04  0.18296804228E+04  0.72966427482E+02 0.  0.
         25    2    1    2    0    0 -0.63141530049E+02  0.10991712415E+02  0.94474123868E+02  0.16936329680E+03  0.12510353977E+03 0.  0.
        -24    2    1    2    0    0  0.48896703040E+01 -0.54354864212E+01  0.94357195465E+03  0.94694149931E+03  0.79477771275E+02 0.  0.
        -13    1    3    3    0    0  0.74194584852E+02 -0.92137662323E+01 -0.16306597051E+04  0.16323727527E+04  0.00000000000E+00 0.  1.
         14    1    3    3    0    0 -0.15942725107E+02  0.36575402386E+01 -0.19662850408E+03  0.19730767015E+03  0.00000000000E+00 0. -1.
         13    1    5    5    0    0  0.26511908818E+02  0.68562490803E+01  0.83921180206E+03  0.83965846520E+03  0.00000000000E+00 0. -1.
        -14    1    5    5    0    0 -0.21622238514E+02 -0.12291735501E+02  0.10436015259E+03  0.10728303411E+03  0.00000000000E+00 0.  1.
          5    1    4    4  501    0 -0.27444259156E+02 -0.50835632059E+02  0.10162652690E+02  0.58806468667E+02  0.41800000000E+01 0. -1.
         -5    1    4    4    0  501 -0.35697270893E+02  0.61827344474E+02  0.84311471178E+02  0.11055682813E+03  0.41800000000E+01 0. -1.
</event>
<event>
11    1  0.8864208E-009  0.1711864E+03  0.7561462E-02  0.1077004E+00
         22   -1    0    0    0    0  0.00000000000E+00  0.00000000000E+00  0.10695736806E+04  0.10695736806E+04  0.00000000000E+00 0.  1.
         22   -1    0    0    0    0 -0.00000000000E+00 -0.00000000000E+00 -0.23270739067E+03  0.23270739067E+03  0.00000000000E+00 0.  1.
        -24    2    1    2    0    0 -0.32185856319E+02 -0.79332839756E+02 -0.15296219131E+03  0.19263004446E+03  0.79870352750E+02 0.  0.
         25    2    1    2    0    0 -0.52022560685E+02  0.15474535899E+03  0.14743599012E+03  0.25305704426E+03  0.12509206018E+03 0.  0.
         24    2    1    2    0    0  0.84208417004E+02 -0.75412519234E+02  0.84239249114E+03  0.85659398256E+03  0.10653654903E+03 0.  0.
        -11    1    5    5    0    0  0.85862588816E+02 -0.41962870418E+02  0.77953440432E+03  0.78537071130E+03  0.00000000000E+00 0.  1.
         12    1    5    5    0    0 -0.16541718115E+01 -0.33449648816E+02  0.62858086820E+02  0.71223271260E+02  0.00000000000E+00 0. -1.
         13    1    3    3    0    0 -0.19989372536E+02 -0.97976091816E+01  0.19934255296E+01  0.22350434121E+02  0.00000000000E+00 0. -1.
        -14    1    3    3    0    0 -0.12196483783E+02 -0.69535230574E+02 -0.15495561684E+03  0.17027961034E+03  0.00000000000E+00 0.  1.
          5    1    4    4  501    0 -0.40207580916E+02  0.56160804364E+02 -0.68508352894E+01  0.69534824758E+02  0.41800000000E+01 0. -1.
         -5    1    4    4    0  501 -0.11814979769E+02  0.98584554626E+02  0.15428682541E+03  0.18352221950E+03  0.41800000000E+01 0. -1.
</event>
<event>
11    1  0.8864208E-009  0.1738459E+03  0.7561462E-02  0.1074732E+00
         22   -1    0    0    0    0  0.00000000000E+00  0.00000000000E+00  0.32659481793E+02  0.32659481793E+02  0.00000000000E+00 0. -1.
         22   -1    0    0    0    0 -0.00000000000E+00 -0.00000000000E+00 -0.23423952597E+04  0.23423952597E+04  0.00000000000E+00 0. -1.
         24    2    1    2    0    0  0.22152704453E+02  0.11826778312E+03 -0.17093298284E+04  0.17154459064E+04  0.80425027049E+02 0.  0.
         25    2    1    2    0    0 -0.29700136016E+02 -0.11922845426E+03 -0.50057958869E+03  0.53040040038E+03  0.12508851955E+03 0.  0.
        -24    2    1    2    0    0  0.75474315634E+01  0.96067113977E+00 -0.99826360837E+02  0.12920843465E+03  0.81680050528E+02 0.  0.
        -11    1    3    3    0    0  0.16832491322E+02  0.20337808575E+02 -0.87081300796E+03  0.87121309337E+03  0.00000000000E+00 0.  1.
         12    1    3    3    0    0  0.53202131311E+01  0.97929974548E+02 -0.83851682040E+03  0.84423281308E+03  0.00000000000E+00 0. -1.
         13    1    5    5    0    0  0.41680392009E+02  0.14059762980E+02 -0.66539762687E+02  0.79765105350E+02  0.00000000000E+00 0. -1.
        -14    1    5    5    0    0 -0.34132960445E+02 -0.13099091840E+02 -0.33286598150E+02  0.49443329299E+02  0.00000000000E+00 0.  1.
          5    1    4    4  501    0 -0.22533437298E+02 -0.13674511693E+03 -0.31952317210E+03  0.34830950706E+03  0.41800000000E+01 0.  1.
         -5    1    4    4    0  501 -0.71666987182E+01  0.17516662664E+02 -0.18105641659E+03  0.18209089332E+03  0.41800000000E+01 0.  1.
</event>
<event>
11    1  0.8864208E-009  0.2179416E+03  0.7561462E-02  0.1042515E+00
         22   -1    0    0    0    0  0.00000000000E+00  0.00000000000E+00  0.37556632622E+03  0.37556632622E+03  0.00000000000E+00 0.  1.
         22   -1    0    0    0    0 -0.00000000000E+00 -0.00000000000E+00 -0.10641168947E+04  0.10641168947E+04  0.00000000000E+00 0.  1.
         24    2    1    2    0    0 -0.38200551395E+02  0.17066305856E+03 -0.83965792190E+03  0.86132623092E+03  0.79197781314E+02 0.  0.
         25    2    1    2    0    0  0.12075283557E+02 -0.20315986043E+03 -0.13759064006E+03  0.27567846217E+03  0.12509072271E+03 0.  0.
        -24    2    1    2    0    0  0.26125267838E+02  0.32496801864E+02  0.28869799354E+03  0.30267852779E+03  0.80803390779E+02 0.  0.
        -11    1    3    3    0    0 -0.62202896197E+02  0.10603050889E+03 -0.52395855997E+03  0.53818606604E+03  0.00000000000E+00 0.  1.
         12    1    3    3    0    0  0.24002344802E+02  0.64632549670E+02 -0.31569936193E+03  0.32314016488E+03  0.00000000000E+00 0. -1.
         11    1    5    5    0    0  0.12948906520E+02  0.12831747710E+02  0.62964023680E+01  0.19286591512E+02  0.00000000000E+00 0. -1.
        -12    1    5    5    0    0  0.13176361319E+02  0.19665054154E+02  0.28240159117E+03  0.28339193628E+03  0.00000000000E+00 0.  1.
          5    1    4    4  501    0  0.77838653550E+01 -0.17277207118E+03 -0.46023839010E+02  0.17901520410E+03  0.41800000000E+01 0. -1.
         -5    1    4    4    0  501  0.42914182017E+01 -0.30387789243E+02 -0.91566801055E+02  0.96663258070E+02  0.41800000000E+01 0. -1.
</event>
<event>
11    1  0.8864208E-009  0.1352026E+03  0.7561462E-02  0.1113037E+00
         22   -1    0    0    0    0  0.00000000000E+00  0.00000000000E+00  0.29924790973E+03  0.29924790973E+03  0.00000000000E+00 0.  1.
         22   -1    0    0    0    0 -0.00000000000E+00 -0.00000000000E+00 -0.24541466762E+03  0.24541466762E+03  0.00000000000E+00 0.  1.
         24    2    1    2    0    0  0.38946067545E+02  0.22091035078E+02 -0.11690335660E+03  0.14779447537E+03  0.78562091095E+02 0.  0.
         25    2    1    2    0    0 -0.51662413252E+02 -0.54159626049E+02 -0.54116006988E+02  0.15549468266E+03  0.12509110314E+03 0.  0.
        -24    2    1    2    0    0  0.12716345707E+02  0.32068590971E+02  0.22485260569E+03  0.24137341933E+03  0.80699029100E+02 0.  0.
        -13    1    3    3    0    0  0.28023530768E+00 -0.23998800678E+02 -0.61468011498E+02  0.65987403369E+02  0.00000000000E+00 0.  1.
         14    1    3    3    0    0  0.38665832237E+02  0.46089835756E+02 -0.55435345097E+02  0.81807071997E+02  0.00000000000E+00 0. -1.
         11    1    5    5    0    0  0.84537378945E+01 -0.25617718685E+01 -0.41275572753E+01  0.97501327455E+01  0.00000000000E+00 0. -1.
        -12    1    5    5    0    0  0.42626078124E+01  0.34630362840E+02  0.22898016297E+03  0.23162328658E+03  0.00000000000E+00 0.  1.
          5    1    4    4  501    0 -0.40954458226E+01 -0.81526436062E+02 -0.58149622643E+02  0.10031043548E+03  0.41800000000E+01 0.  1.
         -5    1    4    4    0  501 -0.47566967429E+02  0.27366810013E+02  0.40336156548E+01  0.55184247172E+02  0.41800000000E+01 0.  1.
</event>
<event>
11    1  0.8864208E-009  0.1418449E+03  0.7561462E-02  0.1105516E+00
         22   -1    0    0    0    0  0.00000000000E+00  0.00000000000E+00  0.36657894032E+03  0.36657894032E+03  0.00000000000E+00 0.  1.
         22   -1    0    0    0    0 -0.00000000000E+00 -0.00000000000E+00 -0.11829311458E+04  0.11829311458E+04  0.00000000000E+00 0.  1.
         24    2    1    2    0    0 -0.46443742393E+02  0.16751195127E+02 -0.83555768960E+03  0.84074390839E+03  0.79095152094E+02 0.  0.
         25    2    1    2    0    0 -0.13506084014E+02  0.15261389298E+02 -0.32522190712E+03  0.34904427883E+03  0.12508914983E+03 0.  0.
        -24    2    1    2    0    0  0.59949826407E+02 -0.32012584425E+02  0.34442739128E+03  0.35972189885E+03  0.78427223590E+02 0.  0.
        -11    1    3    3    0    0 -0.57782888665E+02  0.17321058475E+02 -0.81524415108E+03  0.81747287854E+03  0.00000000000E+00 0.  1.
         12    1    3    3    0    0  0.11339146271E+02 -0.56986334815E+00 -0.20313538526E+02  0.23271029841E+02  0.00000000000E+00 0. -1.
         13    1    5    5    0    0  0.45339843401E+02 -0.37170294453E+02  0.10884668577E+03  0.12363224981E+03  0.00000000000E+00 0. -1.
        -14    1    5    5    0    0  0.14609983006E+02  0.51577100280E+01  0.23558070551E+03  0.23608964905E+03  0.00000000000E+00 0.  1.
          5    1    4    4  501    0  0.17113292507E+01  0.69612873692E+02 -0.16596493622E+03  0.18002975667E+03  0.41800000000E+01 0.  1.
         -5    1    4    4    0  501 -0.15217413264E+02 -0.54351484394E+02 -0.15925697089E+03  0.16901452216E+03  0.41800000000E+01 0.  1.
</event>
<event>
11    1  0.8864208E-009  0.1277327E+03  0.7561462E-02  0.1122087E+00
         22   -1    0    0    0    0  0.00000000000E+00  0.00000000000E+00  0.95569401441E+03  0.95569401441E+03  0.00000000000E+00 0.  1.
         22   -1    0    0    0    0 -0.00000000000E+00 -0.00000000000E+00 -0.28174974191E+03  0.28174974191E+03  0.00000000000E+00 0. -1.
        -24    2    1    2    0    0  0.15801976569E+02  0.11648417860E+02 -0.16471348951E+03  0.18417153456E+03  0.80020200022E+02 0.  0.
         25    2    1    2    0    0  0.56271955524E+01  0.34670363240E+01 -0.68075466843E+02  0.14256524200E+03  0.12508754282E+03 0.  0.
         24    2    1    2    0    0 -0.21429172121E+02 -0.15115454184E+02  0.90673322885E+03  0.91070697976E+03  0.80835439659E+02 0.  0.
        -13    1    5    5    0    0 -0.95360415715E+01 -0.33388708095E+01  0.87291635420E+03  0.87297482528E+03  0.00000000000E+00 0.  1.
         14    1    5    5    0    0 -0.11893130550E+02 -0.11776583374E+02  0.33816874654E+02  0.37732154479E+02  0.00000000000E+00 0. -1.
         13    1    3    3    0    0  0.10636647313E+02  0.15251103231E+02 -0.17286979814E+03  0.17386690750E+03  0.00000000000E+00 0. -1.
        -14    1    3    3    0    0  0.51653292559E+01 -0.36026853710E+01  0.81563086298E+01  0.10304627051E+02  0.00000000000E+00 0.  1.
          5    1    4    4  501    0  0.41777766865E+01 -0.50119456032E+02 -0.72808260177E+02  0.88588536736E+02  0.41800000000E+01 0. -1.
         -5    1    4    4    0  501  0.14494188660E+01  0.53586492356E+02  0.47327933343E+01  0.53976705261E+02  0.41800000000E+01 0. -1.
</event>
<event>
11    1  0.8864208E-009  0.1456974E+03  0.7561462E-02  0.1101358E+00
         22   -1    0    0    0    0  0.00000000000E+00  0.00000000000E+00  0.21012926921E+03  0.21012926921E+03  0.00000000000E+00 0.  1.
         22   -1    0    0    0    0 -0.00000000000E+00 -0.00000000000E+00 -0.18963082652E+04  0.18963082652E+04  0.00000000000E+00 0. -1.
        -24    2    1    2    0    0  0.33771085665E+02  0.74494137025E+02 -0.14346308041E+04  0.14390809213E+04  0.78092837518E+02 0.  0.
         25    2    1    2    0    0  0.12209095072E+02 -0.50402757450E+02 -0.43768013117E+03  0.45814943911E+03  0.12509001309E+03 0.  0.
         24    2    1    2    0    0 -0.45980180738E+02 -0.24091379574E+02  0.18613193932E+03  0.20920717396E+03  0.80174629472E+02 0.  0.
        -13    1    5    5    0    0 -0.30725133376E+02 -0.34313678716E+01  0.18022155540E+03  0.18285408702E+03  0.00000000000E+00 0.  1.
         14    1    5    5    0    0 -0.15255047362E+02 -0.20660011703E+02  0.59103839198E+01  0.26353086947E+02  0.00000000000E+00 0. -1.
         11    1    3    3    0    0  0.12363860968E+02  0.44296908535E+02 -0.12462300762E+04  0.12470783792E+04  0.00000000000E+00 0. -1.
        -12    1    3    3    0    0  0.21407224697E+02  0.30197228490E+02 -0.18840072796E+03  0.19200254210E+03  0.00000000000E+00 0.  1.
          5    1    4    4  501    0  0.35153806545E+02  0.33252004937E+02 -0.15668218300E+03  0.16403738847E+03  0.41800000000E+01 0.  1.
         -5    1    4    4    0  501 -0.22944711472E+02 -0.83654762387E+02 -0.28099794817E+03  0.29411205064E+03  0.41800000000E+01 0.  1.
</event>
<event>
11    1  0.8864208E-009  0.2123648E+03  0.7561462E-02  0.1046109E+00
         22   -1    0    0    0    0  0.00000000000E+00  0.00000000000E+00  0.18225963572E+04  0.18225963572E+04  0.00000000000E+00 0.  1.
         22   -1    0    0    0    0 -0.00000000000E+00 -0.00000000000E+00 -0.14256972705E+03  0.14256972705E+03  0.00000000000E+00 0. -1.
        -24    2    1    2    0    0 -0.16649637053E+03 -0.56267646452E+02 -0.43073404635E+02  0.19790337865E+03  0.80145740121E+02 0.  0.
         25    2    1    2    0    0  0.14474685616E+03  0.31200797198E+02  0.43556432600E+03  0.47674946146E+03  0.12509446352E+03 0.  0.
         24    2    1    2    0    0  0.21749514367E+02  0.25066849255E+02  0.12875357088E+04  0.12905132441E+04  0.81085409343E+02 0.  0.
        -11    1    5    5    0    0 -0.37280645635E+00  0.15314263524E+02  0.11874528362E+04  0.11875516426E+04  0.00000000000E+00 0.  1.
         12    1    5    5    0    0  0.22122320823E+02  0.97525857302E+01  0.10008287261E+03  0.10296160157E+03  0.00000000000E+00 0. -1.
         11    1    3    3    0    0 -0.17529597491E+03 -0.50599467733E+02 -0.42930008366E+02  0.18743524368E+03  0.00000000000E+00 0. -1.
        -12    1    3    3    0    0  0.87996043848E+01 -0.56681787194E+01 -0.14339626896E+00  0.10468134973E+02  0.00000000000E+00 0.  1.
          5    1    4    4  501    0  0.13691828989E+03  0.68555783173E+02  0.31595764766E+03  0.35113134441E+03  0.41800000000E+01 0.  1.
         -5    1    4    4    0  501  0.78285662687E+01 -0.37354985975E+02  0.11960667834E+03  0.12561811705E+03  0.41800000000E+01 0.  1.
</event>
<event>
11    1  0.8864208E-009  0.1443639E+03  0.7561462E-02  0.1102781E+00
         22   -1    0    0    0    0  0.00000000000E+00  0.00000000000E+00  0.98861073011E+03  0.98861073011E+03  0.00000000000E+00 0. -1.
         22   -1    0    0    0    0 -0.00000000000E+00 -0.00000000000E+00 -0.75728243130E+03  0.75728243130E+03  0.00000000000E+00 0.  1.
         24    2    1    2    0    0 -0.13652343147E+02 -0.41457058570E+01 -0.73265438136E+03  0.73718522657E+03  0.80349501511E+02 0.  0.
         25    2    1    2    0    0  0.37614820681E+02 -0.63684673105E+02  0.26932164660E+03  0.30601875724E+03  0.12507085244E+03 0.  0.
        -24    2    1    2    0    0 -0.23962477534E+02  0.67830378962E+02  0.69466103358E+03  0.70268917760E+03  0.77736530046E+02 0.  0.
        -11    1    3    3    0    0 -0.43650732871E+02  0.14259728899E+02 -0.45420710813E+03  0.45652253331E+03  0.00000000000E+00 0.  1.
         12    1    3    3    0    0  0.29998389724E+02 -0.18405434756E+02 -0.27844727324E+03  0.28066269326E+03  0.00000000000E+00 0. -1.
         13    1    5    5    0    0 -0.12782839319E+02  0.64918254429E+02  0.68326669888E+03  0.68646279035E+03  0.00000000000E+00 0. -1.
        -14    1    5    5    0    0 -0.11179638215E+02  0.29121245333E+01  0.11394334700E+02  0.16226387250E+02  0.00000000000E+00 0.  1.
          5    1    4    4  501    0  0.17150034264E+02  0.34243263561E+02  0.38742581127E+02  0.54636844409E+02  0.41800000000E+01 0. -1.
         -5    1    4    4    0  501  0.20464786417E+02 -0.97927936666E+02  0.23057906547E+03  0.25138191283E+03  0.41800000000E+01 0. -1.
</event>
<event>
11    1  0.8864208E-009  0.1680573E+03  0.7561462E-02  0.1079735E+00
         22   -1    0    0    0    0  0.00000000000E+00  0.00000000000E+00  0.10710009279E+04  0.10710009279E+04  0.00000000000E+00 0. -1.
         22   -1    0    0    0    0 -0.00000000000E+00 -0.00000000000E+00 -0.35336745129E+03  0.35336745129E+03  0.00000000000E+00 0. -1.
         24    2    1    2    0    0 -0.92372895911E+01  0.10747341042E+03 -0.28727442932E+03  0.31698910284E+03  0.79496113820E+02 0.  0.
         25    2    1    2    0    0  0.23012053248E+02 -0.20199180560E+03  0.26414969189E+03  0.35602397836E+03  0.12509104412E+03 0.  0.
        -24    2    1    2    0    0 -0.13774763657E+02  0.94518395180E+02  0.74075821402E+03  0.75135529796E+03  0.81783745325E+02 0.  0.
        -11    1    3    3    0    0  0.12286190395E+02  0.64246111368E+02 -0.76026877058E+02  0.10029256870E+03  0.00000000000E+00 0.  1.
         12    1    3    3    0    0 -0.21523479986E+02  0.43227299050E+02 -0.21124755226E+03  0.21669653414E+03  0.00000000000E+00 0. -1.
         11    1    5    5    0    0 -0.23007243878E+02  0.10613131871E+03  0.68926723506E+03  0.69776966931E+03  0.00000000000E+00 0. -1.
        -12    1    5    5    0    0  0.92324802211E+01 -0.11612923531E+02  0.51490978959E+02  0.53585628653E+02  0.00000000000E+00 0.  1.
          5    1    4    4  501    0  0.20150419022E+02 -0.19046857956E+03  0.27780170176E+03  0.33745455559E+03  0.41800000000E+01 0.  1.
         -5    1    4    4    0  501  0.28616342259E+01 -0.11523226038E+02 -0.13652009868E+02  0.18569422775E+02  0.41800000000E+01 0.  1.
</event>
<event>
11    1  0.8864208E-009  0.1588830E+03  0.7561462E-02  0.1088133E+00
         22   -1    0    0    0    0  0.00000000000E+00  0.00000000000E+00  0.55652962450E+03  0.55652962450E+03  0.00000000000E+00 0.  1.
         22   -1    0    0    0    0 -0.00000000000E+00 -0.00000000000E+00 -0.69333373883E+03  0.69333373883E+03  0.00000000000E+00 0.  1.
         24    2    1    2    0    0 -0.55309072736E+02  0.90756252199E+02 -0.53902480707E+03  0.55549270292E+03  0.82028102011E+02 0.  0.
         25    2    1    2    0    0  0.55049625299E+02 -0.38321320536E+02 -0.10630601750E+03  0.17733389174E+03  0.12508938784E+03 0.  0.
        -24    2    1    2    0    0  0.25944743683E+00 -0.52434931663E+02  0.50852671024E+03  0.51703676867E+03  0.77318275668E+02 0.  0.
        -13    1    3    3    0    0 -0.65372953980E+02  0.29693824466E+02 -0.26387818236E+03  0.27347219502E+03  0.00000000000E+00 0.  1.
         14    1    3    3    0    0  0.10063881244E+02  0.61062427733E+02 -0.27514662472E+03  0.28202050790E+03  0.00000000000E+00 0. -1.
         13    1    5    5    0    0 -0.25332102076E+02 -0.21582527218E+01  0.29799040395E+03  0.29907299159E+03  0.00000000000E+00 0. -1.
        -14    1    5    5    0    0  0.25591549513E+02 -0.50276678941E+02  0.21053630629E+03  0.21796377708E+03  0.00000000000E+00 0.  1.
          5    1    4    4  501    0 -0.33935494826E+02 -0.36078578803E+02 -0.20960092057E+02  0.53945152855E+02  0.41800000000E+01 0. -1.
         -5    1    4    4    0  501  0.88985120125E+02 -0.22427417330E+01 -0.85345925447E+02  0.12338873889E+03  0.41800000000E+01 0. -1.
</event>
<event>
11    1  0.8864208E-009  0.1645828E+03  0.7561462E-02  0.1082844E+00
         22   -1    0    0    0    0  0.00000000000E+00  0.00000000000E+00  0.35928058141E+03  0.35928058141E+03  0.00000000000E+00 0.  1.
         22   -1    0    0    0    0 -0.00000000000E+00 -0.00000000000E+00 -0.14169851325E+04  0.14169851325E+04  0.00000000000E+00 0. -1.
        -24    2    1    2    0    0  0.25180398732E+02  0.28749689540E+01 -0.12713784348E+04  0.12741488689E+04  0.80061837620E+02 0.  0.
         25    2    1    2    0    0 -0.12580788156E+03  0.25640309554E+02 -0.67677662938E+02  0.19160233611E+03  0.12508453385E+03 0.  0.
         24    2    1    2    0    0  0.10062748282E+03 -0.28515278508E+02  0.28135154661E+03  0.31051450888E+03  0.79508213666E+02 0.  0.
        -11    1    5    5    0    0  0.91489101820E+02 -0.13311426856E+02  0.27731781915E+03  0.29232280556E+03  0.00000000000E+00 0.  1.
         12    1    5    5    0    0  0.91383810032E+01 -0.15203851651E+02  0.40337274610E+01  0.18191703318E+02  0.00000000000E+00 0. -1.
         13    1    3    3    0    0  0.35293159081E+02 -0.82288154703E+01 -0.12219927027E+04  0.12225299530E+04  0.00000000000E+00 0. -1.
        -14    1    3    3    0    0 -0.10112760350E+02  0.11103784424E+02 -0.49385732028E+02  0.51618915897E+02  0.00000000000E+00 0.  1.
          5    1    4    4  501    0 -0.10651606212E+03 -0.33799774730E+02 -0.64035025103E+02  0.12886447572E+03  0.41800000000E+01 0.  1.
         -5    1    4    4    0  501 -0.19291819432E+02  0.59440084283E+02 -0.36426378350E+01  0.62737860395E+02  0.41800000000E+01 0.  1.
</event>
<event>
11    1  0.8864208E-009  0.1614354E+03  0.7561462E-02  0.1085735E+00
         22   -1    0    0    0    0  0.00000000000E+00  0.00000000000E+00  0.15431355003E+04  0.15431355003E+04  0.00000000000E+00 0.  1.
         22   -1    0    0    0    0 -0.00000000000E+00 -0.00000000000E+00 -0.17619914887E+03  0.17619914887E+03  0.00000000000E+00 0. -1.
         24    2    1    2    0    0  0.16566011325E+02  0.13926130333E+02 -0.12171649352E+03  0.14794387208E+03  0.81265704042E+02 0.  0.
         25    2    1    2    0    0  0.86412025698E+02 -0.48249944604E+01  0.11296540451E+03  0.18947043165E+03  0.12509013989E+03 0.  0.
        -24    2    1    2    0    0 -0.10297803702E+03 -0.91011358727E+01  0.13756874405E+04  0.13819203455E+04  0.80626301797E+02 0.  0.
        -13    1    3    3    0    0 -0.21641486506E+02 -0.20882457417E+02 -0.62393175335E+02  0.69262827652E+02  0.00000000000E+00 0.  1.
         14    1    3    3    0    0  0.38207497831E+02  0.34808587750E+02 -0.59323318189E+02  0.78681044429E+02  0.00000000000E+00 0. -1.
         11    1    5    5    0    0 -0.40873366473E+02 -0.32860764334E+02  0.33199060984E+03  0.33610746338E+03  0.00000000000E+00 0. -1.
        -12    1    5    5    0    0 -0.62104670550E+02  0.23759628461E+02  0.10436968306E+04  0.10458128821E+04  0.00000000000E+00 0.  1.
          5    1    4    4  501    0 -0.16953527561E+02  0.25102115740E+02 -0.35804497130E+01  0.30786853225E+02  0.41800000000E+01 0. -1.
         -5    1    4    4    0  501  0.10336555326E+03 -0.29927110200E+02  0.11654585423E+03  0.15868357843E+03  0.41800000000E+01 0. -1.
</event>
<event>
11    1  0.8864208E-009  0.1768006E+03  0.7561462E-02  0.1072261E+00
         22   -1    0    0    0    0  0.00000000000E+00  0.00000000000E+00  0.79571325684E+03  0.79571325684E+03  0.00000000000E+00 0.  1.
         22   -1    0    0    0    0 -0.00000000000E+00 -0.00000000000E+00 -0.11785337489E+03  0.11785337489E+03  0.00000000000E+00 0. -1.
         24    2    1    2    0    0 -0.67519909699E+01 -0.11780653877E+03 -0.14513110517E+01  0.14719473953E+03  0.87978492163E+02 0.  0.
         25    2    1    2    0    0  0.37741117648E+02  0.14539042110E+03  0.20358647876E+03  0.28223521738E+03  0.12508595878E+03 0.  0.
        -24    2    1    2    0    0 -0.30989126679E+02 -0.27583882329E+02  0.47572471424E+03  0.48413667482E+03  0.79706459178E+02 0.  0.
        -13    1    3    3    0    0 -0.99545379194E+01 -0.26355739886E+02  0.38200930284E+02  0.47466081834E+02  0.00000000000E+00 0.  1.
         14    1    3    3    0    0  0.32025469495E+01 -0.91450798885E+02 -0.39652241335E+02  0.99728657700E+02  0.00000000000E+00 0. -1.
         13    1    5    5    0    0 -0.25326981269E+02  0.23936128487E+02  0.13183251795E+03  0.13636057721E+03  0.00000000000E+00 0. -1.
        -14    1    5    5    0    0 -0.56621454096E+01 -0.51520010815E+02  0.34389219629E+03  0.34777609762E+03  0.00000000000E+00 0.  1.
          5    1    4    4  501    0 -0.21086274275E+02  0.96156004669E+02  0.49964506756E+02  0.11047412608E+03  0.41800000000E+01 0. -1.
         -5    1    4    4    0  501  0.58827391924E+02  0.49234416430E+02  0.15362197201E+03  0.17176109130E+03  0.41800000000E+01 0. -1.
</event>
<event>
11    1  0.8864208E-009  0.1834962E+03  0.7561462E-02  0.1066849E+00
         22   -1    0    0    0    0  0.00000000000E+00  0.00000000000E+00  0.96384966317E+03  0.96384966317E+03  0.00000000000E+00 0.  1.
         22   -1    0    0    0    0 -0.00000000000E+00 -0.00000000000E+00 -0.17091487704E+04  0.17091487704E+04  0.00000000000E+00 0.  1.
        -24    2    1    2    0    0  0.90019679187E+02 -0.98105863258E+02 -0.16149293975E+04  0.16224627291E+04  0.81609100510E+02 0.  0.
         25    2    1    2    0    0 -0.10837198586E+03  0.13413709201E+03  0.41018210043E+02  0.21694846326E+03  0.12508755089E+03 0.  0.
         24    2    1    2    0    0  0.18352306669E+02 -0.36031228750E+02  0.82861208024E+03  0.83358724121E+03  0.81453376834E+02 0.  0.
        -13    1    5    5    0    0  0.28068919525E+02 -0.35616798446E+02  0.81775430534E+03  0.81901069864E+03  0.00000000000E+00 0.  1.
         14    1    5    5    0    0 -0.97166128562E+01 -0.41443030368E+00  0.10857774890E+02  0.14576542575E+02  0.00000000000E+00 0. -1.
         11    1    3    3    0    0  0.30582491238E+02 -0.14820191786E+02 -0.14305829612E+03  0.14703946050E+03  0.00000000000E+00 0. -1.
        -12    1    3    3    0    0  0.59437187948E+02 -0.83285671471E+02 -0.14718711014E+04  0.14754232686E+04  0.00000000000E+00 0.  1.
          5    1    4    4  501    0 -0.97859892776E+02  0.48508490047E+02  0.65177801131E+02  0.12726056098E+03  0.41800000000E+01 0. -1.
         -5    1    4    4    0  501 -0.10512093080E+02  0.85628601961E+02 -0.24159591088E+02  0.89687902285E+02  0.41800000000E+01 0. -1.
</event>
<event>
11    1  0.8864208E-009  0.1786844E+03  0.7561462E-02  0.1070712E+00
         22   -1    0    0    0    0  0.00000000000E+00  0.00000000000E+00  0.71812561701E+03  0.71812561701E+03  0.00000000000E+00 0. -1.
         22   -1    0    0    0    0 -0.00000000000E+00 -0.00000000000E+00 -0.11781608296E+04  0.11781608296E+04  0.00000000000E+00 0.  1.
         24    2    1    2    0    0  0.72252126592E+02  0.10054756741E+01 -0.10770946596E+04  0.10824633502E+04  0.79828679238E+02 0.  0.
         25    2    1    2    0    0  0.41581371114E+02 -0.71130771982E+02 -0.25016607210E+02  0.15186111099E+03  0.12508944500E+03 0.  0.
        -24    2    1    2    0    0 -0.11383349771E+03  0.70125296307E+02  0.64207605413E+03  0.66196198548E+03  0.89757387165E+02 0.  0.
        -13    1    3    3    0    0  0.30190788885E+02  0.39446744804E+02 -0.57648540190E+03  0.57862159311E+03  0.00000000000E+00 0.  1.
         14    1    3    3    0    0  0.42061337706E+02 -0.38441269130E+02 -0.50060925766E+03  0.50384175706E+03  0.00000000000E+00 0. -1.
         11    1    5    5    0    0 -0.10251570868E+03  0.59341564750E+02  0.63278612049E+03  0.64377726437E+03  0.00000000000E+00 0. -1.
        -12    1    5    5    0    0 -0.11317789031E+02  0.10783731558E+02  0.92899336387E+01  0.18184721110E+02  0.00000000000E+00 0.  1.
          5    1    4    4  501    0 -0.22961242728E+02  0.21911275156E+02  0.95250566522E+01  0.33399427402E+02  0.41800000000E+01 0. -1.
         -5    1    4    4    0  501  0.64542613842E+02 -0.93042047138E+02 -0.34541663862E+02  0.11846168359E+03  0.41800000000E+01 0. -1.
</event>
<event>
11    1  0.8864208E-009  0.1418475E+03  0.7561462E-02  0.1105513E+00
         22   -1    0    0    0    0  0.00000000000E+00  0.00000000000E+00  0.80337928688E+03  0.80337928688E+03  0.00000000000E+00 0. -1.
         22   -1    0    0    0    0 -0.00000000000E+00 -0.00000000000E+00 -0.10589638627E+04  0.10589638627E+04  0.00000000000E+00 0. -1.
        -24    2    1    2    0    0  0.77277327096E+01 -0.46609210696E+02 -0.10195052775E+04  0.10230416860E+04  0.70648029661E+02 0.  0.
         25    2    1    2    0    0 -0.61407200728E+02  0.26982975920E+01  0.11161736404E+03  0.17856331858E+03  0.12509315599E+03 0.  0.
         24    2    1    2    0    0  0.53679468019E+02  0.43910913104E+02  0.65230333758E+03  0.66073814506E+03  0.79155533913E+02 0.  0.
        -11    1    5    5    0    0  0.38582689665E+02  0.39875207608E+01  0.10782686673E+03  0.11459126254E+03  0.00000000000E+00 0.  1.
         12    1    5    5    0    0  0.15096778354E+02  0.39923392343E+02  0.54447647085E+03  0.54614688252E+03  0.00000000000E+00 0. -1.
         11    1    3    3    0    0 -0.20542157308E+02 -0.26166413733E+02 -0.80751596194E+03  0.80820089719E+03  0.00000000000E+00 0. -1.
        -12    1    3    3    0    0  0.28269890018E+02 -0.20442796963E+02 -0.21198931552E+03  0.21484078878E+03  0.00000000000E+00 0.  1.
          5    1    4    4  501    0 -0.83493128800E+02 -0.38794393032E+02  0.75505519792E+02  0.11914135893E+03  0.41800000000E+01 0. -1.
         -5    1    4    4    0  501  0.22085928071E+02  0.41492690624E+02  0.36111844246E+02  0.59421959652E+02  0.41800000000E+01 0. -1.
</event>
<event>
11    1  0.8864208E-009  0.1754451E+03  0.7561462E-02  0.1073388E+00
         22   -1    0    0    0    0  0.00000000000E+00  0.00000000000E+00  0.65157380622E+03  0.65157380622E+03  0.00000000000E+00 0. -1.
         22   -1    0    0    0    0 -0.00000000000E+00 -0.00000000000E+00 -0.25016291748E+03  0.25016291748E+03  0.00000000000E+00 0. -1.
         24    2    1    2    0    0 -0.30062175974E+02  0.56714174478E+02 -0.19643927975E+03  0.21913200014E+03  0.72871193531E+02 0.  0.
         25    2    1    2    0    0  0.13948165742E+03 -0.17521084376E+02  0.33598046786E+03  0.38508579787E+03  0.12508427471E+03 0.  0.
        -24    2    1    2    0    0 -0.10941948145E+03 -0.39193090102E+02  0.26186970063E+03  0.29751892569E+03  0.80206295293E+02 0.  0.
        -13    1    3    3    0    0 -0.24265033994E+02  0.16080111714E+02 -0.14313330607E+02  0.32438145763E+02  0.00000000000E+00 0.  1.
         14    1    3    3    0    0 -0.57971419803E+01  0.40634062764E+02 -0.18212594914E+03  0.18669385438E+03  0.00000000000E+00 0. -1.
         13    1    5    5    0    0 -0.79903003925E+02 -0.55988460482E+02  0.23421135404E+03  0.25372062609E+03  0.00000000000E+00 0. -1.
        -14    1    5    5    0    0 -0.29516477525E+02  0.16795370380E+02  0.27658346587E+02  0.43798299597E+02  0.00000000000E+00 0.  1.
          5    1    4    4  501    0  0.28744285804E+02  0.47708509736E+02  0.13950772422E+03  0.15027379473E+03  0.41800000000E+01 0. -1.
         -5    1    4    4    0  501  0.11073737162E+03 -0.65229594112E+02  0.19647274365E+03  0.23481200314E+03  0.41800000000E+01 0. -1.
</event>
<event>
11    1  0.8864208E-009  0.1399298E+03  0.7561462E-02  0.1107637E+00
         22   -1    0    0    0    0  0.00000000000E+00  0.00000000000E+00  0.70133411388E+03  0.70133411388E+03  0.00000000000E+00 0.  1.
         22   -1    0    0    0    0 -0.00000000000E+00 -0.00000000000E+00 -0.47042170788E+03  0.47042170788E+03  0.00000000000E+00 0.  1.
         24    2    1    2    0    0  0.47525604921E+02 -0.15251976899E+02 -0.39302167412E+03  0.40361963775E+03  0.77145769353E+02 0.  0.
         25    2    1    2    0    0  0.12799809302E+02  0.39453997913E+02 -0.36759559135E+01  0.13183833403E+03  0.12508949036E+03 0.  0.
        -24    2    1    2    0    0 -0.60325414223E+02 -0.24202021014E+02  0.62761003603E+03  0.63629784997E+03  0.82193084450E+02 0.  0.
        -11    1    3    3    0    0  0.26030664587E+02  0.81153208500E+01 -0.34484747059E+03  0.34592373712E+03  0.00000000000E+00 0.  1.
         12    1    3    3    0    0  0.21494940334E+02 -0.23367297749E+02 -0.48174203535E+02  0.57695900637E+02  0.00000000000E+00 0. -1.
         13    1    5    5    0    0 -0.69874401113E+02 -0.33204613131E+02  0.35315819677E+03  0.36153241931E+03  0.00000000000E+00 0. -1.
        -14    1    5    5    0    0  0.95489868906E+01  0.90025921175E+01  0.27445183925E+03  0.27476543066E+03  0.00000000000E+00 0.  1.
          5    1    4    4  501    0 -0.30922658884E+02  0.32641728272E+02 -0.50181897250E+02  0.67508432575E+02  0.41800000000E+01 0. -1.
         -5    1    4    4    0  501  0.43722468186E+02  0.68122696403E+01  0.46505941336E+02  0.64329901457E+02  0.41800000000E+01 0. -1.
</event>
<event>
11    1  0.8864208E-009  0.1392217E+03  0.7561462E-02  0.1108431E+00
         22   -1    0    0    0    0  0.00000000000E+00  0.00000000000E+00  0.16253195132E+03  0.16253195132E+03  0.00000000000E+00 0. -1.
         22   -1    0    0    0    0 -0.00000000000E+00 -0.00000000000E+00 -0.14428162557E+04  0.14428162557E+04  0.00000000000E+00 0. -1.
        -24    2    1    2    0    0 -0.55259691953E+02  0.19241394893E+02 -0.11949141694E+04  0.11989628312E+04  0.79171545068E+02 0.  0.
         25    2    1    2    0    0  0.83783749990E+02 -0.52485716755E+02 -0.20238293027E+03  0.25764447708E+03  0.12508940355E+03 0.  0.
         24    2    1    2    0    0 -0.28524058036E+02  0.33244321861E+02  0.11701279529E+03  0.14874089873E+03  0.80703493550E+02 0.  0.
        -13    1    5    5    0    0  0.21349004990E+02  0.23761315694E+02  0.16085279108E+02  0.35764736006E+02  0.00000000000E+00 0.  1.
         14    1    5    5    0    0 -0.49873063027E+02  0.94830061669E+01  0.10092751618E+03  0.11297616273E+03  0.00000000000E+00 0. -1.
         11    1    3    3    0    0 -0.70867439459E+02  0.21097165895E+02 -0.71960095736E+03  0.72338981346E+03  0.00000000000E+00 0. -1.
        -12    1    3    3    0    0  0.15607747506E+02 -0.18557710020E+01 -0.47531321203E+03  0.47557301774E+03  0.00000000000E+00 0.  1.
          5    1    4    4  501    0 -0.42860907243E+01 -0.38550119580E+02 -0.29229473115E+01  0.39121583740E+02  0.41800000000E+01 0.  1.
         -5    1    4    4    0  501  0.88069840714E+02 -0.13935597174E+02 -0.19945998296E+03  0.21852289334E+03  0.41800000000E+01 0.  1.
</event>
<event>
11    1  0.8864208E-009  0.1623793E+03  0.7561462E-02  0.1084861E+00
         22   -1    0    0    0    0  0.00000000000E+00  0.00000000000E+00  0.98311929081E+03  0.98311929081E+03  0.00000000000E+00 0.  1.
         22   -1    0    0    0    0 -0.00000000000E+00 -0.00000000000E+00 -0.59249299529E+03  0.59249299529E+03  0.00000000000E+00 0.  1.
        -24    2    1    2    0    0 -0.10317343234E+03 -0.10897836464E+01 -0.55203861617E+03  0.56736600097E+03  0.80694488961E+02 0.  0.
         25    2    1    2    0    0  0.11529766225E+03 -0.31785610367E+02  0.21883346666E+03  0.27899710514E+03  0.12508965825E+03 0.  0.
         24    2    1    2    0    0 -0.12124229916E+02  0.32875394013E+02  0.72383144503E+03  0.72924917999E+03  0.81514521456E+02 0.  0.
        -13    1    5    5    0    0 -0.10781425418E+02 -0.18760240751E+02  0.45417831348E+03  0.45469344201E+03  0.00000000000E+00 0.  1.
         14    1    5    5    0    0 -0.13428044985E+01  0.51635634764E+02  0.26965313155E+03  0.27455573798E+03  0.00000000000E+00 0. -1.
         13    1    3    3    0    0 -0.32450796326E+02  0.36956313858E+02 -0.16962085606E+03  0.17660707269E+03  0.00000000000E+00 0. -1.
        -14    1    3    3    0    0 -0.70722636010E+02 -0.38046097505E+02 -0.38241776011E+03  0.39075892828E+03  0.00000000000E+00 0.  1.
          5    1    4    4  501    0  0.32889026254E+02 -0.42799240512E+02  0.11182385689E+02  0.55280929678E+02  0.41800000000E+01 0.  1.
         -5    1    4    4    0  501  0.82408635998E+02  0.11013630146E+02  0.20765108097E+03  0.22371617546E+03  0.41800000000E+01 0.  1.
</event>
<event>
11    1  0.8864208E-009  0.1642417E+03  0.7561462E-02  0.1083154E+00
         22   -1    0    0    0    0  0.00000000000E+00  0.00000000000E+00  0.20515753795E+04  0.20515753795E+04  0.00000000000E+00 0.  1.
         22   -1    0    0    0    0 -0.00000000000E+00 -0.00000000000E+00 -0.12421688985E+04  0.12421688985E+04  0.00000000000E+00 0.  1.
         24    2    1    2    0    0  0.94579053263E+02 -0.48731990663E+02 -0.12251901127E+04  0.12323181541E+04  0.78722400516E+02 0.  0.
         25    2    1    2    0    0 -0.65458108991E+02  0.12586185145E+03  0.82893131913E+03  0.85023515948E+03  0.12508686945E+03 0.  0.
        -24    2    1    2    0    0 -0.29120944272E+02 -0.77129860783E+02  0.12056652746E+04  0.12111909645E+04  0.80979956344E+02 0.  0.
        -13    1    3    3    0    0  0.99486084678E+02 -0.18011140939E+02 -0.91225448435E+03  0.91783992420E+03  0.00000000000E+00 0.  1.
         14    1    3    3    0    0 -0.49070314152E+01 -0.30720849724E+02 -0.31293562834E+03  0.31447822985E+03  0.00000000000E+00 0. -1.
         13    1    5    5    0    0  0.99097833692E+01 -0.31620537166E+02  0.14110306300E+03  0.14494183856E+03  0.00000000000E+00 0. -1.
        -14    1    5    5    0    0 -0.39030727641E+02 -0.45509323617E+02  0.10645622116E+04  0.10662491259E+04  0.00000000000E+00 0.  1.
          5    1    4    4  501    0  0.23353433132E+01  0.10421936926E+03  0.63711419453E+03  0.64559979866E+03  0.41800000000E+01 0.  1.
         -5    1    4    4    0  501 -0.67793452304E+02  0.21642482181E+02  0.19181712460E+03  0.20463536083E+03  0.41800000000E+01 0.  1.
</event>
<event>
11    1  0.8864208E-009  0.1268276E+03  0.7561462E-02  0.1123229E+00
         22   -1    0    0    0    0  0.00000000000E+00  0.00000000000E+00  0.36124753596E+03  0.36124753596E+03  0.00000000000E+00 0. -1.
         22   -1    0    0    0    0 -0.00000000000E+00 -0.00000000000E+00 -0.12326188169E+03  0.12326188169E+03  0.00000000000E+00 0.  1.
        -24    2    1    2    0    0  0.14351008276E+02 -0.90409332660E+01 -0.62505267509E+02  0.10397042036E+03  0.81334186732E+02 0.  0.
         25    2    1    2    0    0  0.80239948574E+01 -0.41321984140E+00  0.91112493134E+02  0.15496452888E+03  0.12509182053E+03 0.  0.
         24    2    1    2    0    0 -0.22375003133E+02  0.94541531074E+01  0.20937842865E+03  0.22557446840E+03  0.80339857078E+02 0.  0.
        -13    1    5    5    0    0  0.25378253293E+02  0.15611844548E+02  0.42607801755E+02  0.51992405222E+02  0.00000000000E+00 0.  1.
         14    1    5    5    0    0 -0.47753256427E+02 -0.61576914411E+01  0.16677062689E+03  0.17358206318E+03  0.00000000000E+00 0. -1.
         13    1    3    3    0    0 -0.10217489966E+02  0.21862839638E+02  0.60324182795E+01  0.24875106603E+02  0.00000000000E+00 0. -1.
        -14    1    3    3    0    0  0.24568498242E+02 -0.30903772904E+02 -0.68537685788E+02  0.79095313760E+02  0.00000000000E+00 0.  1.
          5    1    4    4  501    0 -0.21579369361E+02 -0.42299570841E+02  0.91865752574E+02  0.10349739983E+03  0.41800000000E+01 0. -1.
         -5    1    4    4    0  501  0.29603364219E+02  0.41886351000E+02 -0.75325944000E+00  0.51467129053E+02  0.41800000000E+01 0. -1.
</event>
<event>
11    1  0.8864208E-009  0.3223501E+03  0.7561462E-02  0.9911521E-01
         22   -1    0    0    0    0  0.00000000000E+00  0.00000000000E+00  0.48457855293E+03  0.48457855293E+03  0.00000000000E+00 0.  1.
         22   -1    0    0    0    0 -0.00000000000E+00 -0.00000000000E+00 -0.74436137136E+03  0.74436137136E+03  0.00000000000E+00 0. -1.
         24    2    1    2    0    0  0.27870458765E+03  0.50694620847E+02 -0.50219532748E+03  0.58216298315E+03  0.80420148274E+02 0.  0.
         25    2    1    2    0    0 -0.40590800797E+03 -0.10098852255E+03  0.21207961951E+03  0.48537122050E+03  0.12508982395E+03 0.  0.
        -24    2    1    2    0    0  0.12720342032E+03  0.50293901701E+02  0.30332889544E+02  0.16140572064E+03  0.80134485568E+02 0.  0.
        -13    1    3    3    0    0  0.64674783347E+01  0.11877563933E+01  0.21341568931E+01  0.69132963848E+01  0.00000000000E+00 0.  1.
         14    1    3    3    0    0  0.27223710931E+03  0.49506864454E+02 -0.50432948437E+03  0.57524968677E+03  0.00000000000E+00 0. -1.
         13    1    5    5    0    0  0.87663768747E+01 -0.34028423871E+01  0.29921116867E+02  0.31364022931E+02  0.00000000000E+00 0. -1.
        -14    1    5    5    0    0  0.11843704345E+03  0.53696744088E+02  0.41177267714E+00  0.13004169771E+03  0.00000000000E+00 0.  1.
          5    1    4    4  501    0 -0.16728966361E+03  0.20321669913E+02  0.73245222888E+02  0.18379645506E+03  0.41800000000E+01 0.  1.
         -5    1    4    4    0  501 -0.23861834437E+03 -0.12131019246E+03  0.13883439662E+03  0.30157476544E+03  0.41800000000E+01 0.  1.
</event>
<event>
11    1  0.8864208E-009  0.1219846E+04  0.7561462E-02  0.8494096E-01
         22   -1    0    0    0    0  0.00000000000E+00  0.00000000000E+00  0.63505001990E+03  0.63505001990E+03  0.00000000000E+00 0.  1.
         22   -1    0    0    0    0 -0.00000000000E+00 -0.00000000000E+00 -0.58579004092E+03  0.58579004092E+03  0.00000000000E+00 0.  1.
         24    2    1    2    0    0 -0.30824468626E+03  0.32771738688E+03  0.86777180195E+01  0.45744574652E+03  0.82266858145E+02 0.  0.
         25    2    1    2    0    0  0.28784150870E+03 -0.48789132052E+03  0.54377101294E+02  0.58266103993E+03  0.12508534501E+03 0.  0.
        -24    2    1    2    0    0  0.20403177556E+02  0.16017393364E+03 -0.13794840331E+02  0.18073327438E+03  0.80013999870E+02 0.  0.
        -11    1    3    3    0    0 -0.25361333269E+03  0.21910295401E+03 -0.42756232618E+01  0.33517772589E+03  0.00000000000E+00 0.  1.
         12    1    3    3    0    0 -0.54631353568E+02  0.10861443286E+03  0.12953341281E+02  0.12226802063E+03  0.00000000000E+00 0. -1.
         13    1    5    5    0    0 -0.28768810481E+02  0.70506907466E+02  0.66671289649E+01  0.76441605592E+02  0.00000000000E+00 0. -1.
        -14    1    5    5    0    0  0.49171988038E+02  0.89667026179E+02 -0.20461969296E+02  0.10429166879E+03  0.00000000000E+00 0.  1.
          5    1    4    4  501    0  0.98864354572E+02 -0.10370339408E+03  0.57597548815E+02  0.15447816861E+03  0.41800000000E+01 0.  1.
         -5    1    4    4    0  501  0.18897715413E+03 -0.38418792644E+03 -0.32204475206E+01  0.42818287132E+03  0.41800000000E+01 0.  1.
</event>
<event>
11    1  0.8864208E-009  0.2518834E+03  0.7561462E-02  0.1022901E+00
         22   -1    0    0    0    0  0.00000000000E+00  0.00000000000E+00  0.28102122971E+04  0.28102122971E+04  0.00000000000E+00 0.  1.
         22   -1    0    0    0    0 -0.00000000000E+00 -0.00000000000E+00 -0.71293680735E+02  0.71293680735E+02  0.00000000000E+00 0. -1.
        -24    2    1    2    0    0  0.12897903727E+03  0.15873149971E+03  0.21602198490E+03  0.30806110667E+03  0.80030409354E+02 0.  0.
         25    2    1    2    0    0 -0.19467972549E+03 -0.18884035944E+03  0.92822627427E+03  0.97509617403E+03  0.12509058910E+03 0.  0.
         24    2    1    2    0    0  0.65700688215E+02  0.30108859722E+02  0.15946703572E+04  0.15983486972E+04  0.80758192780E+02 0.  0.
        -11    1    5    5    0    0  0.63843994454E+02 -0.93010531221E+01  0.11936116104E+04  0.11953540236E+04  0.00000000000E+00 0.  1.
         12    1    5    5    0    0  0.18566937608E+01  0.39409912845E+02  0.40105874676E+03  0.40299467353E+03  0.00000000000E+00 0. -1.
         11    1    3    3    0    0  0.41111937623E+02  0.37709336874E+01  0.45961590902E+02  0.61780896677E+02  0.00000000000E+00 0. -1.
        -12    1    3    3    0    0  0.87867099650E+02  0.15496056603E+03  0.17006039400E+03  0.24628020999E+03  0.00000000000E+00 0.  1.
          5    1    4    4  501    0 -0.12530398572E+03 -0.17409786609E+03  0.80250551918E+03  0.83068871217E+03  0.41800000000E+01 0. -1.
         -5    1    4    4    0  501 -0.69375739766E+02 -0.14742493351E+02  0.12572075510E+03  0.14440746186E+03  0.41800000000E+01 0. -1.
</event>
<event>
11    1  0.8864208E-009  0.1708890E+03  0.7561462E-02  0.1077261E+00
         22   -1    0    0    0    0  0.00000000000E+00  0.00000000000E+00  0.33232280185E+03  0.33232280185E+03  0.00000000000E+00 0.  1.
         22   -1    0    0    0    0 -0.00000000000E+00 -0.00000000000E+00 -0.79543080417E+03  0.79543080417E+03  0.00000000000E+00 0.  1.
         24    2    1    2    0    0  0.45069056554E+02  0.65513688215E+01 -0.61128803365E+03  0.61784153898E+03  0.77336711291E+02 0.  0.
         25    2    1    2    0    0 -0.97306787473E+02  0.95755380012E+02 -0.11000259788E+03  0.21537507627E+03  0.12509255872E+03 0.  0.
        -24    2    1    2    0    0  0.52237730920E+02 -0.10230674883E+03  0.25818262921E+03  0.29453699078E+03  0.83056110688E+02 0.  0.
        -13    1    3    3    0    0 -0.13454916088E+01  0.11179484559E+02 -0.44480640864E+03  0.44494890986E+03  0.00000000000E+00 0.  1.
         14    1    3    3    0    0  0.46414548162E+02 -0.46281157377E+01 -0.16648162501E+03  0.17289262912E+03  0.00000000000E+00 0. -1.
         13    1    5    5    0    0 -0.11592428777E+02 -0.17988069357E+02  0.78698985716E+01  0.22801104089E+02  0.00000000000E+00 0. -1.
        -14    1    5    5    0    0  0.63830159697E+02 -0.84318679476E+02  0.25031273064E+03  0.27173588669E+03  0.00000000000E+00 0.  1.
          5    1    4    4  501    0 -0.22590804453E+02 -0.28972884212E+02 -0.83144737463E+01  0.37899542729E+02  0.41800000000E+01 0. -1.
         -5    1    4    4    0  501 -0.74715983021E+02  0.12472826422E+03 -0.10168812413E+03  0.17747553354E+03  0.41800000000E+01 0. -1.
</event>
<event>
11    1  0.8864208E-009  0.1403421E+03  0.7561462E-02  0.1107177E+00
         22   -1    0    0    0    0  0.00000000000E+00  0.00000000000E+00  0.31871298368E+03  0.31871298368E+03  0.00000000000E+00 0.  1.
         22   -1    0    0    0    0 -0.00000000000E+00 -0.00000000000E+00 -0.51449728335E+03  0.51449728335E+03  0.00000000000E+00 0. -1.
         24    2    1    2    0    0 -0.17718464632E+02 -0.62226585835E+02 -0.43554591208E+03  0.44798923631E+03  0.82510740809E+02 0.  0.
         25    2    1    2    0    0 -0.14618744490E+02  0.56389788654E+02  0.11006421484E+02  0.13842693019E+03  0.12508939896E+03 0.  0.
        -24    2    1    2    0    0  0.32337209122E+02  0.58367971811E+01  0.22875519093E+03  0.24679410053E+03  0.86594615212E+02 0.  0.
        -13    1    3    3    0    0 -0.46524503370E+02 -0.16107316908E+02 -0.17287657431E+03  0.17975061897E+03  0.00000000000E+00 0.  1.
         14    1    3    3    0    0  0.28806038738E+02 -0.46119268927E+02 -0.26266933777E+03  0.26823861735E+03  0.00000000000E+00 0. -1.
         13    1    5    5    0    0  0.45350112385E+00  0.43293149458E+02  0.11376095356E+03  0.12172122662E+03  0.00000000000E+00 0. -1.
        -14    1    5    5    0    0  0.31883707999E+02 -0.37456352276E+02  0.11499423736E+03  0.12507287391E+03  0.00000000000E+00 0.  1.
          5    1    4    4  501    0 -0.26472857793E+02 -0.37922235376E+00 -0.48384464068E+02  0.55312609525E+02  0.41800000000E+01 0.  1.
         -5    1    4    4    0  501  0.11854113303E+02  0.56769011008E+02  0.59390885553E+02  0.83114320666E+02  0.41800000000E+01 0.  1.
</event>
<event>
11    1  0.1074269E-008  0.1875813E+03  0.7561462E-02  0.1063670E+00
         22   -1    0    0    0    0  0.00000000000E+00  0.00000000000E+00  0.10837148433E+04  0.10837148433E+04  0.00000000000E+00 0.  1.
         22   -1    0    0    0    0 -0.00000000000E+00 -0.00000000000E+00 -0.14290657348E+04  0.14290657348E+04  0.00000000000E+00 0.  1.
        -24    2    1    2    0    0 -0.75286054375E+02 -0.29487253847E+02 -0.12337862672E+04  0.12391787090E+04  0.82448962948E+02 0.  0.
         25    2    1    2    0    0 -0.38465741324E+02  0.11311549082E+03 -0.14609093997E+03  0.22641699797E+03  0.12508943485E+03 0.  0.
         24    2    1    2    0    0  0.11375179570E+03 -0.83628236969E+02  0.10345263158E+04  0.10471848711E+04  0.80114313972E+02 0.  0.
        -13    1    5    5    0    0  0.98165181522E+02 -0.96301059574E+02  0.96715720062E+03  0.97688451091E+03  0.00000000000E+00 0.  1.
         14    1    5    5    0    0  0.15586614176E+02  0.12672822605E+02  0.67369115132E+02  0.70300360226E+02  0.00000000000E+00 0. -1.
         13    1    3    3    0    0  0.14494007486E+02  0.72149442610E+01 -0.28165380166E+03  0.28211876163E+03  0.00000000000E+00 0. -1.
        -14    1    3    3    0    0 -0.89780061861E+02 -0.36702198108E+02 -0.95213246556E+03  0.95705994735E+03  0.00000000000E+00 0.  1.
          5    1    4    4  501    0 -0.32530471096E+02 -0.11775483185E+02 -0.74577841789E+02  0.82317801477E+02  0.41800000000E+01 0. -1.
         -5    1    4    4    0  501 -0.59352702272E+01  0.12489097400E+03 -0.71513098179E+02  0.14409919650E+03  0.41800000000E+01 0. -1.
</event>
<event>
11    1  0.8864208E-009  0.1500550E+03  0.7561462E-02  0.1096823E+00
         22   -1    0    0    0    0  0.00000000000E+00  0.00000000000E+00  0.26019902052E+04  0.26019902052E+04  0.00000000000E+00 0.  1.
         22   -1    0    0    0    0 -0.00000000000E+00 -0.00000000000E+00 -0.63259536443E+03  0.63259536443E+03  0.00000000000E+00 0. -1.
         24    2    1    2    0    0  0.10837669948E+01  0.11662802047E+02 -0.61597490496E+03  0.62116280224E+03  0.79252431118E+02 0.  0.
         25    2    1    2    0    0 -0.80467642024E+02  0.13039314916E+02  0.43454578680E+03  0.45948104475E+03  0.12509086503E+03 0.  0.
        -24    2    1    2    0    0  0.79383875029E+02 -0.24702116963E+02  0.21508239590E+04  0.21539417227E+04  0.80679910518E+02 0.  0.
        -13    1    3    3    0    0  0.36106198774E+02 -0.10128686138E+02 -0.35084431962E+03  0.35284271919E+03  0.00000000000E+00 0.  1.
         14    1    3    3    0    0 -0.35022431779E+02  0.21791488185E+02 -0.26513058534E+03  0.26832008305E+03  0.00000000000E+00 0. -1.
         13    1    5    5    0    0  0.21225148183E+02  0.23187360454E+01  0.14579498010E+04  0.14581061366E+04  0.00000000000E+00 0. -1.
        -14    1    5    5    0    0  0.58158726846E+02 -0.27020853008E+02  0.69287415801E+03  0.69583558607E+03  0.00000000000E+00 0.  1.
          5    1    4    4  501    0  0.23128052494E+02  0.29071515445E+02  0.61565301459E+02  0.72026512939E+02  0.41800000000E+01 0.  1.
         -5    1    4    4    0  501 -0.10359569452E+03 -0.16032200529E+02  0.37298048534E+03  0.38745453181E+03  0.41800000000E+01 0.  1.
</event>
<event>
11    1  0.8864208E-009  0.1342095E+03  0.7561462E-02  0.1114202E+00
         22   -1    0    0    0    0  0.00000000000E+00  0.00000000000E+00  0.21316712672E+03  0.21316712672E+03  0.00000000000E+00 0.  1.
         22   -1    0    0    0    0 -0.00000000000E+00 -0.00000000000E+00 -0.86370948742E+03  0.86370948742E+03  0.00000000000E+00 0. -1.
        -24    2    1    2    0    0 -0.23270377352E+02 -0.46960239144E+02 -0.47003534312E+03  0.48040835670E+03  0.84333806295E+02 0.  0.
         25    2    1    2    0    0 -0.81202502873E+01  0.46082304704E+02 -0.37126195874E+03  0.39455331055E+03  0.12508939039E+03 0.  0.
         24    2    1    2    0    0  0.31390627639E+02  0.87793443933E+00  0.19075494116E+03  0.20191494689E+03  0.58275689010E+02 0.  0.
        -11    1    5    5    0    0  0.33865201297E+02 -0.10536967145E+02  0.18592185907E+03  0.18927444946E+03  0.00000000000E+00 0.  1.
         12    1    5    5    0    0 -0.24745736571E+01  0.11414901584E+02  0.48330820822E+01  0.12640497434E+02  0.00000000000E+00 0. -1.
         11    1    3    3    0    0  0.25143318678E+02 -0.41588540241E+02 -0.28252573676E+03  0.28667505138E+03  0.00000000000E+00 0. -1.
        -12    1    3    3    0    0 -0.48413696030E+02 -0.53716989025E+01 -0.18750960636E+03  0.19373330532E+03  0.00000000000E+00 0.  1.
          5    1    4    4  501    0 -0.36517501871E+02  0.63030918745E+02 -0.11542130631E+03  0.13655026551E+03  0.41800000000E+01 0. -1.
         -5    1    4    4    0  501  0.28397251584E+02 -0.16948614041E+02 -0.25584065243E+03  0.25800304504E+03  0.41800000000E+01 0. -1.
</event>
<event>
11    1  0.8864208E-009  0.2105088E+03  0.7561462E-02  0.1047331E+00
         22   -1    0    0    0    0  0.00000000000E+00  0.00000000000E+00  0.18298680880E+04  0.18298680880E+04  0.00000000000E+00 0. -1.
         22   -1    0    0    0    0 -0.00000000000E+00 -0.00000000000E+00 -0.44207305460E+03  0.44207305460E+03  0.00000000000E+00 0.  1.
        -24    2    1    2    0    0 -0.12471259490E+02 -0.51649948975E+02 -0.39782051843E+03  0.40956393844E+03  0.81597826243E+02 0.  0.
         25    2    1    2    0    0  0.12531776275E+03  0.16800407022E+03  0.42778982697E+03  0.49252644029E+03  0.12509296165E+03 0.  0.
         24    2    1    2    0    0 -0.11284650326E+03 -0.11635412125E+03  0.13578257249E+04  0.13698507639E+04  0.80794810280E+02 0.  0.
        -11    1    5    5    0    0 -0.43194196215E+02 -0.14176291156E+02  0.18414742235E+03  0.18967598419E+03  0.00000000000E+00 0.  1.
         12    1    5    5    0    0 -0.69652307049E+02 -0.10217783009E+03  0.11736783025E+04  0.11801747797E+04  0.00000000000E+00 0. -1.
         13    1    3    3    0    0 -0.11980488579E+02  0.20501629360E+02 -0.13232074773E+03  0.13443447918E+03  0.00000000000E+00 0. -1.
        -14    1    3    3    0    0 -0.49077091050E+00 -0.72151578335E+02 -0.26549977070E+03  0.27512945926E+03  0.00000000000E+00 0.  1.
          5    1    4    4  501    0  0.14486064638E+03  0.16198348664E+03  0.35009370067E+03  0.41207563440E+03  0.41800000000E+01 0.  1.
         -5    1    4    4    0  501 -0.19542883626E+02  0.60205835800E+01  0.77696126296E+02  0.80450805890E+02  0.41800000000E+01 0.  1.
</event>
<event>
11    1  0.8864208E-009  0.1443225E+03  0.7561462E-02  0.1102825E+00
         22   -1    0    0    0    0  0.00000000000E+00  0.00000000000E+00  0.68096364718E+03  0.68096364718E+03  0.00000000000E+00 0.  1.
         22   -1    0    0    0    0 -0.00000000000E+00 -0.00000000000E+00 -0.82459987856E+03  0.82459987856E+03  0.00000000000E+00 0. -1.
        -24    2    1    2    0    0  0.68306875561E+02  0.11537015016E+02 -0.57718611023E+03  0.58671867451E+03  0.79347748655E+02 0.  0.
         25    2    1    2    0    0 -0.76407452659E+02 -0.55891878017E+02 -0.21369343056E+03  0.26509230246E+03  0.12508815174E+03 0.  0.
         24    2    1    2    0    0  0.81005770985E+01  0.44354863001E+02  0.64724330941E+03  0.65375254878E+03  0.80221694296E+02 0.  0.
        -13    1    5    5    0    0 -0.30565564736E+02  0.43251276706E+02  0.34427810983E+03  0.34832792537E+03  0.00000000000E+00 0.  1.
         14    1    5    5    0    0  0.38666141835E+02  0.11035862950E+01  0.30296519958E+03  0.30542462341E+03  0.00000000000E+00 0. -1.
         11    1    3    3    0    0  0.66562867147E+02  0.39214772401E+02 -0.44476019239E+03  0.45142002879E+03  0.00000000000E+00 0. -1.
        -12    1    3    3    0    0  0.17440084138E+01 -0.27677757384E+02 -0.13242591784E+03  0.13529864572E+03  0.00000000000E+00 0.  1.
          5    1    4    4  501    0 -0.12839227174E+01 -0.69205245274E+02 -0.15134242779E+03  0.16647227181E+03  0.41800000000E+01 0.  1.
         -5    1    4    4    0  501 -0.75123529942E+02  0.13313367257E+02 -0.62351002774E+02  0.98620030650E+02  0.41800000000E+01 0.  1.
</event>
<event>
11    1  0.8864208E-009  0.1640924E+03  0.7561462E-02  0.1083290E+00
         22   -1    0    0    0    0  0.00000000000E+00  0.00000000000E+00  0.82293481208E+03  0.82293481208E+03  0.00000000000E+00 0.  1.
         22   -1    0    0    0    0 -0.00000000000E+00 -0.00000000000E+00 -0.18292370224E+03  0.18292370224E+03  0.00000000000E+00 0.  1.
         24    2    1    2    0    0 -0.95744914836E+02  0.20935828573E+02 -0.79427927278E+02  0.15101013439E+03  0.83005225261E+02 0.  0.
         25    2    1    2    0    0  0.14027483409E+03  0.14148351115E+01  0.73273967639E+02  0.20173070544E+03  0.12508865795E+03 0.  0.
        -24    2    1    2    0    0 -0.44529919254E+02 -0.22350663685E+02  0.64616506948E+03  0.65311767449E+03  0.80937839301E+02 0.  0.
        -13    1    3    3    0    0 -0.11096352636E+03  0.21553023643E+02 -0.67435215533E+02  0.13162425804E+03  0.00000000000E+00 0.  1.
         14    1    3    3    0    0  0.15218611528E+02 -0.61719506925E+00 -0.11992711745E+02  0.19385876343E+02  0.00000000000E+00 0. -1.
         13    1    5    5    0    0  0.17942540769E+01  0.10449531990E+02  0.41325521961E+03  0.41339120528E+03  0.00000000000E+00 0. -1.
        -14    1    5    5    0    0 -0.46324173331E+02 -0.32800195675E+02  0.23290984987E+03  0.23972646920E+03  0.00000000000E+00 0.  1.
          5    1    4    4  501    0  0.10194230347E+02 -0.79485239872E+01 -0.31553608495E+02  0.34354096917E+02  0.41800000000E+01 0.  1.
         -5    1    4    4    0  501  0.13008060374E+03  0.93633590987E+01  0.10482757613E+03  0.16737660853E+03  0.41800000000E+01 0.  1.
</event>
<event>
11    1  0.8864208E-009  0.3085741E+03  0.7561462E-02  0.9966264E-01
         22   -1    0    0    0    0  0.00000000000E+00  0.00000000000E+00  0.57979911478E+03  0.57979911478E+03  0.00000000000E+00 0.  1.
         22   -1    0    0    0    0 -0.00000000000E+00 -0.00000000000E+00 -0.37627621614E+03  0.37627621614E+03  0.00000000000E+00 0.  1.
        -24    2    1    2    0    0  0.16109818608E+03  0.24232222720E+03 -0.14730338294E+02  0.30218644146E+03  0.80168417612E+02 0.  0.
         25    2    1    2    0    0 -0.16908862173E+03  0.76557429651E+02 -0.49697419746E+02  0.22928244720E+03  0.12509438450E+03 0.  0.
         24    2    1    2    0    0  0.79904356523E+01 -0.31887965685E+03  0.26795065668E+03  0.42460644227E+03  0.82127911095E+02 0.  0.
        -13    1    5    5    0    0  0.65942580947E+01 -0.29618113865E+03  0.27119043727E+03  0.40163541228E+03  0.00000000000E+00 0.  1.
         14    1    5    5    0    0  0.13961775576E+01 -0.22698518200E+02 -0.32397805862E+01  0.22971029984E+02  0.00000000000E+00 0. -1.
         11    1    3    3    0    0  0.66263616977E+02  0.91575510979E+02  0.33095808072E+02  0.11778061665E+03  0.00000000000E+00 0. -1.
        -12    1    3    3    0    0  0.94834569101E+02  0.15074671622E+03 -0.47826146366E+02  0.18440582481E+03  0.00000000000E+00 0.  1.
          5    1    4    4  501    0 -0.82742203205E+02  0.97070098828E+02 -0.57737955903E+02  0.14007148257E+03  0.41800000000E+01 0.  1.
         -5    1    4    4    0  501 -0.86346418525E+02 -0.20512669177E+02  0.80405361576E+01  0.89210964632E+02  0.41800000000E+01 0.  1.
</event>
<event>
11    1  0.8864208E-009  0.1719192E+03  0.7561462E-02  0.1076373E+00
         22   -1    0    0    0    0  0.00000000000E+00  0.00000000000E+00  0.83301174082E+02  0.83301174082E+02  0.00000000000E+00 0.  1.
         22   -1    0    0    0    0 -0.00000000000E+00 -0.00000000000E+00 -0.14670466018E+04  0.14670466018E+04  0.00000000000E+00 0. -1.
         24    2    1    2    0    0 -0.11445440575E+03  0.29092156907E+02 -0.12062154017E+04  0.12147816021E+04  0.82417115346E+02 0.  0.
         25    2    1    2    0    0  0.10327284228E+03 -0.64093564826E+02 -0.17305280219E+03  0.24570458114E+03  0.12510077475E+03 0.  0.
        -24    2    1    2    0    0  0.11181563467E+02  0.35001407919E+02 -0.44772237850E+01  0.89861592599E+02  0.81883663656E+02 0.  0.
        -13    1    3    3    0    0  0.24201751390E+01  0.25090188996E+02 -0.29888399605E+03  0.29994502484E+03  0.00000000000E+00 0.  1.
         14    1    3    3    0    0 -0.11687458089E+03  0.40019679106E+01 -0.90733140567E+03  0.91483657728E+03  0.00000000000E+00 0. -1.
         13    1    5    5    0    0 -0.31099491729E+02  0.35313168369E+02 -0.66539386423E+01  0.47523395771E+02  0.00000000000E+00 0. -1.
        -14    1    5    5    0    0  0.42281055197E+02 -0.31176045008E+00  0.21767148573E+01  0.42338196828E+02  0.00000000000E+00 0.  1.
          5    1    4    4  501    0  0.20216586031E+02  0.30718357723E+02 -0.77966765203E+01  0.37823120135E+02  0.41800000000E+01 0. -1.
         -5    1    4    4    0  501  0.83056256253E+02 -0.94811922549E+02 -0.16525612567E+03  0.20788146101E+03  0.41800000000E+01 0. -1.
</event>
<event>
11    1  0.8864208E-009  0.1357956E+03  0.7561462E-02  0.1112346E+00
         22   -1    0    0    0    0  0.00000000000E+00  0.00000000000E+00  0.10177168133E+04  0.10177168133E+04  0.00000000000E+00 0.  1.
         22   -1    0    0    0    0 -0.00000000000E+00 -0.00000000000E+00 -0.15017912977E+04  0.15017912977E+04  0.00000000000E+00 0.  1.
         24    2    1    2    0    0 -0.60167363478E+01  0.50432936693E+01 -0.14527839985E+04  0.14550036555E+04  0.79954081392E+02 0.  0.
         25    2    1    2    0    0  0.39803931290E+02 -0.45123618615E+02  0.60879956822E+02  0.15157829889E+03  0.12509643340E+03 0.  0.
        -24    2    1    2    0    0 -0.33787194942E+02  0.40080324945E+02  0.90782955731E+03  0.91292615672E+03  0.80818658104E+02 0.  0.
        -13    1    3    3    0    0 -0.31288038040E+02  0.25914208047E+02 -0.10855545564E+04  0.10863144952E+04  0.00000000000E+00 0.  1.
         14    1    3    3    0    0  0.25271301692E+02 -0.20870914378E+02 -0.36722944211E+03  0.36868916028E+03  0.00000000000E+00 0. -1.
         13    1    5    5    0    0 -0.16256044405E+02 -0.86913441953E+01  0.46234534281E+02  0.49773794348E+02  0.00000000000E+00 0. -1.
        -14    1    5    5    0    0 -0.17531150536E+02  0.48771669141E+02  0.86159502303E+03  0.86315236237E+03  0.00000000000E+00 0.  1.
          5    1    4    4  501    0  0.59092447041E+02 -0.28514333389E+02  0.90781399155E+02  0.11208799819E+03  0.41800000000E+01 0.  1.
         -5    1    4    4    0  501 -0.19288515751E+02 -0.16609285226E+02 -0.29901442333E+02  0.39490300698E+02  0.41800000000E+01 0.  1.
</event>
<event>
11    1  0.8864208E-009  0.1604157E+03  0.7561462E-02  0.1086687E+00
         22   -1    0    0    0    0  0.00000000000E+00  0.00000000000E+00  0.16695511448E+04  0.16695511448E+04  0.00000000000E+00 0.  1.
         22   -1    0    0    0    0 -0.00000000000E+00 -0.00000000000E+00 -0.14737684407E+03  0.14737684407E+03  0.00000000000E+00 0.  1.
        -24    2    1    2    0    0 -0.24327076338E+02  0.11304352882E+03 -0.56271132990E+02  0.15206520231E+03  0.81158729004E+02 0.  0.
         25    2    1    2    0    0 -0.55644197434E+02 -0.63244908845E+02  0.99431558323E+02  0.18063777934E+03  0.12508867787E+03 0.  0.
         24    2    1    2    0    0  0.79971273772E+02 -0.49798619974E+02  0.14790138754E+04  0.14842250072E+04  0.81034074963E+02 0.  0.
        -11    1    5    5    0    0  0.76444200172E+02 -0.46528886491E+01  0.10625525307E+04  0.10653089906E+04  0.00000000000E+00 0.  1.
         12    1    5    5    0    0  0.35270735997E+01 -0.45145731325E+02  0.41646134471E+03  0.41891601658E+03  0.00000000000E+00 0. -1.
         13    1    3    3    0    0 -0.29796165789E+02  0.21405951437E+01 -0.75723509290E+01  0.30817756925E+02  0.00000000000E+00 0. -1.
        -14    1    3    3    0    0  0.54690894510E+01  0.11090293368E+03 -0.48698782061E+02  0.12124744538E+03  0.00000000000E+00 0.  1.
          5    1    4    4  501    0 -0.97890252761E+01  0.26203124624E+02  0.70492422589E+02  0.75954478462E+02  0.41800000000E+01 0. -1.
         -5    1    4    4    0  501 -0.45855172158E+02 -0.89448033469E+02  0.28939135734E+02  0.10468330088E+03  0.41800000000E+01 0. -1.
</event>
<event>
11    1  0.8864208E-009  0.1432109E+03  0.7561462E-02  0.1104025E+00
         22   -1    0    0    0    0  0.00000000000E+00  0.00000000000E+00  0.96749330541E+03  0.96749330541E+03  0.00000000000E+00 0.  1.
         22   -1    0    0    0    0 -0.00000000000E+00 -0.00000000000E+00 -0.20808376407E+03  0.20808376407E+03  0.00000000000E+00 0. -1.
        -24    2    1    2    0    0 -0.48577567796E+02  0.23207804746E+02 -0.16600467092E+03  0.19218787919E+03  0.80499986612E+02 0.  0.
         25    2    1    2    0    0  0.63042117580E+00 -0.76209910496E+02  0.18924553563E+03  0.23931023138E+03  0.12508863338E+03 0.  0.
         24    2    1    2    0    0  0.47947146620E+02  0.53002105749E+02  0.73616867664E+03  0.74407895890E+03  0.81246689347E+02 0.  0.
        -11    1    5    5    0    0  0.70550773104E+02  0.46344285301E+02  0.59484745225E+03  0.60080670420E+03  0.00000000000E+00 0.  1.
         12    1    5    5    0    0 -0.22603626484E+02  0.66578204481E+01  0.14132122439E+03  0.14327225470E+03  0.00000000000E+00 0. -1.
         13    1    3    3    0    0  0.41061136663E+01  0.16801008877E+02 -0.12207328949E+03  0.12329242506E+03  0.00000000000E+00 0. -1.
        -14    1    3    3    0    0 -0.52683681462E+02  0.64067958688E+01 -0.43931381432E+02  0.68895454134E+02  0.00000000000E+00 0.  1.
          5    1    4    4  501    0 -0.46162600379E+02 -0.86184417901E+02  0.11657461675E+03  0.15220332859E+03  0.41800000000E+01 0.  1.
         -5    1    4    4    0  501  0.46793021555E+02  0.99745074056E+01  0.72670918879E+02  0.87106902797E+02  0.41800000000E+01 0.  1.
</event>
<event>
11    1  0.8864208E-009  0.1523327E+03  0.7561462E-02  0.1094519E+00
         22   -1    0    0    0    0  0.00000000000E+00  0.00000000000E+00  0.32856543925E+03  0.32856543925E+03  0.00000000000E+00 0. -1.
         22   -1    0    0    0    0 -0.00000000000E+00 -0.00000000000E+00 -0.12348001244E+04  0.12348001244E+04  0.00000000000E+00 0.  1.
        -24    2    1    2    0    0  0.81533986965E+02  0.32173980360E+02 -0.11174224939E+04  0.11241848873E+04  0.86461986576E+02 0.  0.
         25    2    1    2    0    0 -0.59412412173E+02 -0.55719737928E+02 -0.54813977012E+02  0.15901266793E+03  0.12508370226E+03 0.  0.
         24    2    1    2    0    0 -0.22121574793E+02  0.23545757569E+02  0.26600178567E+03  0.28016800842E+03  0.81813178601E+02 0.  0.
        -13    1    5    5    0    0 -0.13440071676E+02  0.35518743092E+02  0.45916672564E+02  0.59586554330E+02  0.00000000000E+00 0.  1.
         14    1    5    5    0    0 -0.86815031164E+01 -0.11972985523E+02  0.22008511311E+03  0.22058145409E+03  0.00000000000E+00 0. -1.
         11    1    3    3    0    0  0.13149993902E+02  0.38180397775E+02 -0.19097747162E+03  0.19520005067E+03  0.00000000000E+00 0. -1.
        -12    1    3    3    0    0  0.68383993064E+02 -0.60064174152E+01 -0.92644502224E+03  0.92898483668E+03  0.00000000000E+00 0.  1.
          5    1    4    4  501    0 -0.63104285246E+01 -0.26966016916E+02 -0.86335879805E+02  0.90765324426E+02  0.41800000000E+01 0.  1.
         -5    1    4    4    0  501 -0.53101983648E+02 -0.28753721013E+02  0.31521902793E+02  0.68247343502E+02  0.41800000000E+01 0.  1.
</event>
<event>
11    1  0.8864208E-009  0.2301492E+03  0.7561462E-02  0.1035040E+00
         22   -1    0    0    0    0  0.00000000000E+00  0.00000000000E+00  0.90556065952E+03  0.90556065952E+03  0.00000000000E+00 0. -1.
         22   -1    0    0    0    0 -0.00000000000E+00 -0.00000000000E+00 -0.10665805150E+04  0.10665805150E+04  0.00000000000E+00 0. -1.
        -24    2    1    2    0    0  0.92411939358E+02 -0.26604049566E+02 -0.99899935110E+03  0.10066479346E+04  0.78055229179E+02 0.  0.
         25    2    1    2    0    0 -0.22186159397E+03 -0.93365502038E+02  0.36970679048E+03  0.45855411387E+03  0.12509628519E+03 0.  0.
         24    2    1    2    0    0  0.12944965462E+03  0.11996955160E+03  0.46827270510E+03  0.50693912605E+03  0.80981755897E+02 0.  0.
        -11    1    5    5    0    0  0.13342560912E+02 -0.12125021426E+02  0.52138891040E+02  0.55167962036E+02  0.00000000000E+00 0.  1.
         12    1    5    5    0    0  0.11610709370E+03  0.13209457303E+03  0.41613381406E+03  0.45177116402E+03  0.00000000000E+00 0. -1.
         13    1    3    3    0    0  0.58716723193E+02 -0.18702174367E+02 -0.89337889062E+03  0.89550168460E+03  0.00000000000E+00 0. -1.
        -14    1    3    3    0    0  0.33695216165E+02 -0.79018751994E+01 -0.10562046048E+03  0.11114625003E+03  0.00000000000E+00 0.  1.
          5    1    4    4  501    0 -0.19463801378E+02 -0.75402369541E+01  0.13605062444E+03  0.13770598951E+03  0.41800000000E+01 0.  1.
         -5    1    4    4    0  501 -0.20239779260E+03 -0.85825265084E+02  0.23365616605E+03  0.32084812436E+03  0.41800000000E+01 0.  1.
</event>
<event>
11    1  0.8864208E-009  0.1427605E+03  0.7561462E-02  0.1104514E+00
         22   -1    0    0    0    0  0.00000000000E+00  0.00000000000E+00  0.13981884061E+04  0.13981884061E+04  0.00000000000E+00 0.  1.
         22   -1    0    0    0    0 -0.00000000000E+00 -0.00000000000E+00 -0.49278585857E+03  0.49278585857E+03  0.00000000000E+00 0.  1.
        -24    2    1    2    0    0 -0.60234144934E+02 -0.20721646050E+02 -0.45472512760E+03  0.46653764207E+03  0.82612898286E+02 0.  0.
         25    2    1    2    0    0  0.31249361334E+02 -0.45061862587E+02  0.12672600870E+03  0.18631667675E+03  0.12508928295E+03 0.  0.
         24    2    1    2    0    0  0.28984783600E+02  0.65783508637E+02  0.12334016665E+04  0.12381199459E+04  0.80583757054E+02 0.  0.
        -13    1    5    5    0    0  0.38605814849E+02  0.29196245611E+02  0.10357493225E+04  0.10368796886E+04  0.00000000000E+00 0.  1.
         14    1    5    5    0    0 -0.96210312484E+01  0.36587263026E+02  0.19765234400E+03  0.20124025727E+03  0.00000000000E+00 0. -1.
         11    1    3    3    0    0 -0.88777445480E+01 -0.39892836290E+02 -0.10739775710E+03  0.11491096974E+03  0.00000000000E+00 0. -1.
        -12    1    3    3    0    0 -0.51356400386E+02  0.19171190241E+02 -0.34732737050E+03  0.35162667233E+03  0.00000000000E+00 0.  1.
          5    1    4    4  501    0  0.50859216035E+02  0.53581335476E+01  0.12139652600E+03  0.13179513791E+03  0.41800000000E+01 0.  1.
         -5    1    4    4    0  501 -0.19609854701E+02 -0.50419996135E+02  0.53294826976E+01  0.54521538839E+02  0.41800000000E+01 0.  1.
</event>
<event>
11    1  0.8864208E-009  0.1703777E+03  0.7561462E-02  0.1077703E+00
         22   -1    0    0    0    0  0.00000000000E+00  0.00000000000E+00  0.19311079839E+04  0.19311079839E+04  0.00000000000E+00 0. -1.
         22   -1    0    0    0    0 -0.00000000000E+00 -0.00000000000E+00 -0.12604275260E+03  0.12604275260E+03  0.00000000000E+00 0.  1.
        -24    2    1    2    0    0 -0.52966162700E+02 -0.10304332729E+03 -0.47952126212E+02  0.14831275878E+03  0.79208120283E+02 0.  0.
         25    2    1    2    0    0  0.53396529055E+02  0.10154498811E+03  0.24083970968E+03  0.29464051460E+03  0.12508674255E+03 0.  0.
         24    2    1    2    0    0 -0.43036635480E+00  0.14983391818E+01  0.16121776478E+04  0.16141974631E+04  0.80710913238E+02 0.  0.
        -11    1    5    5    0    0  0.35538685622E+02  0.14279352439E+02  0.54876707364E+03  0.55010198981E+03  0.00000000000E+00 0.  1.
         12    1    5    5    0    0 -0.35969051977E+02 -0.12781013257E+02  0.10634105742E+04  0.10640954733E+04  0.00000000000E+00 0. -1.
         11    1    3    3    0    0 -0.25845767394E+02 -0.45268139105E+01  0.13052220241E+02  0.29306248303E+02  0.00000000000E+00 0. -1.
        -12    1    3    3    0    0 -0.27120395306E+02 -0.98516513381E+02 -0.61004346452E+02  0.11900651048E+03  0.00000000000E+00 0.  1.
          5    1    4    4  501    0  0.57776890461E+02  0.81003026518E+00  0.41669591584E+02  0.71362822837E+02  0.41800000000E+01 0.  1.
         -5    1    4    4    0  501 -0.43803614065E+01  0.10073495784E+03  0.19917011810E+03  0.22327769177E+03  0.41800000000E+01 0.  1.
</event>
<event>
11    1  0.8864208E-009  0.1556686E+03  0.7561462E-02  0.1091223E+00
         22   -1    0    0    0    0  0.00000000000E+00  0.00000000000E+00  0.14004843146E+03  0.14004843146E+03  0.00000000000E+00 0.  1.
         22   -1    0    0    0    0 -0.00000000000E+00 -0.00000000000E+00 -0.28530504549E+04  0.28530504549E+04  0.00000000000E+00 0. -1.
        -24    2    1    2    0    0  0.18204058726E+02  0.16960396258E+02 -0.24569507908E+04  0.24584113272E+04  0.80993964901E+02 0.  0.
         25    2    1    2    0    0  0.22236324731E+02 -0.99665044845E+02 -0.34623249863E+03  0.38203739387E+03  0.12509217363E+03 0.  0.
         24    2    1    2    0    0 -0.40440383458E+02  0.82704648587E+02  0.90181265995E+02  0.15265016532E+03  0.81816433099E+02 0.  0.
        -11    1    5    5    0    0 -0.62135163243E+02  0.76431602821E+02  0.83411531393E+02  0.12907382380E+03  0.00000000000E+00 0.  1.
         12    1    5    5    0    0  0.21694779785E+02  0.62730457656E+01  0.67697346020E+01  0.23576341524E+02  0.00000000000E+00 0. -1.
         13    1    3    3    0    0  0.15487057691E+02  0.47149788435E+02 -0.18894158247E+04  0.18900674883E+04  0.00000000000E+00 0. -1.
        -14    1    3    3    0    0  0.27170010353E+01 -0.30189392177E+02 -0.56753496608E+03  0.56834383890E+03  0.00000000000E+00 0.  1.
          5    1    4    4  501    0 -0.29399193244E+02 -0.44024108866E+02 -0.26700648559E+03  0.27223587286E+03  0.41800000000E+01 0.  1.
         -5    1    4    4    0  501  0.51635517975E+02 -0.55640935979E+02 -0.79226013043E+02  0.10980152101E+03  0.41800000000E+01 0.  1.
</event>
<event>
11    1  0.8864208E-009  0.1523441E+03  0.7561462E-02  0.1094507E+00
         22   -1    0    0    0    0  0.00000000000E+00  0.00000000000E+00  0.19319948008E+03  0.19319948008E+03  0.00000000000E+00 0.  1.
         22   -1    0    0    0    0 -0.00000000000E+00 -0.00000000000E+00 -0.55555726571E+03  0.55555726571E+03  0.00000000000E+00 0.  1.
        -24    2    1    2    0    0  0.27792444023E+02  0.77604055760E+02 -0.27769729679E+03  0.30058361538E+03  0.80249060908E+02 0.  0.
         25    2    1    2    0    0 -0.51233831203E+01 -0.99464652903E+02 -0.22919626921E+03  0.27946371722E+03  0.12509825414E+03 0.  0.
         24    2    1    2    0    0 -0.22669060903E+02  0.21860597142E+02  0.14453578037E+03  0.16870941319E+03  0.81120295015E+02 0.  0.
        -11    1    5    5    0    0 -0.12654933523E+02 -0.25197003273E+01  0.14160328234E+03  0.14218996379E+03  0.00000000000E+00 0.  1.
         12    1    5    5    0    0 -0.10014127380E+02  0.24380297470E+02  0.29324980245E+01  0.26519449401E+02  0.00000000000E+00 0. -1.
         13    1    3    3    0    0  0.46748332451E+02  0.15225647709E+02 -0.13579688400E+03  0.14442306131E+03  0.00000000000E+00 0. -1.
        -14    1    3    3    0    0 -0.18955888428E+02  0.62378408051E+02 -0.14190041279E+03  0.15616055407E+03  0.00000000000E+00 0.  1.
          5    1    4    4  501    0 -0.21158334830E+02 -0.95424257438E+00 -0.15118163521E+03  0.15271524134E+03  0.41800000000E+01 0. -1.
         -5    1    4    4    0  501  0.16034951709E+02 -0.98510410328E+02 -0.78014633997E+02  0.12674847588E+03  0.41800000000E+01 0. -1.
</event>
<event>
11    1  0.8864208E-009  0.1486933E+03  0.7561462E-02  0.1098221E+00
         22   -1    0    0    0    0  0.00000000000E+00  0.00000000000E+00  0.83935578049E+03  0.83935578049E+03  0.00000000000E+00 0. -1.
         22   -1    0    0    0    0 -0.00000000000E+00 -0.00000000000E+00 -0.99735121325E+02  0.99735121325E+02  0.00000000000E+00 0. -1.
         24    2    1    2    0    0  0.13400399937E+02  0.22840555385E+02 -0.51237123972E+02  0.10049047036E+03  0.82291129969E+02 0.  0.
         25    2    1    2    0    0 -0.28102419113E+02 -0.94847617452E+02  0.34935809947E+03  0.38403792391E+03  0.12509288085E+03 0.  0.
        -24    2    1    2    0    0  0.14702019176E+02  0.72007062068E+02  0.44149968366E+03  0.45456250754E+03  0.79397331392E+02 0.  0.
        -11    1    3    3    0    0 -0.10880574031E+02  0.22757109712E+02  0.15409256787E+02  0.29558723389E+02  0.00000000000E+00 0.  1.
         12    1    3    3    0    0  0.24280973968E+02  0.83445672897E-01 -0.66646380759E+02  0.70931746971E+02  0.00000000000E+00 0. -1.
         11    1    5    5    0    0  0.26733830674E+02  0.74688493174E+02  0.24175286312E+03  0.25443568056E+03  0.00000000000E+00 0. -1.
        -12    1    5    5    0    0 -0.12031811499E+02 -0.26814311060E+01  0.19974682054E+03  0.20012682698E+03  0.00000000000E+00 0.  1.
          5    1    4    4  501    0 -0.16949854659E+02 -0.12528841820E+03  0.26781838273E+03  0.29619021563E+03  0.41800000000E+01 0.  1.
         -5    1    4    4    0  501 -0.11152564454E+02  0.30440800744E+02  0.81539716740E+02  0.87847708280E+02  0.41800000000E+01 0.  1.
</event>
<event>
11    1  0.8864208E-009  0.1298964E+03  0.7561462E-02  0.1119396E+00
         22   -1    0    0    0    0  0.00000000000E+00  0.00000000000E+00  0.55601082847E+03  0.55601082847E+03  0.00000000000E+00 0.  1.
         22   -1    0    0    0    0 -0.00000000000E+00 -0.00000000000E+00 -0.12409374228E+03  0.12409374228E+03  0.00000000000E+00 0. -1.
        -24    2    1    2    0    0 -0.20031032668E+02 -0.57304798617E+00 -0.46303828159E+02  0.93354457692E+02  0.78545780377E+02 0.  0.
         25    2    1    2    0    0  0.47343531282E+02 -0.19201287326E+02  0.41605241310E+02  0.14137931078E+03  0.12508802509E+03 0.  0.
         24    2    1    2    0    0 -0.27312498614E+02  0.19774335312E+02  0.43661567304E+03  0.44537080229E+03  0.81147450193E+02 0.  0.
        -11    1    5    5    0    0 -0.25822139080E+02 -0.27372739915E+02  0.25346868719E+03  0.25624680514E+03  0.00000000000E+00 0.  1.
         12    1    5    5    0    0 -0.14903595336E+01  0.47147075227E+02  0.18314698585E+03  0.18912399715E+03  0.00000000000E+00 0. -1.
         13    1    3    3    0    0 -0.25823346938E+02  0.30996894348E+00 -0.67021099913E+02  0.71824572128E+02  0.00000000000E+00 0. -1.
        -14    1    3    3    0    0  0.57923142695E+01 -0.88301692965E+00  0.20717271754E+02  0.21529885564E+02  0.00000000000E+00 0.  1.
          5    1    4    4  501    0  0.19910119400E+02 -0.30456739114E+02  0.82748472235E+02  0.90492032076E+02  0.41800000000E+01 0. -1.
         -5    1    4    4    0  501  0.27433411882E+02  0.11255451788E+02 -0.41143230926E+02  0.50887278699E+02  0.41800000000E+01 0. -1.
</event>
<event>
11    1  0.8864208E-009  0.1367316E+03  0.7561462E-02  0.1111264E+00
         22   -1    0    0    0    0  0.00000000000E+00  0.00000000000E+00  0.49586672615E+03  0.49586672615E+03  0.00000000000E+00 0. -1.
         22   -1    0    0    0    0 -0.00000000000E+00 -0.00000000000E+00 -0.18416364586E+03  0.18416364586E+03  0.00000000000E+00 0. -1.
         24    2    1    2    0    0  0.12339099676E+02  0.94576960081E+01 -0.11472248411E+03  0.14407521078E+03  0.85759644395E+02 0.  0.
         25    2    1    2    0    0  0.36150579997E+02  0.20570108569E+02  0.41650240117E+02  0.13824733486E+03  0.12509032454E+03 0.  0.
        -24    2    1    2    0    0 -0.48489679673E+02 -0.30027804577E+02  0.38477532427E+03  0.39770782637E+03  0.82864629967E+02 0.  0.
        -11    1    3    3    0    0  0.35078357297E+02  0.17502531573E+02 -0.15820285826E+02  0.42274238086E+02  0.00000000000E+00 0.  1.
         12    1    3    3    0    0 -0.22739257621E+02 -0.80448355650E+01 -0.98902198285E+02  0.10180097270E+03  0.00000000000E+00 0. -1.
         11    1    5    5    0    0 -0.11696704846E+02 -0.12592194033E+02  0.32458741398E+03  0.32504209815E+03  0.00000000000E+00 0. -1.
        -12    1    5    5    0    0 -0.36792974828E+02 -0.17435610544E+02  0.60187910295E+02  0.72665728217E+02  0.00000000000E+00 0.  1.
          5    1    4    4  501    0  0.64977723057E+02  0.55054415862E+02  0.17470795311E+02  0.87039038876E+02  0.41800000000E+01 0. -1.
         -5    1    4    4    0  501 -0.28827143060E+02 -0.34484307293E+02  0.24179444807E+02  0.51208295985E+02  0.41800000000E+01 0. -1.
</event>
<event>
11    1  0.8864208E-009  0.1521325E+03  0.7561462E-02  0.1094720E+00
         22   -1    0    0    0    0  0.00000000000E+00  0.00000000000E+00  0.10102497423E+04  0.10102497423E+04  0.00000000000E+00 0.  1.
         22   -1    0    0    0    0 -0.00000000000E+00 -0.00000000000E+00 -0.31659570526E+03  0.31659570526E+03  0.00000000000E+00 0. -1.
        -24    2    1    2    0    0 -0.88951713507E+02 -0.19329887370E+02 -0.25757467965E+03  0.28477518555E+03  0.80412305203E+02 0.  0.
         25    2    1    2    0    0  0.55093723651E+02 -0.21502494903E+02  0.69378086824E+02  0.15478668607E+03  0.12509166072E+03 0.  0.
         24    2    1    2    0    0  0.33857989856E+02  0.40832382273E+02  0.88185062990E+03  0.88728357598E+03  0.82449765470E+02 0.  0.
        -13    1    5    5    0    0  0.30648132102E+02  0.49469603014E+02  0.87143970962E+03  0.87338062557E+03  0.00000000000E+00 0.  1.
         14    1    5    5    0    0  0.32098577538E+01 -0.86372207414E+01  0.10410920287E+02  0.13902950412E+02  0.00000000000E+00 0. -1.
         13    1    3    3    0    0 -0.74033506836E+02  0.20771251716E+02 -0.14110889308E+03  0.16069886353E+03  0.00000000000E+00 0. -1.
        -14    1    3    3    0    0 -0.14918206671E+02 -0.40101139086E+02 -0.11646578657E+03  0.12407632202E+03  0.00000000000E+00 0.  1.
          5    1    4    4  501    0  0.20414222985E+02 -0.74456651854E+00 -0.36135431581E+02  0.41719739871E+02  0.41800000000E+01 0.  1.
         -5    1    4    4    0  501  0.34679500666E+02 -0.20757928384E+02  0.10551351840E+03  0.11306694620E+03  0.41800000000E+01 0.  1.
</event>
<event>
11    1  0.8864208E-009  0.1974636E+03  0.7561462E-02  0.1056332E+00
         22   -1    0    0    0    0  0.00000000000E+00  0.00000000000E+00  0.14844289914E+04  0.14844289914E+04  0.00000000000E+00 0.  1.
         22   -1    0    0    0    0 -0.00000000000E+00 -0.00000000000E+00 -0.44091792848E+03  0.44091792848E+03  0.00000000000E+00 0.  1.
        -24    2    1    2    0    0 -0.46433140188E+02 -0.68820161150E+02 -0.40533265103E+03  0.42122142205E+03  0.78997957639E+02 0.  0.
         25    2    1    2    0    0  0.16235710791E+03  0.12917091915E+03  0.73533821818E+03  0.77421770157E+03  0.12508316222E+03 0.  0.
         24    2    1    2    0    0 -0.11592396773E+03 -0.60350757999E+02  0.71350549581E+03  0.72990779630E+03  0.81207870722E+02 0.  0.
        -13    1    5    5    0    0 -0.82256468759E+02 -0.55702653399E+02  0.65297320635E+03  0.66048688137E+03  0.00000000000E+00 0.  1.
         14    1    5    5    0    0 -0.33667498966E+02 -0.46481046006E+01  0.60532289462E+02  0.69420914936E+02  0.00000000000E+00 0. -1.
         11    1    3    3    0    0 -0.51048198815E+02 -0.63379137760E+01 -0.16324257948E+03  0.17115556523E+03  0.00000000000E+00 0. -1.
        -12    1    3    3    0    0  0.46150586270E+01 -0.62482247374E+02 -0.24209007155E+03  0.25006585681E+03  0.00000000000E+00 0.  1.
          5    1    4    4  501    0 -0.11370765274E+02 -0.46357164298E+01  0.12495295149E+03  0.12562442698E+03  0.41800000000E+01 0. -1.
         -5    1    4    4    0  501  0.17372787319E+03  0.13380663558E+03  0.61038526669E+03  0.64859327459E+03  0.41800000000E+01 0. -1.
</event>
<event>
11    1  0.8864208E-009  0.1571548E+03  0.7561462E-02  0.1089784E+00
         22   -1    0    0    0    0  0.00000000000E+00  0.00000000000E+00  0.84451310315E+03  0.84451310315E+03  0.00000000000E+00 0.  1.
         22   -1    0    0    0    0 -0.00000000000E+00 -0.00000000000E+00 -0.72082170087E+03  0.72082170087E+03  0.00000000000E+00 0. -1.
        -24    2    1    2    0    0  0.79912708736E+01 -0.45885031331E+01 -0.69206919452E+03  0.69674806304E+03  0.80082323776E+02 0.  0.
         25    2    1    2    0    0 -0.89981900910E+02 -0.40727214607E+02  0.32432764477E+03  0.36137338262E+03  0.12508737746E+03 0.  0.
         24    2    1    2    0    0  0.81990630036E+02  0.45315717741E+02  0.49143295203E+03  0.50721335837E+03  0.83564746631E+02 0.  0.
        -13    1    5    5    0    0  0.44152017755E+02  0.61321528608E+02  0.39854629298E+03  0.40564624760E+03  0.00000000000E+00 0.  1.
         14    1    5    5    0    0  0.37838612281E+02 -0.16005810867E+02  0.92886659047E+02  0.10156711077E+03  0.00000000000E+00 0. -1.
         11    1    3    3    0    0 -0.24682437662E+02 -0.25610978259E+02 -0.46678164888E+03  0.46813486590E+03  0.00000000000E+00 0. -1.
        -12    1    3    3    0    0  0.32673708536E+02  0.21022475126E+02 -0.22528754564E+03  0.22861319714E+03  0.00000000000E+00 0.  1.
          5    1    4    4  501    0 -0.96682292232E+02 -0.61635588211E+02  0.31811913200E+03  0.33817697424E+03  0.41800000000E+01 0. -1.
         -5    1    4    4    0  501  0.67003913220E+01  0.20908373604E+02  0.62085127759E+01  0.23196408375E+02  0.41800000000E+01 0. -1.
</event>
<event>
11    1  0.8864208E-009  0.1854080E+03  0.7561462E-02  0.1065350E+00
         22   -1    0    0    0    0  0.00000000000E+00  0.00000000000E+00  0.72369698297E+03  0.72369698297E+03  0.00000000000E+00 0. -1.
         22   -1    0    0    0    0 -0.00000000000E+00 -0.00000000000E+00 -0.49572012169E+03  0.49572012169E+03  0.00000000000E+00 0.  1.
         24    2    1    2    0    0  0.68800360918E+02  0.11918668633E+03 -0.42803475851E+03  0.45652071602E+03  0.79110389958E+02 0.  0.
         25    2    1    2    0    0 -0.71498108297E+02 -0.10681658736E+03  0.10940362721E+03  0.21009049902E+03  0.12508837399E+03 0.  0.
        -24    2    1    2    0    0  0.26977473787E+01 -0.12370098978E+02  0.54660799259E+03  0.55280588962E+03  0.81570563615E+02 0.  0.
        -13    1    3    3    0    0  0.70867405867E+02  0.11470982368E+03 -0.30604064019E+03  0.33442698203E+03  0.00000000000E+00 0.  1.
         14    1    3    3    0    0 -0.20670449488E+01  0.44768626554E+01 -0.12199411833E+03  0.12209373399E+03  0.00000000000E+00 0. -1.
         11    1    5    5    0    0  0.88868443526E+01 -0.16645473087E+02  0.54472481235E+03  0.54505152872E+03  0.00000000000E+00 0. -1.
        -12    1    5    5    0    0 -0.61890969739E+01  0.42753741089E+01  0.18831802422E+01  0.77543608987E+01  0.00000000000E+00 0.  1.
          5    1    4    4  501    0 -0.73142684704E+02 -0.15625509784E+02  0.89377731122E+02  0.11661843809E+03  0.41800000000E+01 0.  1.
         -5    1    4    4    0  501  0.16445764074E+01 -0.91191077571E+02  0.20025896084E+02  0.93472060928E+02  0.41800000000E+01 0.  1.
</event>
<event>
11    1  0.8864208E-009  0.1447344E+03  0.7561462E-02  0.1102384E+00
         22   -1    0    0    0    0  0.00000000000E+00  0.00000000000E+00  0.18281125062E+03  0.18281125062E+03  0.00000000000E+00 0. -1.
         22   -1    0    0    0    0 -0.00000000000E+00 -0.00000000000E+00 -0.55858713714E+03  0.55858713714E+03  0.00000000000E+00 0.  1.
         24    2    1    2    0    0  0.54579765259E+01  0.20329738005E+02 -0.25754097339E+03  0.27080215729E+03  0.81014613863E+02 0.  0.
         25    2    1    2    0    0  0.15584605748E+02  0.50767943791E+02 -0.25886936826E+03  0.29237201569E+03  0.12509109354E+03 0.  0.
        -24    2    1    2    0    0 -0.21042582274E+02 -0.71097681796E+02  0.14063445513E+03  0.17822421479E+03  0.80549054264E+02 0.  0.
        -11    1    3    3    0    0 -0.21921058819E+02  0.10707994526E+02 -0.22831736670E+03  0.22961710281E+03  0.00000000000E+00 0.  1.
         12    1    3    3    0    0  0.27379035345E+02  0.96217434788E+01 -0.29223606694E+02  0.41185054476E+02  0.00000000000E+00 0. -1.
         13    1    5    5    0    0 -0.43502003563E+02 -0.59696778258E+02  0.13260126042E+03  0.15178677121E+03  0.00000000000E+00 0. -1.
        -14    1    5    5    0    0  0.22459421289E+02 -0.11400903537E+02  0.80331947129E+01  0.26437443587E+02  0.00000000000E+00 0.  1.
          5    1    4    4  501    0 -0.12662768267E+02 -0.37864045333E+02 -0.10634083511E+03  0.11366563791E+03  0.41800000000E+01 0. -1.
         -5    1    4    4    0  501  0.28247374015E+02  0.88631989124E+02 -0.15252853315E+03  0.17870637778E+03  0.41800000000E+01 0. -1.
</event>
<event>
11    1  0.8864208E-009  0.1349377E+03  0.7561462E-02  0.1113347E+00
         22   -1    0    0    0    0  0.00000000000E+00  0.00000000000E+00  0.13440094312E+03  0.13440094312E+03  0.00000000000E+00 0. -1.
         22   -1    0    0    0    0 -0.00000000000E+00 -0.00000000000E+00 -0.19384669122E+04  0.19384669122E+04  0.00000000000E+00 0. -1.
        -24    2    1    2    0    0  0.40862608032E+02  0.24265267054E+02 -0.17056462757E+04  0.17096780059E+04  0.10728984168E+03 0.  0.
         25    2    1    2    0    0 -0.74646561414E+02 -0.64131683861E+02 -0.17745365261E+03  0.23837452255E+03  0.12509049592E+03 0.  0.
         24    2    1    2    0    0  0.33783953382E+02  0.39866416807E+02  0.79033959305E+02  0.12481532680E+03  0.81251537736E+02 0.  0.
        -11    1    5    5    0    0  0.40956661081E+02 -0.13180562731E+02  0.37215290602E+02  0.56887196938E+02  0.00000000000E+00 0.  1.
         12    1    5    5    0    0 -0.71727076988E+01  0.53046979539E+02  0.41818668703E+02  0.67928129858E+02  0.00000000000E+00 0. -1.
         13    1    3    3    0    0 -0.18809948773E+02  0.14821863036E+02 -0.12270377508E+04  0.12272714221E+04  0.00000000000E+00 0. -1.
        -14    1    3    3    0    0  0.59672556805E+02  0.94434040178E+01 -0.47860852496E+03  0.48240658378E+03  0.00000000000E+00 0.  1.
          5    1    4    4  501    0 -0.22536082690E+02 -0.20544624701E+02 -0.16663668070E+03  0.16945563544E+03  0.41800000000E+01 0.  1.
         -5    1    4    4    0  501 -0.52110478724E+02 -0.43587059160E+02 -0.10816971909E+02  0.68918887109E+02  0.41800000000E+01 0.  1.
</event>
<event>
11    1  0.8864208E-009  0.1489068E+03  0.7561462E-02  0.1098001E+00
         22   -1    0    0    0    0  0.00000000000E+00  0.00000000000E+00  0.20848833999E+04  0.20848833999E+04  0.00000000000E+00 0.  1.
         22   -1    0    0    0    0 -0.00000000000E+00 -0.00000000000E+00 -0.33720236905E+02  0.33720236905E+02  0.00000000000E+00 0.  1.
        -24    2    1    2    0    0  0.46133818518E+01  0.50841033440E+02  0.72679231893E+02  0.11909409392E+03  0.79341278563E+02 0.  0.
         25    2    1    2    0    0 -0.26915554817E+01 -0.11891736729E+03  0.93657140128E+03  0.95234596786E+03  0.12509303776E+03 0.  0.
         24    2    1    2    0    0 -0.19218263701E+01  0.68076333854E+02  0.10419125299E+04  0.10471635751E+04  0.79572309323E+02 0.  0.
        -11    1    5    5    0    0 -0.26680985589E+02  0.71048770204E+02  0.88872609029E+03  0.89196068652E+03  0.00000000000E+00 0.  1.
         12    1    5    5    0    0  0.24759159218E+02 -0.29724363509E+01  0.15318643958E+03  0.15520288855E+03  0.00000000000E+00 0. -1.
         13    1    3    3    0    0  0.26412887229E+02 -0.83810038607E+01  0.38169825529E+02  0.47167970260E+02  0.00000000000E+00 0. -1.
        -14    1    3    3    0    0 -0.21799505378E+02  0.59222037301E+02  0.34509406364E+02  0.71926123657E+02  0.00000000000E+00 0.  1.
          5    1    4    4  501    0 -0.33055917464E+02 -0.13073066692E+03  0.82784648498E+03  0.83876723591E+03  0.41800000000E+01 0.  1.
         -5    1    4    4    0  501  0.30364361983E+02  0.11813299621E+02  0.10872491630E+03  0.11357873195E+03  0.41800000000E+01 0.  1.
</event>
<event>
11    1  0.8864208E-009  0.1260848E+03  0.7561462E-02  0.1124175E+00
         22   -1    0    0    0    0  0.00000000000E+00  0.00000000000E+00  0.11880915733E+04  0.11880915733E+04  0.00000000000E+00 0. -1.
         22   -1    0    0    0    0 -0.00000000000E+00 -0.00000000000E+00 -0.39531812843E+02  0.39531812843E+02  0.00000000000E+00 0. -1.
         24    2    1    2    0    0 -0.14111755344E+02 -0.13518677381E+02  0.63038518403E+02  0.10395984921E+03  0.80323714856E+02 0.  0.
         25    2    1    2    0    0  0.76837236726E+01 -0.35151522493E+00  0.21134198356E+03  0.24570762663E+03  0.12509052961E+03 0.  0.
        -24    2    1    2    0    0  0.64280316711E+01  0.13870192606E+02  0.87417925845E+03  0.87795591025E+03  0.79896824795E+02 0.  0.
        -11    1    3    3    0    0 -0.17652819101E+02 -0.23869503250E+02  0.79122037777E+02  0.84508414194E+02  0.00000000000E+00 0.  1.
         12    1    3    3    0    0  0.35410637572E+01  0.10350825869E+02 -0.16083519374E+02  0.19451435016E+02  0.00000000000E+00 0. -1.
         11    1    5    5    0    0 -0.21464992656E+02 -0.22507732078E+02  0.50229388046E+03  0.50325588547E+03  0.00000000000E+00 0. -1.
        -12    1    5    5    0    0  0.27893024327E+02  0.36377924683E+02  0.37188537799E+03  0.37470002478E+03  0.00000000000E+00 0.  1.
          5    1    4    4  501    0  0.25264820823E+02  0.58154070168E+02  0.11911681487E+03  0.13500553705E+03  0.41800000000E+01 0. -1.
         -5    1    4    4    0  501 -0.17581097151E+02 -0.58505585393E+02  0.92225168687E+02  0.11070208958E+03  0.41800000000E+01 0. -1.
</event>
<event>
11    1  0.8864208E-009  0.2070994E+03  0.7561462E-02  0.1049614E+00
         22   -1    0    0    0    0  0.00000000000E+00  0.00000000000E+00  0.11059634882E+04  0.11059634882E+04  0.00000000000E+00 0. -1.
         22   -1    0    0    0    0 -0.00000000000E+00 -0.00000000000E+00 -0.10339223483E+04  0.10339223483E+04  0.00000000000E+00 0. -1.
         24    2    1    2    0    0  0.14951115186E+03 -0.11827353611E+02 -0.60675565515E+03  0.63035867894E+03  0.81891197517E+02 0.  0.
         25    2    1    2    0    0 -0.22456679232E+03 -0.10045369602E+03 -0.36262231326E+03  0.45570138938E+03  0.12509046707E+03 0.  0.
        -24    2    1    2    0    0  0.75055640460E+02  0.11228104963E+03  0.10414191083E+04  0.10538257682E+04  0.88060248636E+02 0.  0.
        -13    1    3    3    0    0  0.50610556257E+02 -0.43248608563E+02 -0.26185790247E+03  0.27018777107E+03  0.00000000000E+00 0.  1.
         14    1    3    3    0    0  0.98900595602E+02  0.31421254952E+02 -0.34489775268E+03  0.36017090787E+03  0.00000000000E+00 0. -1.
         13    1    5    5    0    0  0.52190439585E+02  0.64792703025E+02  0.88209738634E+03  0.88601226590E+03  0.00000000000E+00 0. -1.
        -14    1    5    5    0    0  0.22865200875E+02  0.47488346607E+02  0.15932172193E+03  0.16781350229E+03  0.00000000000E+00 0.  1.
          5    1    4    4  501    0 -0.18811576761E+03 -0.11728157287E+03 -0.24062997338E+03  0.32720447101E+03  0.41800000000E+01 0. -1.
         -5    1    4    4    0  501 -0.36451024706E+02  0.16827876849E+02 -0.12199233988E+03  0.12849691837E+03  0.41800000000E+01 0. -1.
</event>
<event>
11    1  0.8864208E-009  0.1389969E+03  0.7561462E-02  0.1108684E+00
         22   -1    0    0    0    0  0.00000000000E+00  0.00000000000E+00  0.56918036867E+03  0.56918036867E+03  0.00000000000E+00 0.  1.
         22   -1    0    0    0    0 -0.00000000000E+00 -0.00000000000E+00 -0.13396786120E+04  0.13396786120E+04  0.00000000000E+00 0.  1.
         24    2    1    2    0    0  0.17529094701E+02 -0.15710962662E+02 -0.74008093959E+03  0.74510853890E+03  0.83143454801E+02 0.  0.
         25    2    1    2    0    0  0.38319676515E+02 -0.83202929966E+01 -0.58449207604E+03  0.59901279845E+03  0.12509085045E+03 0.  0.
        -24    2    1    2    0    0 -0.55848771216E+02  0.24031255659E+02  0.55407477232E+03  0.56473764331E+03  0.90736794945E+02 0.  0.
        -11    1    3    3    0    0  0.22195514775E+02 -0.46209611119E+02 -0.56580075732E+03  0.56811835564E+03  0.00000000000E+00 0.  1.
         12    1    3    3    0    0 -0.46664200735E+01  0.30498648457E+02 -0.17428018227E+03  0.17699018325E+03  0.00000000000E+00 0. -1.
         13    1    5    5    0    0 -0.33271803597E+01  0.32003235745E+02  0.62454672406E+02  0.70255699645E+02  0.00000000000E+00 0. -1.
        -14    1    5    5    0    0 -0.52521590856E+02 -0.79719800863E+01  0.49162009991E+03  0.49448194366E+03  0.00000000000E+00 0.  1.
          5    1    4    4  501    0  0.44895501598E+02  0.16870725290E+02 -0.56283587367E+03  0.56489106961E+03  0.41800000000E+01 0. -1.
         -5    1    4    4    0  501 -0.65758250836E+01 -0.25191018286E+02 -0.21656202376E+02  0.34121728842E+02  0.41800000000E+01 0. -1.
</event>
<event>
11    1  0.8864208E-009  0.1520219E+03  0.7561462E-02  0.1094831E+00
         22   -1    0    0    0    0  0.00000000000E+00  0.00000000000E+00  0.28403669445E+03  0.28403669445E+03  0.00000000000E+00 0.  1.
         22   -1    0    0    0    0 -0.00000000000E+00 -0.00000000000E+00 -0.59409483715E+03  0.59409483715E+03  0.00000000000E+00 0.  1.
         24    2    1    2    0    0 -0.62830347057E+02 -0.63123387738E+02 -0.48711965112E+03  0.50173659286E+03  0.80757906854E+02 0.  0.
         25    2    1    2    0    0  0.42850325118E+02  0.51092633669E+02 -0.37729034798E+02  0.14668862791E+03  0.12508983137E+03 0.  0.
        -24    2    1    2    0    0  0.19980021939E+02  0.12030754069E+02  0.21479054321E+03  0.22970631084E+03  0.78013277498E+02 0.  0.
        -11    1    3    3    0    0 -0.56209274157E+02  0.38236586423E+00 -0.24119557690E+03  0.24765890862E+03  0.00000000000E+00 0.  1.
         12    1    3    3    0    0 -0.66210728994E+01 -0.63505753603E+02 -0.24592407422E+03  0.25407768424E+03  0.00000000000E+00 0. -1.
         11    1    5    5    0    0 -0.73122189578E+01  0.18949517005E+01 -0.42986238438E+01  0.86912343763E+01  0.00000000000E+00 0. -1.
        -12    1    5    5    0    0  0.27292240897E+02  0.10135802368E+02  0.21908916705E+03  0.22101507646E+03  0.00000000000E+00 0.  1.
          5    1    4    4  501    0  0.82234243363E+02  0.40525626081E+02 -0.49191875379E+02  0.10412545392E+03  0.41800000000E+01 0. -1.
         -5    1    4    4    0  501 -0.39383918245E+02  0.10567007589E+02  0.11462840581E+02  0.42563173988E+02  0.41800000000E+01 0. -1.
</event>
<event>
11    1  0.8864208E-009  0.1462476E+03  0.7561462E-02  0.1100776E+00
         22   -1    0    0    0    0  0.00000000000E+00  0.00000000000E+00  0.59866462186E+02  0.59866462186E+02  0.00000000000E+00 0. -1.
         22   -1    0    0    0    0 -0.00000000000E+00 -0.00000000000E+00 -0.18455382161E+04  0.18455382161E+04  0.00000000000E+00 0.  1.
        -24    2    1    2    0    0  0.25256863091E+02  0.39450031065E+02 -0.87645759608E+03  0.88092997339E+03  0.75269424138E+02 0.  0.
         25    2    1    2    0    0  0.51454234087E+02 -0.27985289048E+02 -0.90413057916E+03  0.91462095989E+03  0.12509469014E+03 0.  0.
         24    2    1    2    0    0 -0.76711097178E+02 -0.11464742017E+02 -0.50835786375E+01  0.10985374496E+03  0.77627120071E+02 0.  0.
        -11    1    5    5    0    0  0.14010614178E+02  0.55445684014E+01 -0.88497310619E+01  0.17474475336E+02  0.00000000000E+00 0.  1.
         12    1    5    5    0    0 -0.90721711356E+02 -0.17009310418E+02  0.37661524244E+01  0.92379269625E+02  0.00000000000E+00 0. -1.
         13    1    3    3    0    0  0.18699133867E+02 -0.12569410150E+02 -0.53464200419E+03  0.53511654835E+03  0.00000000000E+00 0. -1.
        -14    1    3    3    0    0  0.65577292240E+01  0.52019441215E+02 -0.34181559189E+03  0.34581342504E+03  0.00000000000E+00 0.  1.
          5    1    4    4  501    0 -0.20610092611E+02  0.33062736829E+02 -0.17170882682E+03  0.17612300841E+03  0.41800000000E+01 0.  1.
         -5    1    4    4    0  501  0.72064326698E+02 -0.61048025877E+02 -0.73242175234E+03  0.73849795148E+03  0.41800000000E+01 0.  1.
</event>
<event>
11    1  0.8864208E-009  0.1410479E+03  0.7561462E-02  0.1106394E+00
         22   -1    0    0    0    0  0.00000000000E+00  0.00000000000E+00  0.19027450383E+04  0.19027450383E+04  0.00000000000E+00 0.  1.
         22   -1    0    0    0    0 -0.00000000000E+00 -0.00000000000E+00 -0.17211968605E+03  0.17211968605E+03  0.00000000000E+00 0. -1.
        -24    2    1    2    0    0  0.73670726798E+01 -0.36279956581E+02 -0.14457208365E+03  0.17018328329E+03  0.81797026418E+02 0.  0.
         25    2    1    2    0    0  0.36060832213E+02 -0.18193443366E+02  0.32711322954E+03  0.35253668144E+03  0.12509061445E+03 0.  0.
         24    2    1    2    0    0 -0.43427904893E+02  0.54473399947E+02  0.15480842064E+04  0.15521447597E+04  0.87950614412E+02 0.  0.
        -13    1    5    5    0    0  0.22537215262E+02  0.14892779867E+02  0.71672754293E+03  0.71723642669E+03  0.00000000000E+00 0.  1.
         14    1    5    5    0    0 -0.65965120155E+02  0.39580620080E+02  0.83135666348E+03  0.83490833298E+03  0.00000000000E+00 0. -1.
         13    1    3    3    0    0  0.91388181602E+00 -0.55606021542E+02 -0.54611061681E+02  0.77943780185E+02  0.00000000000E+00 0. -1.
        -14    1    3    3    0    0  0.64531908638E+01  0.19326064960E+02 -0.89961021968E+02  0.92239503103E+02  0.00000000000E+00 0.  1.
          5    1    4    4  501    0  0.15340225781E+02  0.13672915745E+02 -0.21320650252E+01  0.21078170064E+02  0.41800000000E+01 0. -1.
         -5    1    4    4    0  501  0.20720606432E+02 -0.31866359110E+02  0.32924529456E+03  0.33145851138E+03  0.41800000000E+01 0. -1.
</event>
<event>
11    1  0.8864208E-009  0.4705287E+03  0.7561462E-02  0.9461899E-01
         22   -1    0    0    0    0  0.00000000000E+00  0.00000000000E+00  0.26921054533E+04  0.26921054533E+04  0.00000000000E+00 0. -1.
         22   -1    0    0    0    0 -0.00000000000E+00 -0.00000000000E+00 -0.96249374262E+03  0.96249374262E+03  0.00000000000E+00 0. -1.
         24    2    1    2    0    0 -0.25852887426E+03 -0.35012907463E+03 -0.42629510039E+03  0.61436847899E+03  0.79332008907E+02 0.  0.
         25    2    1    2    0    0  0.14407181165E+03  0.47928722988E+03 -0.28673003327E+03  0.59019899125E+03  0.12509117337E+03 0.  0.
        -24    2    1    2    0    0  0.11445706261E+03 -0.12915815525E+03  0.24426368443E+04  0.24500317256E+04  0.79990345038E+02 0.  0.
        -11    1    3    3    0    0 -0.90314493957E+02 -0.70361558687E+02 -0.89393591972E+02  0.14525381594E+03  0.00000000000E+00 0.  1.
         12    1    3    3    0    0 -0.16821438030E+03 -0.27976751594E+03 -0.33690150842E+03  0.46911466305E+03  0.00000000000E+00 0. -1.
         13    1    5    5    0    0  0.46100159207E+02 -0.10978965285E+03  0.15657617256E+04  0.15702830235E+04  0.00000000000E+00 0. -1.
        -14    1    5    5    0    0  0.68356903399E+02 -0.19368502401E+02  0.87687511871E+03  0.87974870215E+03  0.00000000000E+00 0.  1.
          5    1    4    4  501    0  0.79846965669E+02  0.21663023104E+03 -0.63360405730E+02  0.23944980338E+03  0.41800000000E+01 0. -1.
         -5    1    4    4    0  501  0.64224845985E+02  0.26265699884E+03 -0.22336962754E+03  0.35074918787E+03  0.41800000000E+01 0. -1.
</event>
<event>
11    1  0.8864208E-009  0.1574911E+03  0.7561462E-02  0.1089461E+00
         22   -1    0    0    0    0  0.00000000000E+00  0.00000000000E+00  0.16702107300E+04  0.16702107300E+04  0.00000000000E+00 0. -1.
         22   -1    0    0    0    0 -0.00000000000E+00 -0.00000000000E+00 -0.35625295081E+04  0.35625295081E+04  0.00000000000E+00 0.  1.
        -24    2    1    2    0    0 -0.86285459638E+02  0.42182211990E+02 -0.34741184110E+04  0.34763920098E+04  0.81105809009E+02 0.  0.
         25    2    1    2    0    0  0.58289647542E+02 -0.51027267160E+02 -0.23215146504E+02  0.14896849345E+03  0.12510477213E+03 0.  0.
         24    2    1    2    0    0  0.27995812096E+02  0.88450551702E+01  0.16050147794E+04  0.16073797349E+04  0.82068079972E+02 0.  0.
        -13    1    5    5    0    0  0.29098932726E+02  0.22101330132E+02  0.28940509392E+03  0.29170280264E+03  0.00000000000E+00 0.  1.
         14    1    5    5    0    0 -0.11031206293E+01 -0.13256274962E+02  0.13156096854E+04  0.13156769323E+04  0.00000000000E+00 0. -1.
         13    1    3    3    0    0 -0.55467585055E+01  0.31836286794E+02 -0.44138458031E+03  0.44256599895E+03  0.00000000000E+00 0. -1.
        -14    1    3    3    0    0 -0.80738701133E+02  0.10345925196E+02 -0.30327338307E+04  0.30338260108E+04  0.00000000000E+00 0.  1.
          5    1    4    4  501    0  0.92731658160E+02 -0.60757232152E+02 -0.20621341568E+02  0.11284198603E+03  0.41800000000E+01 0.  1.
         -5    1    4    4    0  501 -0.34442010618E+02  0.97299649915E+01 -0.25938049360E+01  0.36126507418E+02  0.41800000000E+01 0.  1.
</event>
<event>
11    1  0.8864208E-009  0.2981326E+03  0.7561462E-02  0.1000985E+00
         22   -1    0    0    0    0  0.00000000000E+00  0.00000000000E+00  0.14515444177E+04  0.14515444177E+04  0.00000000000E+00 0.  1.
         22   -1    0    0    0    0 -0.00000000000E+00 -0.00000000000E+00 -0.56015099422E+03  0.56015099422E+03  0.00000000000E+00 0. -1.
         24    2    1    2    0    0  0.37615347814E+02 -0.28772649290E+02 -0.44984596412E+03  0.45962979641E+03  0.81580503635E+02 0.  0.
         25    2    1    2    0    0  0.12511193836E+03  0.24480479876E+03  0.16844571947E+03  0.34583651395E+03  0.12508615975E+03 0.  0.
        -24    2    1    2    0    0 -0.16272728618E+03 -0.21603214947E+03  0.11727936681E+04  0.12062291016E+04  0.79959978512E+02 0.  0.
        -13    1    3    3    0    0  0.37093116499E+02 -0.28646639176E+02 -0.10736613794E+03  0.11714954889E+03  0.00000000000E+00 0.  1.
         14    1    3    3    0    0  0.52223131477E+00 -0.12601011409E+00 -0.34247982618E+03  0.34248024752E+03  0.00000000000E+00 0. -1.
         13    1    5    5    0    0 -0.21665246358E+02 -0.37486384398E+01  0.46220389198E+02  0.51183586896E+02  0.00000000000E+00 0. -1.
        -14    1    5    5    0    0 -0.14106203982E+03 -0.21228351103E+03  0.11265732789E+04  0.11550455147E+04  0.00000000000E+00 0.  1.
          5    1    4    4  501    0  0.23005943995E+02 -0.10088658641E+02  0.40831227121E+01  0.25791447872E+02  0.41800000000E+01 0.  1.
         -5    1    4    4    0  501  0.10210599437E+03  0.25489345740E+03  0.16436259676E+03  0.32004506608E+03  0.41800000000E+01 0.  1.
</event>
<event>
11    1  0.8864208E-009  0.1721985E+03  0.7561462E-02  0.1076134E+00
         22   -1    0    0    0    0  0.00000000000E+00  0.00000000000E+00  0.73715214667E+03  0.73715214667E+03  0.00000000000E+00 0. -1.
         22   -1    0    0    0    0 -0.00000000000E+00 -0.00000000000E+00 -0.61968671257E+03  0.61968671257E+03  0.00000000000E+00 0.  1.
         24    2    1    2    0    0 -0.44946489961E+02  0.18222411183E+02 -0.52683790780E+03  0.53517827350E+03  0.80655812605E+02 0.  0.
         25    2    1    2    0    0  0.15154808153E+03  0.25354584863E+02  0.41005103408E+02  0.20233349808E+03  0.12509096670E+03 0.  0.
        -24    2    1    2    0    0 -0.10660159157E+03 -0.43576996046E+02  0.60329823849E+03  0.61932708766E+03  0.79589088624E+02 0.  0.
        -11    1    3    3    0    0  0.17378123602E+02  0.18560456982E+02 -0.25610121032E+03  0.25736029155E+03  0.00000000000E+00 0.  1.
         12    1    3    3    0    0 -0.62324613562E+02 -0.33804579854E+00 -0.27073669748E+03  0.27781798195E+03  0.00000000000E+00 0. -1.
         13    1    5    5    0    0 -0.36000820686E+02 -0.44199181257E+01  0.38278913660E+03  0.38450372933E+03  0.00000000000E+00 0. -1.
        -14    1    5    5    0    0 -0.70600770881E+02 -0.39157077921E+02  0.22050910189E+03  0.23482335833E+03  0.00000000000E+00 0.  1.
          5    1    4    4  501    0 -0.93692099200E+01  0.15707746562E+02  0.36466026655E+02  0.41009253792E+02  0.41800000000E+01 0.  1.
         -5    1    4    4    0  501  0.16091729145E+03  0.96468383008E+01  0.45390767533E+01  0.16132424428E+03  0.41800000000E+01 0.  1.
</event>
<event>
11    1  0.8864208E-009  0.1592197E+03  0.7561462E-02  0.1087813E+00
         22   -1    0    0    0    0  0.00000000000E+00  0.00000000000E+00  0.19544693969E+04  0.19544693969E+04  0.00000000000E+00 0. -1.
         22   -1    0    0    0    0 -0.00000000000E+00 -0.00000000000E+00 -0.33003523100E+03  0.33003523100E+03  0.00000000000E+00 0. -1.
         24    2    1    2    0    0 -0.48085515492E+02  0.73055792760E+02 -0.17164254921E+03  0.21001039730E+03  0.83629161310E+02 0.  0.
         25    2    1    2    0    0  0.10136262098E+03 -0.92686749178E+02 -0.75354886735E+02  0.20047950829E+03  0.12509380434E+03 0.  0.
        -24    2    1    2    0    0 -0.53277105486E+02  0.19630956418E+02  0.18714316018E+04  0.18740147223E+04  0.80318831400E+02 0.  0.
        -13    1    3    3    0    0  0.21774722048E+01  0.62093599738E+02 -0.12902798675E+03  0.14320816275E+03  0.00000000000E+00 0.  1.
         14    1    3    3    0    0 -0.50262987697E+02  0.10962193022E+02 -0.42614562461E+02  0.66802234557E+02  0.00000000000E+00 0. -1.
         13    1    5    5    0    0 -0.16682696048E+02 -0.14615982316E+00  0.15254950788E+04  0.15255863034E+04  0.00000000000E+00 0. -1.
        -14    1    5    5    0    0 -0.36594409438E+02  0.19777116241E+02  0.34593652304E+03  0.34842841891E+03  0.00000000000E+00 0.  1.
          5    1    4    4  501    0  0.11163471410E+03 -0.27177108348E+02 -0.68141307487E+02  0.13364735237E+03  0.41800000000E+01 0. -1.
         -5    1    4    4    0  501 -0.10272093120E+02 -0.65509640831E+02 -0.72135792484E+01  0.66832155916E+02  0.41800000000E+01 0. -1.
</event>
<event>
11    1  0.8864208E-009  0.2033570E+03  0.7561462E-02  0.1052175E+00
         22   -1    0    0    0    0  0.00000000000E+00  0.00000000000E+00  0.12620930131E+04  0.12620930131E+04  0.00000000000E+00 0.  1.
         22   -1    0    0    0    0 -0.00000000000E+00 -0.00000000000E+00 -0.38591982180E+03  0.38591982180E+03  0.00000000000E+00 0.  1.
         24    2    1    2    0    0 -0.12091294242E+03  0.12296492344E+03 -0.31700425599E+03  0.36947749484E+03  0.79256601223E+02 0.  0.
         25    2    1    2    0    0  0.22154814125E+02 -0.95569266596E+02  0.12494223111E+03  0.20218939133E+03  0.12508264607E+03 0.  0.
        -24    2    1    2    0    0  0.98758128292E+02 -0.27395656848E+02  0.10682352162E+04  0.10763459487E+04  0.83008640110E+02 0.  0.
        -13    1    3    3    0    0 -0.11322492688E+03  0.93911391131E+02 -0.30192299112E+03  0.33585223837E+03  0.00000000000E+00 0.  1.
         14    1    3    3    0    0 -0.76880155372E+01  0.29053532313E+02 -0.15081264871E+02  0.33625256473E+02  0.00000000000E+00 0. -1.
         11    1    5    5    0    0  0.16924919155E+02  0.26164458865E+02  0.17298415280E+03  0.17576845256E+03  0.00000000000E+00 0. -1.
        -12    1    5    5    0    0  0.81833209137E+02 -0.53560115714E+02  0.89525106340E+03  0.90057749618E+03  0.00000000000E+00 0.  1.
          5    1    4    4  501    0  0.29538234810E+02 -0.11513087648E+03  0.58759368216E+02  0.13265655576E+03  0.41800000000E+01 0.  1.
         -5    1    4    4    0  501 -0.73834206846E+01  0.19561609880E+02  0.66182862890E+02  0.69532835570E+02  0.41800000000E+01 0.  1.
</event>
<event>
11    1  0.8864208E-009  0.1284266E+03  0.7561462E-02  0.1121217E+00
         22   -1    0    0    0    0  0.00000000000E+00  0.00000000000E+00  0.19651944837E+03  0.19651944837E+03  0.00000000000E+00 0. -1.
         22   -1    0    0    0    0 -0.00000000000E+00 -0.00000000000E+00 -0.13093159587E+04  0.13093159587E+04  0.00000000000E+00 0. -1.
        -24    2    1    2    0    0  0.11022066772E+01  0.82203754677E+01 -0.10464279936E+04  0.10497050977E+04  0.82464883277E+02 0.  0.
         25    2    1    2    0    0  0.27519900755E+02 -0.13379616509E+02 -0.23304612878E+03  0.26625798403E+03  0.12508579794E+03 0.  0.
         24    2    1    2    0    0 -0.28622107432E+02  0.51592410416E+01  0.16667761203E+03  0.18987232534E+03  0.86163976094E+02 0.  0.
        -11    1    5    5    0    0  0.30681846486E+02 -0.35814300945E+01  0.52418752749E+02  0.60843471179E+02  0.00000000000E+00 0.  1.
         12    1    5    5    0    0 -0.59303953918E+02  0.87406711361E+01  0.11425885928E+03  0.12902885416E+03  0.00000000000E+00 0. -1.
         11    1    3    3    0    0 -0.39246771314E+02  0.43031166934E+00 -0.38307305534E+03  0.38507851141E+03  0.00000000000E+00 0. -1.
        -12    1    3    3    0    0  0.40348977991E+02  0.77900637983E+01 -0.66335493826E+03  0.66462658632E+03  0.00000000000E+00 0.  1.
          5    1    4    4  501    0  0.22067237762E+02  0.54665066502E+02 -0.12690713724E+03  0.13999330827E+03  0.41800000000E+01 0.  1.
         -5    1    4    4    0  501  0.54526629928E+01 -0.68044683011E+02 -0.10613899153E+03  0.12626467576E+03  0.41800000000E+01 0.  1.
</event>
<event>
11    1  0.8864208E-009  0.1582053E+03  0.7561462E-02  0.1088778E+00
         22   -1    0    0    0    0  0.00000000000E+00  0.00000000000E+00  0.98040884005E+03  0.98040884005E+03  0.00000000000E+00 0.  1.
         22   -1    0    0    0    0 -0.00000000000E+00 -0.00000000000E+00 -0.18291049793E+03  0.18291049793E+03  0.00000000000E+00 0. -1.
         24    2    1    2    0    0  0.28138334997E+02  0.21512026070E+01 -0.11911497726E+03  0.14723748552E+03  0.81817515017E+02 0.  0.
         25    2    1    2    0    0 -0.11949664608E+03 -0.24960548678E+02  0.12510487776E+03  0.21494508143E+03  0.12509068782E+03 0.  0.
        -24    2    1    2    0    0  0.91358311079E+02  0.22809346071E+02  0.79150844163E+03  0.80113677104E+03  0.80423289395E+02 0.  0.
        -13    1    3    3    0    0 -0.74358667534E+01  0.36246574263E+02 -0.56903767601E+02  0.67875953234E+02  0.00000000000E+00 0.  1.
         14    1    3    3    0    0  0.35574201751E+02 -0.34095371656E+02 -0.62211209661E+02  0.79361532281E+02  0.00000000000E+00 0. -1.
         11    1    5    5    0    0 -0.14993675392E+02 -0.22414507637E+00  0.10060461728E+03  0.10171602411E+03  0.00000000000E+00 0. -1.
        -12    1    5    5    0    0  0.10635198647E+03  0.23033491148E+02  0.69090382435E+03  0.69942074693E+03  0.00000000000E+00 0.  1.
          5    1    4    4  501    0 -0.89353087728E+02 -0.43381275402E+01  0.53954323601E+01  0.89718318795E+02  0.41800000000E+01 0. -1.
         -5    1    4    4    0  501 -0.30143558348E+02 -0.20622421138E+02  0.11970944540E+03  0.12522676264E+03  0.41800000000E+01 0. -1.
</event>
<event>
11    1  0.8864208E-009  0.1347068E+03  0.7561462E-02  0.1113617E+00
         22   -1    0    0    0    0  0.00000000000E+00  0.00000000000E+00  0.90824726441E+03  0.90824726441E+03  0.00000000000E+00 0.  1.
         22   -1    0    0    0    0 -0.00000000000E+00 -0.00000000000E+00 -0.68022152132E+02  0.68022152132E+02  0.00000000000E+00 0. -1.
         24    2    1    2    0    0 -0.41939282568E+01  0.35041856956E+02  0.22735423353E+02  0.94947107270E+02  0.85161804412E+02 0.  0.
         25    2    1    2    0    0 -0.40858485983E+02 -0.87324453276E+01  0.12373350157E+03  0.18083193198E+03  0.12507812253E+03 0.  0.
        -24    2    1    2    0    0  0.45052414240E+02 -0.26309411628E+02  0.69375618736E+03  0.70049037730E+03  0.81653022087E+02 0.  0.
        -11    1    3    3    0    0 -0.70758982015E-01  0.45879824729E+02  0.48457861293E+02  0.66731758894E+02  0.00000000000E+00 0.  1.
         12    1    3    3    0    0 -0.41231692748E+01 -0.10837967774E+02 -0.25722437940E+02  0.28215348375E+02  0.00000000000E+00 0. -1.
         13    1    5    5    0    0 -0.64215484903E+01 -0.24925970260E+02  0.69487846690E+02  0.74101964320E+02  0.00000000000E+00 0. -1.
        -14    1    5    5    0    0  0.51473962730E+02 -0.13834413683E+01  0.62426834067E+03  0.62638841298E+03  0.00000000000E+00 0.  1.
          5    1    4    4  501    0 -0.31491722721E+02 -0.34978208672E+02  0.14036935108E+03  0.14810884782E+03  0.41800000000E+01 0. -1.
         -5    1    4    4    0  501 -0.93667632619E+01  0.26245763345E+02 -0.16635849511E+02  0.32723084153E+02  0.41800000000E+01 0. -1.
</event>
<event>
11    1  0.8864208E-009  0.1815626E+03  0.7561462E-02  0.1068386E+00
         22   -1    0    0    0    0  0.00000000000E+00  0.00000000000E+00  0.65286872388E+03  0.65286872388E+03  0.00000000000E+00 0. -1.
         22   -1    0    0    0    0 -0.00000000000E+00 -0.00000000000E+00 -0.71977394807E+03  0.71977394807E+03  0.00000000000E+00 0. -1.
        -24    2    1    2    0    0 -0.11390990404E+02  0.32212893644E+02 -0.63006837513E+03  0.63617551125E+03  0.81028998517E+02 0.  0.
         25    2    1    2    0    0  0.11364534653E+03 -0.10908997035E+03  0.58313230465E+02  0.20943765878E+03  0.12509122131E+03 0.  0.
         24    2    1    2    0    0 -0.10225435613E+03  0.76877076703E+02  0.50484992047E+03  0.52702950192E+03  0.80750327722E+02 0.  0.
        -13    1    5    5    0    0 -0.18759951940E+02 -0.13297797582E+02  0.39307042809E+02  0.45539113207E+02  0.00000000000E+00 0.  1.
         14    1    5    5    0    0 -0.83494404188E+02  0.90174874285E+02  0.46554287766E+03  0.48149038872E+03  0.00000000000E+00 0. -1.
         13    1    3    3    0    0  0.83746504979E+01  0.22696300494E+02 -0.58999262348E+03  0.59048840174E+03  0.00000000000E+00 0. -1.
        -14    1    3    3    0    0 -0.19765640902E+02  0.95165931504E+01 -0.40075751642E+02  0.45687109507E+02  0.00000000000E+00 0.  1.
          5    1    4    4  501    0  0.12319713268E+03 -0.52426529155E+02  0.10139652861E+02  0.13433673891E+03  0.41800000000E+01 0.  1.
         -5    1    4    4    0  501 -0.95517861500E+01 -0.56663441192E+02  0.48173577603E+02  0.75100919871E+02  0.41800000000E+01 0.  1.
</event>
<event>
11    1  0.8864208E-009  0.1349472E+03  0.7561462E-02  0.1113336E+00
         22   -1    0    0    0    0  0.00000000000E+00  0.00000000000E+00  0.32132805512E+03  0.32132805512E+03  0.00000000000E+00 0. -1.
         22   -1    0    0    0    0 -0.00000000000E+00 -0.00000000000E+00 -0.32839107779E+03  0.32839107779E+03  0.00000000000E+00 0.  1.
        -24    2    1    2    0    0 -0.49463276367E+02  0.17938258690E+02 -0.27534828892E+03  0.29214956588E+03  0.82257472577E+02 0.  0.
         25    2    1    2    0    0  0.26993801242E+02  0.63431174766E+01  0.80648092383E+02  0.15139111620E+03  0.12508499036E+03 0.  0.
         24    2    1    2    0    0  0.22469475126E+02 -0.24281376167E+02  0.18763717387E+03  0.20617845084E+03  0.78786940740E+02 0.  0.
        -13    1    5    5    0    0  0.48426169554E+02 -0.13433814763E+02  0.76457986276E+02  0.91495272786E+02  0.00000000000E+00 0.  1.
         14    1    5    5    0    0 -0.25956694429E+02 -0.10847561403E+02  0.11117918760E+03  0.11468317805E+03  0.00000000000E+00 0. -1.
         11    1    3    3    0    0 -0.54248366106E+02  0.37088999111E+02 -0.13204975358E+03  0.14749785253E+03  0.00000000000E+00 0. -1.
        -12    1    3    3    0    0  0.47850897392E+01 -0.19150740421E+02 -0.14329853534E+03  0.14465171335E+03  0.00000000000E+00 0.  1.
          5    1    4    4  501    0  0.29577830602E+02 -0.55211923581E+02  0.22829984257E+02  0.66797343882E+02  0.41800000000E+01 0. -1.
         -5    1    4    4    0  501 -0.25840293601E+01  0.61555041057E+02  0.57818108126E+02  0.84593772315E+02  0.41800000000E+01 0. -1.
</event>
<event>
11    1  0.1040038E-008  0.1597067E+03  0.7561462E-02  0.1087353E+00
         22   -1    0    0    0    0  0.00000000000E+00  0.00000000000E+00  0.13084300023E+03  0.13084300023E+03  0.00000000000E+00 0. -1.
         22   -1    0    0    0    0 -0.00000000000E+00 -0.00000000000E+00 -0.92949001456E+03  0.92949001456E+03  0.00000000000E+00 0.  1.
        -24    2    1    2    0    0 -0.73428384584E+00  0.60617186129E+02 -0.50909152584E+03  0.51897208534E+03  0.80516217363E+02 0.  0.
         25    2    1    2    0    0 -0.77192896195E+02 -0.11649650717E+03 -0.35276111253E+03  0.39952284872E+03  0.12509166531E+03 0.  0.
         24    2    1    2    0    0  0.77927180041E+02  0.55879321040E+02  0.63205624028E+02  0.14183808073E+03  0.83234285766E+02 0.  0.
        -13    1    5    5    0    0 -0.15195616569E+02  0.57510927175E+01 -0.37401721366E+01  0.16672453868E+02  0.00000000000E+00 0.  1.
         14    1    5    5    0    0  0.93122796610E+02  0.50128228322E+02  0.66945796165E+02  0.12516562686E+03  0.00000000000E+00 0. -1.
         11    1    3    3    0    0 -0.37000149203E+02  0.10752926675E+02 -0.16902149607E+03  0.17335773016E+03  0.00000000000E+00 0. -1.
        -12    1    3    3    0    0  0.36265865357E+02  0.49864259454E+02 -0.34007002977E+03  0.34561435518E+03  0.00000000000E+00 0.  1.
          5    1    4    4  501    0 -0.91161228361E+02 -0.11065379849E+03 -0.35571232115E+03  0.38354055913E+03  0.41800000000E+01 0.  1.
         -5    1    4    4    0  501  0.13968332166E+02 -0.58427086744E+01  0.29512086234E+01  0.15982289589E+02  0.41800000000E+01 0.  1.
</event>
<event>
11    1  0.8864208E-009  0.1843878E+03  0.7561462E-02  0.1066148E+00
         22   -1    0    0    0    0  0.00000000000E+00  0.00000000000E+00  0.42544669864E+03  0.42544669864E+03  0.00000000000E+00 0. -1.
         22   -1    0    0    0    0 -0.00000000000E+00 -0.00000000000E+00 -0.11606325398E+04  0.11606325398E+04  0.00000000000E+00 0. -1.
        -24    2    1    2    0    0 -0.10276250098E+03 -0.90674535081E+02 -0.11090854143E+04  0.11204604835E+04  0.81112489257E+02 0.  0.
         25    2    1    2    0    0  0.24876975714E+02  0.90730750060E+02  0.17344360993E+03  0.23362544882E+03  0.12508889473E+03 0.  0.
         24    2    1    2    0    0  0.77885525269E+02 -0.56214978451E-01  0.20045596320E+03  0.23199330614E+03  0.87018059655E+02 0.  0.
        -13    1    5    5    0    0 -0.73656236592E+01 -0.24190220974E+02  0.25667884336E+02  0.36031368125E+02  0.00000000000E+00 0.  1.
         14    1    5    5    0    0  0.85251148929E+02  0.24134005995E+02  0.17478807886E+03  0.19596193802E+03  0.00000000000E+00 0. -1.
         13    1    3    3    0    0 -0.91159601986E+02 -0.10600515260E+03 -0.99286132956E+03  0.10026568631E+04  0.00000000000E+00 0. -1.
        -14    1    3    3    0    0 -0.11602898998E+02  0.15330617518E+02 -0.11622408472E+03  0.11780362035E+03  0.00000000000E+00 0.  1.
          5    1    4    4  501    0  0.15737711143E+02  0.96442678110E+02  0.18984544717E+03  0.21355943417E+03  0.41800000000E+01 0.  1.
         -5    1    4    4    0  501  0.91392645711E+01 -0.57119280500E+01 -0.16401837241E+02  0.20066014647E+02  0.41800000000E+01 0.  1.
</event>
<event>
11    1  0.8864208E-009  0.1399589E+03  0.7561462E-02  0.1107604E+00
         22   -1    0    0    0    0  0.00000000000E+00  0.00000000000E+00  0.36767684854E+03  0.36767684854E+03  0.00000000000E+00 0. -1.
         22   -1    0    0    0    0 -0.00000000000E+00 -0.00000000000E+00 -0.14886843325E+04  0.14886843325E+04  0.00000000000E+00 0. -1.
        -24    2    1    2    0    0 -0.24922253607E+02 -0.17951421902E+02 -0.13537082092E+04  0.13563087630E+04  0.78129204855E+02 0.  0.
         25    2    1    2    0    0 -0.24863352841E+02  0.56964108051E+02 -0.86779802016E+02  0.16444903650E+03  0.12509858371E+03 0.  0.
         24    2    1    2    0    0  0.49785606448E+02 -0.39012686148E+02  0.31948052722E+03  0.33560338158E+03  0.81001396082E+02 0.  0.
        -13    1    5    5    0    0  0.66708640567E+02 -0.23215578075E+02  0.16622787133E+03  0.18061204556E+03  0.00000000000E+00 0.  1.
         14    1    5    5    0    0 -0.16923034119E+02 -0.15797108073E+02  0.15325265589E+03  0.15499133603E+03  0.00000000000E+00 0. -1.
         13    1    3    3    0    0 -0.50478515814E+00 -0.17487922825E+02 -0.12345335971E+04  0.12346575577E+04  0.00000000000E+00 0. -1.
        -14    1    3    3    0    0 -0.24417468449E+02 -0.46349907769E+00 -0.11917461207E+03  0.12165120534E+03  0.00000000000E+00 0.  1.
          5    1    4    4  501    0  0.32641705596E+02 -0.15549256348E+02  0.15727099206E+01  0.36430840420E+02  0.41800000000E+01 0. -1.
         -5    1    4    4    0  501 -0.57505058437E+02  0.72513364398E+02 -0.88352511937E+02  0.12801819608E+03  0.41800000000E+01 0. -1.
</event>
<event>
11    1  0.8864208E-009  0.1362837E+03  0.7561462E-02  0.1111781E+00
         22   -1    0    0    0    0  0.00000000000E+00  0.00000000000E+00  0.20333453769E+03  0.20333453769E+03  0.00000000000E+00 0. -1.
         22   -1    0    0    0    0 -0.00000000000E+00 -0.00000000000E+00 -0.29765499759E+03  0.29765499759E+03  0.00000000000E+00 0. -1.
        -24    2    1    2    0    0  0.12259968196E+02 -0.40285953565E+02 -0.19787828789E+03  0.21620828502E+03  0.76268871897E+02 0.  0.
         25    2    1    2    0    0 -0.57612838308E+02  0.67644002544E+01 -0.52019315410E+01  0.13798580124E+03  0.12509206611E+03 0.  0.
         24    2    1    2    0    0  0.45352870112E+02  0.33521553311E+02  0.10875975952E+03  0.14679544902E+03  0.80868048065E+02 0.  0.
        -13    1    5    5    0    0  0.11609796459E+00 -0.20499820845E+02  0.45474376817E+01  0.20998460012E+02  0.00000000000E+00 0.  1.
         14    1    5    5    0    0  0.45236772147E+02  0.54021374156E+02  0.10421232184E+03  0.12579698901E+03  0.00000000000E+00 0. -1.
         11    1    3    3    0    0  0.24809800278E+02  0.75681370322E+01 -0.12792870378E+03  0.13053182041E+03  0.00000000000E+00 0. -1.
        -12    1    3    3    0    0 -0.12549832082E+02 -0.47854090598E+02 -0.69949584105E+02  0.85676464613E+02  0.00000000000E+00 0.  1.
          5    1    4    4  501    0 -0.83554827452E+02 -0.33188930251E+02 -0.54255927476E+01  0.90165535203E+02  0.41800000000E+01 0.  1.
         -5    1    4    4    0  501  0.25941989145E+02  0.39953330506E+02  0.22366120659E+00  0.47820266035E+02  0.41800000000E+01 0.  1.
</event>
<event>
11    1  0.8864208E-009  0.1548135E+03  0.7561462E-02  0.1092059E+00
         22   -1    0    0    0    0  0.00000000000E+00  0.00000000000E+00  0.59316981790E+02  0.59316981790E+02  0.00000000000E+00 0.  1.
         22   -1    0    0    0    0 -0.00000000000E+00 -0.00000000000E+00 -0.37780421877E+04  0.37780421877E+04  0.00000000000E+00 0.  1.
        -24    2    1    2    0    0 -0.31999446507E+01  0.13930923696E+02 -0.34129966870E+04  0.34139504635E+04  0.79417075303E+02 0.  0.
         25    2    1    2    0    0 -0.71610309054E+02 -0.63474429935E+02 -0.23855028686E+03  0.28584977335E+03  0.12508722534E+03 0.  0.
         24    2    1    2    0    0  0.74810253705E+02  0.49543506239E+02 -0.67178232103E+02  0.13755893264E+03  0.79739651434E+02 0.  0.
        -13    1    5    5    0    0  0.21662523675E+02  0.56608058280E+01  0.17470549499E+02  0.28399467501E+02  0.00000000000E+00 0.  1.
         14    1    5    5    0    0  0.53147730030E+02  0.43882700411E+02 -0.84648781602E+02  0.10915946514E+03  0.00000000000E+00 0. -1.
         13    1    3    3    0    0  0.16426496390E+02 -0.14856051342E+01 -0.15808263693E+03  0.15894073394E+03  0.00000000000E+00 0. -1.
        -14    1    3    3    0    0 -0.19626441041E+02  0.15416528831E+02 -0.32549140501E+04  0.32550097296E+04  0.00000000000E+00 0.  1.
          5    1    4    4  501    0 -0.21158869781E+02  0.17586621745E+01 -0.18755628201E+03  0.18880048195E+03  0.41800000000E+01 0. -1.
         -5    1    4    4    0  501 -0.50451439273E+02 -0.65233092110E+02 -0.50994004857E+02  0.97049291405E+02  0.41800000000E+01 0. -1.
</event>
<event>
11    1  0.8864208E-009  0.1720113E+03  0.7561462E-02  0.1076295E+00
         22   -1    0    0    0    0  0.00000000000E+00  0.00000000000E+00  0.24673373585E+03  0.24673373585E+03  0.00000000000E+00 0. -1.
         22   -1    0    0    0    0 -0.00000000000E+00 -0.00000000000E+00 -0.14072793374E+04  0.14072793374E+04  0.00000000000E+00 0. -1.
        -24    2    1    2    0    0 -0.10533506473E+02 -0.35697665435E+02 -0.11635086493E+04  0.11669801702E+04  0.81884446774E+02 0.  0.
         25    2    1    2    0    0 -0.49138186688E+02  0.13459646254E+03 -0.17611032178E+03  0.25921683494E+03  0.12509097873E+03 0.  0.
         24    2    1    2    0    0  0.59671693161E+02 -0.98898797101E+02  0.17907336948E+03  0.22781606812E+03  0.80568022223E+02 0.  0.
        -11    1    5    5    0    0  0.49400230915E+02 -0.37037345181E+02  0.35680442803E+02  0.71310881014E+02  0.00000000000E+00 0.  1.
         12    1    5    5    0    0  0.10271462246E+02 -0.61861451920E+02  0.14339292668E+03  0.15650518711E+03  0.00000000000E+00 0. -1.
         13    1    3    3    0    0 -0.19297909135E+02 -0.60460288833E+02 -0.85831263816E+03  0.86065582009E+03  0.00000000000E+00 0. -1.
        -14    1    3    3    0    0  0.87644026616E+01  0.24762623398E+02 -0.30519601112E+03  0.30632435012E+03  0.00000000000E+00 0.  1.
          5    1    4    4  501    0 -0.30860094340E+02  0.14925261417E+03 -0.17912596822E+03  0.23522813001E+03  0.41800000000E+01 0.  1.
         -5    1    4    4    0  501 -0.18278092349E+02 -0.14656151632E+02  0.30156464416E+01  0.23988704926E+02  0.41800000000E+01 0.  1.
</event>
<event>
11    1  0.8864208E-009  0.2703917E+03  0.7561462E-02  0.1013564E+00
         22   -1    0    0    0    0  0.00000000000E+00  0.00000000000E+00  0.94105745454E+03  0.94105745454E+03  0.00000000000E+00 0. -1.
         22   -1    0    0    0    0 -0.00000000000E+00 -0.00000000000E+00 -0.31428611975E+03  0.31428611975E+03  0.00000000000E+00 0.  1.
        -24    2    1    2    0    0 -0.21356967486E+03  0.10854046886E+03 -0.21804950510E+03  0.33373544882E+03  0.80254119678E+02 0.  0.
         25    2    1    2    0    0  0.19462548737E+03 -0.14877652609E+03  0.57650522002E+03  0.63876412622E+03  0.12509118749E+03 0.  0.
         24    2    1    2    0    0  0.18944187486E+02  0.40236057232E+02  0.26831561988E+03  0.28284399925E+03  0.77650714711E+02 0.  0.
        -11    1    5    5    0    0  0.47322677414E+02  0.38559288609E+02  0.18077317364E+03  0.19080145399E+03  0.00000000000E+00 0.  1.
         12    1    5    5    0    0 -0.28378489927E+02  0.16767686229E+01  0.87542446240E+02  0.92042545256E+02  0.00000000000E+00 0. -1.
         11    1    3    3    0    0 -0.20645992760E+01 -0.97424578576E+01 -0.53907621399E+01  0.11324238240E+02  0.00000000000E+00 0. -1.
        -12    1    3    3    0    0 -0.21150507558E+03  0.11828292672E+03 -0.21265874296E+03  0.32241121058E+03  0.00000000000E+00 0.  1.
          5    1    4    4  501    0  0.96991577889E+02 -0.48450098061E+01  0.26035069857E+03  0.27790429818E+03  0.41800000000E+01 0.  1.
         -5    1    4    4    0  501  0.97633909482E+02 -0.14393151628E+03  0.31615452145E+03  0.36085982804E+03  0.41800000000E+01 0.  1.
</event>
<event>
11    1  0.8864208E-009  0.1537840E+03  0.7561462E-02  0.1093074E+00
         22   -1    0    0    0    0  0.00000000000E+00  0.00000000000E+00  0.12133580352E+03  0.12133580352E+03  0.00000000000E+00 0. -1.
         22   -1    0    0    0    0 -0.00000000000E+00 -0.00000000000E+00 -0.69842029653E+03  0.69842029653E+03  0.00000000000E+00 0.  1.
        -24    2    1    2    0    0  0.35137690947E+02  0.34759544676E+02 -0.38291483750E+03  0.39448375354E+03  0.80936862804E+02 0.  0.
         25    2    1    2    0    0  0.58874272958E+02 -0.25278774734E+02 -0.25027340802E+03  0.28702593904E+03  0.12506763950E+03 0.  0.
         24    2    1    2    0    0 -0.94011963904E+02 -0.94807699415E+01  0.56103752502E+02  0.13824640747E+03  0.83882678655E+02 0.  0.
        -13    1    5    5    0    0  0.40675904152E+01 -0.21932062389E+02  0.27330683982E+02  0.35277853383E+02  0.00000000000E+00 0.  1.
         14    1    5    5    0    0 -0.98079554319E+02  0.12451292447E+02  0.28773068520E+02  0.10296855409E+03  0.00000000000E+00 0. -1.
         11    1    3    3    0    0  0.49323647795E+02  0.47077434434E+02 -0.21578595365E+03  0.22630219808E+03  0.00000000000E+00 0. -1.
        -12    1    3    3    0    0 -0.14185956849E+02 -0.12317889758E+02 -0.16712888385E+03  0.16818155546E+03  0.00000000000E+00 0.  1.
          5    1    4    4  501    0  0.31163583460E+02 -0.26579204345E+02 -0.25523663895E+03  0.25853594972E+03  0.41800000000E+01 0. -1.
         -5    1    4    4    0  501  0.27710689498E+02  0.13004296109E+01  0.49632309343E+01  0.28489989311E+02  0.41800000000E+01 0. -1.
</event>
<event>
11    1  0.8864208E-009  0.1372073E+03  0.7561462E-02  0.1110718E+00
         22   -1    0    0    0    0  0.00000000000E+00  0.00000000000E+00  0.34311777901E+04  0.34311777901E+04  0.00000000000E+00 0.  1.
         22   -1    0    0    0    0 -0.00000000000E+00 -0.00000000000E+00 -0.31374424986E+03  0.31374424986E+03  0.00000000000E+00 0. -1.
         24    2    1    2    0    0 -0.31124947882E+02  0.46992333039E+02 -0.29583521345E+03  0.31161498859E+03  0.80052394406E+02 0.  0.
         25    2    1    2    0    0  0.32034991514E+02 -0.44201950062E+02  0.48351078629E+03  0.50240896173E+03  0.12510807844E+03 0.  0.
        -24    2    1    2    0    0 -0.91004363167E+00 -0.27903829763E+01  0.29297579674E+04  0.29308980897E+04  0.81689962728E+02 0.  0.
        -11    1    3    3    0    0  0.22966787846E+02  0.97650090576E+01 -0.37356049634E+02  0.44925529380E+02  0.00000000000E+00 0.  1.
         12    1    3    3    0    0 -0.54091735728E+02  0.37227323981E+02 -0.25847916382E+03  0.26668945921E+03  0.00000000000E+00 0. -1.
         11    1    5    5    0    0  0.18951650884E+02  0.25049652405E+02  0.55119685543E+03  0.55209113704E+03  0.00000000000E+00 0. -1.
        -12    1    5    5    0    0 -0.19861694515E+02 -0.27840035381E+02  0.23785611120E+04  0.23788069527E+04  0.00000000000E+00 0.  1.
          5    1    4    4  501    0  0.27078636226E+02  0.31040736894E+02  0.64490487218E+02  0.76637296589E+02  0.41800000000E+01 0. -1.
         -5    1    4    4    0  501  0.49563552876E+01 -0.75242686956E+02  0.41902029908E+03  0.42577166514E+03  0.41800000000E+01 0. -1.
</event>
<event>
11    1  0.8864208E-009  0.1720575E+03  0.7561462E-02  0.1076255E+00
         22   -1    0    0    0    0  0.00000000000E+00  0.00000000000E+00  0.30477948860E+03  0.30477948860E+03  0.00000000000E+00 0.  1.
         22   -1    0    0    0    0 -0.00000000000E+00 -0.00000000000E+00 -0.36940111189E+03  0.36940111189E+03  0.00000000000E+00 0. -1.
        -24    2    1    2    0    0 -0.76127232502E+02  0.81971698718E+02 -0.25923022271E+03  0.30278639223E+03  0.10938270447E+03 0.  0.
         25    2    1    2    0    0  0.10150155900E+03 -0.12188905243E+03  0.67087207029E+02  0.21285545224E+03  0.12508893885E+03 0.  0.
         24    2    1    2    0    0 -0.25374326495E+02  0.39917353708E+02  0.12752139239E+03  0.15853875602E+03  0.81459069916E+02 0.  0.
        -11    1    5    5    0    0 -0.25493068725E+02  0.61222574604E+02  0.11765736332E+03  0.13506056174E+03  0.00000000000E+00 0.  1.
         12    1    5    5    0    0  0.11874223007E+00 -0.21305220896E+02  0.98640290665E+01  0.23478194278E+02  0.00000000000E+00 0. -1.
         13    1    3    3    0    0 -0.42300896662E+02  0.71160100410E+02 -0.25367670251E+03  0.26684264116E+03  0.00000000000E+00 0. -1.
        -14    1    3    3    0    0 -0.33826335841E+02  0.10811598309E+02 -0.55535202047E+01  0.35943751071E+02  0.00000000000E+00 0.  1.
          5    1    4    4  501    0  0.82841047294E+02 -0.76431741337E+02  0.10228801439E+03  0.15226542775E+03  0.41800000000E+01 0. -1.
         -5    1    4    4    0  501  0.18660511703E+02 -0.45457311090E+02 -0.35200807363E+02  0.60590024489E+02  0.41800000000E+01 0. -1.
</event>
<event>
11    1  0.8864208E-009  0.2676570E+03  0.7561462E-02  0.1014892E+00
         22   -1    0    0    0    0  0.00000000000E+00  0.00000000000E+00  0.38964129624E+03  0.38964129624E+03  0.00000000000E+00 0. -1.
         22   -1    0    0    0    0 -0.00000000000E+00 -0.00000000000E+00 -0.41701046820E+03  0.41701046820E+03  0.00000000000E+00 0. -1.
        -24    2    1    2    0    0 -0.53804679058E+02 -0.48196960457E+02 -0.34438028983E+02  0.11315516533E+03  0.80001394460E+02 0.  0.
         25    2    1    2    0    0  0.42403109780E+02 -0.19616572769E+03 -0.23947707852E+03  0.33656463607E+03  0.12508983444E+03 0.  0.
         24    2    1    2    0    0  0.11401569278E+02  0.24436268815E+03  0.24654593553E+03  0.35693196303E+03  0.82294646043E+02 0.  0.
        -11    1    5    5    0    0 -0.17379463759E+02  0.13667085617E+03  0.89293293803E+02  0.16417752892E+03  0.00000000000E+00 0.  1.
         12    1    5    5    0    0  0.28781033036E+02  0.10769183198E+03  0.15725264173E+03  0.19275443411E+03  0.00000000000E+00 0. -1.
         11    1    3    3    0    0 -0.20653371156E+02 -0.29009858396E+02 -0.58090894639E+02  0.68137256066E+02  0.00000000000E+00 0. -1.
        -12    1    3    3    0    0 -0.33151307902E+02 -0.19187102062E+02  0.23652865656E+02  0.45017909268E+02  0.00000000000E+00 0.  1.
          5    1    4    4  501    0  0.70852216399E+02 -0.90770667329E+02 -0.69670233761E+02  0.13465052725E+03  0.41800000000E+01 0. -1.
         -5    1    4    4    0  501 -0.28449106619E+02 -0.10539506036E+03 -0.16980684475E+03  0.20191410882E+03  0.41800000000E+01 0. -1.
</event>
<event>
11    1  0.8864208E-009  0.1695928E+03  0.7561462E-02  0.1078387E+00
         22   -1    0    0    0    0  0.00000000000E+00  0.00000000000E+00  0.48433281047E+03  0.48433281047E+03  0.00000000000E+00 0. -1.
         22   -1    0    0    0    0 -0.00000000000E+00 -0.00000000000E+00 -0.53036507737E+03  0.53036507737E+03  0.00000000000E+00 0. -1.
         24    2    1    2    0    0 -0.67024286667E+02  0.48508548037E+02 -0.19243931387E+03  0.22458330987E+03  0.80990365560E+02 0.  0.
         25    2    1    2    0    0  0.15482592881E+03  0.23816457206E+02 -0.27825291513E+03  0.34294325049E+03  0.12508835441E+03 0.  0.
        -24    2    1    2    0    0 -0.87801642145E+02 -0.72325005243E+02  0.42465996211E+03  0.44717132748E+03  0.81768441046E+02 0.  0.
        -11    1    3    3    0    0  0.11603216506E+02  0.16460675190E+02 -0.82462173010E+01  0.21762089991E+02  0.00000000000E+00 0.  1.
         12    1    3    3    0    0 -0.78627503173E+02  0.32047872847E+02 -0.18419309657E+03  0.20282121988E+03  0.00000000000E+00 0. -1.
         13    1    5    5    0    0 -0.38541312243E+02  0.73820807342E+01  0.19897721204E+03  0.20280990799E+03  0.00000000000E+00 0. -1.
        -14    1    5    5    0    0 -0.49260329901E+02 -0.79707085977E+02  0.22568275007E+03  0.24436141949E+03  0.00000000000E+00 0.  1.
          5    1    4    4  501    0  0.17590035926E+03  0.24521514774E+02 -0.23449030688E+03  0.29418602532E+03  0.41800000000E+01 0.  1.
         -5    1    4    4    0  501 -0.21074430445E+02 -0.70505756816E+00 -0.43762608255E+02  0.48757225168E+02  0.41800000000E+01 0.  1.
</event>
<event>
11    1  0.8864208E-009  0.5934810E+03  0.7561462E-02  0.9205919E-01
         22   -1    0    0    0    0  0.00000000000E+00  0.00000000000E+00  0.54663309643E+03  0.54663309643E+03  0.00000000000E+00 0. -1.
         22   -1    0    0    0    0 -0.00000000000E+00 -0.00000000000E+00 -0.17336882957E+04  0.17336882957E+04  0.00000000000E+00 0. -1.
        -24    2    1    2    0    0 -0.18007568060E+02  0.10838688021E+03 -0.53123207215E+03  0.54831271583E+03  0.79795561014E+02 0.  0.
         25    2    1    2    0    0  0.34222683496E+03  0.38815252356E+03 -0.93148444724E+03  0.10728903724E+04  0.12509551432E+03 0.  0.
         24    2    1    2    0    0 -0.32421926690E+03 -0.49653940377E+03  0.27566132008E+03  0.65911830391E+03  0.82330204802E+02 0.  0.
        -11    1    5    5    0    0 -0.16366808233E+03 -0.31423958683E+03  0.18614971707E+03  0.40023177819E+03  0.00000000000E+00 0.  1.
         12    1    5    5    0    0 -0.16055118457E+03 -0.18229981694E+03  0.89511603011E+02  0.25888652572E+03  0.00000000000E+00 0. -1.
         11    1    3    3    0    0  0.66403136618E+01  0.14694785335E+02 -0.25637318077E+03  0.25687981295E+03  0.00000000000E+00 0. -1.
        -12    1    3    3    0    0 -0.24647881722E+02  0.93692094875E+02 -0.27485889137E+03  0.29143290288E+03  0.00000000000E+00 0.  1.
          5    1    4    4  501    0  0.25136688086E+03  0.19435445489E+03 -0.57989723238E+03  0.66125428955E+03  0.41800000000E+01 0. -1.
         -5    1    4    4    0  501  0.90859954108E+02  0.19379806867E+03 -0.35158721487E+03  0.41163608289E+03  0.41800000000E+01 0. -1.
</event>
<event>
11    1  0.8864208E-009  0.3755148E+03  0.7561462E-02  0.9724900E-01
         22   -1    0    0    0    0  0.00000000000E+00  0.00000000000E+00  0.91519398298E+03  0.91519398298E+03  0.00000000000E+00 0. -1.
         22   -1    0    0    0    0 -0.00000000000E+00 -0.00000000000E+00 -0.33286339959E+03  0.33286339959E+03  0.00000000000E+00 0.  1.
         24    2    1    2    0    0 -0.17960309427E+03 -0.30534961673E+03 -0.13357835167E+03  0.38624565238E+03  0.76464815685E+02 0.  0.
         25    2    1    2    0    0  0.20859808256E+03  0.28677877567E+03  0.47327321512E+03  0.60447630458E+03  0.12509532536E+03 0.  0.
        -24    2    1    2    0    0 -0.28994988281E+02  0.18570841066E+02  0.24263571994E+03  0.25733542561E+03  0.78510147128E+02 0.  0.
        -11    1    3    3    0    0 -0.50960081894E+02 -0.11596606713E+03 -0.84014970586E+02  0.15199859853E+03  0.00000000000E+00 0.  1.
         12    1    3    3    0    0 -0.12864301238E+03 -0.18938354961E+03 -0.49563381085E+02  0.23424705386E+03  0.00000000000E+00 0. -1.
         11    1    5    5    0    0 -0.48321930519E+02  0.28479173704E+02  0.11597981177E+03  0.12883085439E+03  0.00000000000E+00 0. -1.
        -12    1    5    5    0    0  0.19326942238E+02 -0.99083326374E+01  0.12665590817E+03  0.12850457123E+03  0.00000000000E+00 0.  1.
          5    1    4    4  501    0  0.13559404099E+03  0.11176091229E+03  0.29930712487E+03  0.34710009055E+03  0.41800000000E+01 0.  1.
         -5    1    4    4    0  501  0.73004041567E+02  0.17501786338E+03  0.17396609025E+03  0.25737621402E+03  0.41800000000E+01 0.  1.
</event>
<event>
11    1  0.8864208E-009  0.1589049E+03  0.7561462E-02  0.1088112E+00
         22   -1    0    0    0    0  0.00000000000E+00  0.00000000000E+00  0.50261495736E+03  0.50261495736E+03  0.00000000000E+00 0. -1.
         22   -1    0    0    0    0 -0.00000000000E+00 -0.00000000000E+00 -0.12256275346E+04  0.12256275346E+04  0.00000000000E+00 0.  1.
         24    2    1    2    0    0 -0.92418894865E+02 -0.33756932982E+02 -0.11862304434E+04  0.11930297377E+04  0.80600914071E+02 0.  0.
         25    2    1    2    0    0  0.72429366450E+02  0.28181052324E+02  0.14603256703E+03  0.20739426362E+03  0.12508671039E+03 0.  0.
        -24    2    1    2    0    0  0.19989528415E+02  0.55758806584E+01  0.31718529916E+03  0.32781849069E+03  0.80173419194E+02 0.  0.
        -13    1    3    3    0    0 -0.51646347205E+02 -0.95966114319E+01 -0.98069951727E+03  0.98210538299E+03  0.00000000000E+00 0.  1.
         14    1    3    3    0    0 -0.40772547660E+02 -0.24160321550E+02 -0.20553092618E+03  0.21092435468E+03  0.00000000000E+00 0. -1.
         11    1    5    5    0    0  0.12427871542E+02  0.41551065557E+02  0.21210147536E+03  0.21649013578E+03  0.00000000000E+00 0. -1.
        -12    1    5    5    0    0  0.75616568734E+01 -0.35975184899E+02  0.10508382380E+03  0.11132835491E+03  0.00000000000E+00 0.  1.
          5    1    4    4  501    0  0.71380212981E+02  0.60714782384E+02  0.14720950234E+03  0.17455523362E+03  0.41800000000E+01 0.  1.
         -5    1    4    4    0  501  0.10491534698E+01 -0.32533730060E+02 -0.11769353110E+01  0.32839030000E+02  0.41800000000E+01 0.  1.
</event>
<event>
11    1  0.8864208E-009  0.1372532E+03  0.7561462E-02  0.1110665E+00
         22   -1    0    0    0    0  0.00000000000E+00  0.00000000000E+00  0.51708855175E+03  0.51708855175E+03  0.00000000000E+00 0. -1.
         22   -1    0    0    0    0 -0.00000000000E+00 -0.00000000000E+00 -0.53539481681E+03  0.53539481681E+03  0.00000000000E+00 0. -1.
        -24    2    1    2    0    0 -0.37966484484E+02  0.42514688404E+02 -0.44268437688E+03  0.45398822595E+03  0.82987342967E+02 0.  0.
         25    2    1    2    0    0  0.12489224430E+02 -0.56822586414E+02 -0.25755607560E+02  0.14033960044E+03  0.12508822917E+03 0.  0.
         24    2    1    2    0    0  0.25477260054E+02  0.14307898010E+02  0.45013371937E+03  0.45815554218E+03  0.80201800391E+02 0.  0.
        -11    1    5    5    0    0 -0.18234917104E+02  0.15996756178E+02  0.49327357730E+02  0.54969051571E+02  0.00000000000E+00 0.  1.
         12    1    5    5    0    0  0.43712177158E+02 -0.16888581683E+01  0.40080636164E+03  0.40318649061E+03  0.00000000000E+00 0. -1.
         11    1    3    3    0    0 -0.41161670691E+02  0.48664982058E+02 -0.44248765569E+03  0.44705468240E+03  0.00000000000E+00 0. -1.
        -12    1    3    3    0    0  0.31951862074E+01 -0.61502936540E+01 -0.19672118495E+00  0.69335435497E+01  0.00000000000E+00 0.  1.
          5    1    4    4  501    0 -0.55046758816E+02 -0.12041207233E+02 -0.59479688918E+01  0.56815376982E+02  0.41800000000E+01 0.  1.
         -5    1    4    4    0  501  0.67535983245E+02 -0.44781379181E+02 -0.19807638668E+02  0.83524223456E+02  0.41800000000E+01 0.  1.
</event>
<event>
11    1  0.8864208E-009  0.1308771E+03  0.7561462E-02  0.1118196E+00
         22   -1    0    0    0    0  0.00000000000E+00  0.00000000000E+00  0.33701233647E+03  0.33701233647E+03  0.00000000000E+00 0.  1.
         22   -1    0    0    0    0 -0.00000000000E+00 -0.00000000000E+00 -0.15673465367E+04  0.15673465367E+04  0.00000000000E+00 0. -1.
        -24    2    1    2    0    0  0.26942799452E+01 -0.36097055206E+02 -0.12209393802E+04  0.12240902732E+04  0.79961054679E+02 0.  0.
         25    2    1    2    0    0  0.23959422747E+02  0.60920968811E+02 -0.32417805693E+03  0.35358652119E+03  0.12508635814E+03 0.  0.
         24    2    1    2    0    0 -0.26653702692E+02 -0.24823913605E+02  0.31478323694E+03  0.32668207874E+03  0.79410627454E+02 0.  0.
        -11    1    5    5    0    0 -0.31803821279E+02 -0.15734814732E+02  0.31422317175E+03  0.31622028573E+03  0.00000000000E+00 0.  1.
         12    1    5    5    0    0  0.51501185873E+01 -0.90890988728E+01  0.56006518890E+00  0.10461793001E+02  0.00000000000E+00 0. -1.
         11    1    3    3    0    0  0.31154898233E+02  0.33518344707E+01 -0.74795992653E+03  0.74861599914E+03  0.00000000000E+00 0. -1.
        -12    1    3    3    0    0 -0.28460618288E+02 -0.39448889677E+02 -0.47297945368E+03  0.47547427406E+03  0.00000000000E+00 0.  1.
          5    1    4    4  501    0  0.19040838403E+02 -0.23293955800E+01  0.33742994140E+01  0.19920790833E+02  0.41800000000E+01 0.  1.
         -5    1    4    4    0  501  0.49185843436E+01  0.63250364391E+02 -0.32755235635E+03  0.33366573036E+03  0.41800000000E+01 0.  1.
</event>
<event>
11    1  0.8864208E-009  0.2205660E+03  0.7561462E-02  0.1040863E+00
         22   -1    0    0    0    0  0.00000000000E+00  0.00000000000E+00  0.49590875587E+03  0.49590875587E+03  0.00000000000E+00 0. -1.
         22   -1    0    0    0    0 -0.00000000000E+00 -0.00000000000E+00 -0.24383675688E+03  0.24383675688E+03  0.00000000000E+00 0. -1.
        -24    2    1    2    0    0  0.31320021639E+02  0.59882859139E+02 -0.81672664639E+02  0.13405476312E+03  0.82057021587E+02 0.  0.
         25    2    1    2    0    0 -0.20642212750E+03 -0.42707338851E+02  0.31639408516E+02  0.24714898553E+03  0.12509019692E+03 0.  0.
         24    2    1    2    0    0  0.17510210586E+03 -0.17175520288E+02  0.30210525512E+03  0.35854176410E+03  0.79554166814E+02 0.  0.
        -11    1    5    5    0    0  0.14602553233E+03  0.10593457832E+02  0.19289567300E+03  0.24216609610E+03  0.00000000000E+00 0.  1.
         12    1    5    5    0    0  0.29076573533E+02 -0.27768978120E+02  0.10920958212E+03  0.11637566799E+03  0.00000000000E+00 0. -1.
         11    1    3    3    0    0  0.21451121298E+01  0.13641264320E+02 -0.78046488723E+02  0.79258690377E+02  0.00000000000E+00 0. -1.
        -12    1    3    3    0    0  0.29174909509E+02  0.46241594820E+02 -0.36261759164E+01  0.54796072743E+02  0.00000000000E+00 0.  1.
          5    1    4    4  501    0 -0.20356267899E+03 -0.60898107106E+02  0.52606885278E+02  0.21893218243E+03  0.41800000000E+01 0.  1.
         -5    1    4    4    0  501 -0.28594485099E+01  0.18190768256E+02 -0.20967476762E+02  0.28216803101E+02  0.41800000000E+01 0.  1.
</event>
<event>
11    1  0.8864208E-009  0.1682765E+03  0.7561462E-02  0.1079541E+00
         22   -1    0    0    0    0  0.00000000000E+00  0.00000000000E+00  0.21372849620E+04  0.21372849620E+04  0.00000000000E+00 0.  1.
         22   -1    0    0    0    0 -0.00000000000E+00 -0.00000000000E+00 -0.17102388809E+03  0.17102388809E+03  0.00000000000E+00 0.  1.
         24    2    1    2    0    0 -0.15206642800E+02  0.44564979560E+02 -0.14515770001E+03  0.17253552004E+03  0.80501356603E+02 0.  0.
         25    2    1    2    0    0  0.46647620162E+02  0.76467090126E+02  0.71268876087E+03  0.72910667189E+03  0.12509217715E+03 0.  0.
        -24    2    1    2    0    0 -0.31440977362E+02 -0.12103206969E+03  0.13987300131E+04  0.14066666582E+04  0.81413394516E+02 0.  0.
        -13    1    3    3    0    0 -0.14624902202E+02  0.13542200712E+02 -0.13959721720E+03  0.14101298527E+03  0.00000000000E+00 0.  1.
         14    1    3    3    0    0 -0.58174059818E+00  0.31022778848E+02 -0.55604828158E+01  0.31522534777E+02  0.00000000000E+00 0. -1.
         13    1    5    5    0    0  0.18196434990E+02 -0.55769627369E+02  0.36439746730E+03  0.36908925176E+03  0.00000000000E+00 0. -1.
        -14    1    5    5    0    0 -0.49637412351E+02 -0.65262442318E+02  0.10343325458E+04  0.10375774064E+04  0.00000000000E+00 0.  1.
          5    1    4    4  501    0  0.76079114288E+02  0.48936055276E+01  0.35157133654E+03  0.35976639099E+03  0.41800000000E+01 0.  1.
         -5    1    4    4    0  501 -0.29431494126E+02  0.71573484599E+02  0.36111742433E+03  0.36934028090E+03  0.41800000000E+01 0.  1.
</event>
<event>
11    1  0.8864208E-009  0.1986094E+03  0.7561462E-02  0.1055511E+00
         22   -1    0    0    0    0  0.00000000000E+00  0.00000000000E+00  0.36474106355E+03  0.36474106355E+03  0.00000000000E+00 0. -1.
         22   -1    0    0    0    0 -0.00000000000E+00 -0.00000000000E+00 -0.80652710413E+03  0.80652710413E+03  0.00000000000E+00 0. -1.
        -24    2    1    2    0    0  0.37272636596E+02  0.58165430235E+02 -0.62453555110E+03  0.63343440364E+03  0.80137521857E+02 0.  0.
         25    2    1    2    0    0  0.11749488343E+03 -0.88603170215E+02 -0.89474887520E+02  0.21286174602E+03  0.12509515584E+03 0.  0.
         24    2    1    2    0    0 -0.15476752003E+03  0.30437739981E+02  0.27222439804E+03  0.32497201802E+03  0.81371053464E+02 0.  0.
        -13    1    5    5    0    0 -0.37605162621E+02  0.39373511047E+02  0.51626567299E+02  0.75031487250E+02  0.00000000000E+00 0.  1.
         14    1    5    5    0    0 -0.11716235741E+03 -0.89357710663E+01  0.22059783074E+03  0.24994053077E+03  0.00000000000E+00 0. -1.
         11    1    3    3    0    0  0.53119155927E+02  0.16289092549E+02 -0.44244252835E+03  0.44591744769E+03  0.00000000000E+00 0. -1.
        -12    1    3    3    0    0 -0.15846519331E+02  0.41876337685E+02 -0.18209302275E+03  0.18751695594E+03  0.00000000000E+00 0.  1.
          5    1    4    4  501    0  0.40664822603E+02  0.89038876600E+01  0.20837014420E+02  0.46739283079E+02  0.41800000000E+01 0.  1.
         -5    1    4    4    0  501  0.76830060830E+02 -0.97507057875E+02 -0.11031190194E+03  0.16612246294E+03  0.41800000000E+01 0.  1.
</event>
<event>
11    1  0.8864208E-009  0.1475283E+03  0.7561462E-02  0.1099431E+00
         22   -1    0    0    0    0  0.00000000000E+00  0.00000000000E+00  0.83571729957E+03  0.83571729957E+03  0.00000000000E+00 0. -1.
         22   -1    0    0    0    0 -0.00000000000E+00 -0.00000000000E+00 -0.10007303492E+04  0.10007303492E+04  0.00000000000E+00 0.  1.
        -24    2    1    2    0    0  0.31481680428E+02 -0.48190927320E+02 -0.94034298085E+03  0.94559755019E+03  0.81217877460E+02 0.  0.
         25    2    1    2    0    0  0.12143823403E+02  0.11098352810E+03  0.78348615290E+02  0.18506986287E+03  0.12509009821E+03 0.  0.
         24    2    1    2    0    0 -0.43625503832E+02 -0.62792600777E+02  0.69698131597E+03  0.70578023566E+03  0.80602052961E+02 0.  0.
        -13    1    5    5    0    0  0.16539165807E+02 -0.20415825989E+02  0.75175161034E+02  0.79634507551E+02  0.00000000000E+00 0.  1.
         14    1    5    5    0    0 -0.60164669639E+02 -0.42376774788E+02  0.62180615493E+03  0.62614572811E+03  0.00000000000E+00 0. -1.
         11    1    3    3    0    0  0.35031819870E+02  0.57091676276E+00 -0.16321616242E+03  0.16693432847E+03  0.00000000000E+00 0. -1.
        -12    1    3    3    0    0 -0.35501394419E+01 -0.48761844083E+02 -0.77712681843E+03  0.77866322172E+03  0.00000000000E+00 0.  1.
          5    1    4    4  501    0  0.37413673573E+02  0.12988232639E+03  0.69444219403E+02  0.15201701775E+03  0.41800000000E+01 0.  1.
         -5    1    4    4    0  501 -0.25269850170E+02 -0.18898798290E+02  0.89043958878E+01  0.33052845120E+02  0.41800000000E+01 0.  1.
</event>
<event>
11    1  0.8864208E-009  0.1484073E+03  0.7561462E-02  0.1098517E+00
         22   -1    0    0    0    0  0.00000000000E+00  0.00000000000E+00  0.14357190809E+03  0.14357190809E+03  0.00000000000E+00 0.  1.
         22   -1    0    0    0    0 -0.00000000000E+00 -0.00000000000E+00 -0.16415122475E+04  0.16415122475E+04  0.00000000000E+00 0. -1.
        -24    2    1    2    0    0  0.70468874513E+02  0.34722213206E+02 -0.13072131170E+04  0.13121014822E+04  0.81441217184E+02 0.  0.
         25    2    1    2    0    0 -0.47498744828E+02 -0.10559417502E+03 -0.28184098089E+03  0.32937595256E+03  0.12509164263E+03 0.  0.
         24    2    1    2    0    0 -0.22970129685E+02  0.70871961812E+02  0.91113758541E+02  0.14360672082E+03  0.82284332899E+02 0.  0.
        -13    1    5    5    0    0 -0.66108295988E+01  0.87047800719E+02  0.78323263424E+02  0.11728408362E+03  0.00000000000E+00 0.  1.
         14    1    5    5    0    0 -0.16359300087E+02 -0.16175838907E+02  0.12790495117E+02  0.26322637197E+02  0.00000000000E+00 0. -1.
         11    1    3    3    0    0  0.70272873774E+02  0.56427451671E+02 -0.96442798743E+03  0.96862979359E+03  0.00000000000E+00 0. -1.
        -12    1    3    3    0    0  0.19600073970E+00 -0.21705238465E+02 -0.34278512961E+03  0.34347168861E+03  0.00000000000E+00 0.  1.
          5    1    4    4  501    0 -0.49350961153E+02 -0.11116602556E+03 -0.29232915402E+03  0.31664997915E+03  0.41800000000E+01 0.  1.
         -5    1    4    4    0  501  0.18522163252E+01  0.55718505475E+01  0.10488173122E+02  0.12725973412E+02  0.41800000000E+01 0.  1.
</event>
<event>
11    1  0.8864208E-009  0.1939423E+03  0.7561462E-02  0.1058892E+00
         22   -1    0    0    0    0  0.00000000000E+00  0.00000000000E+00  0.29792958700E+03  0.29792958700E+03  0.00000000000E+00 0. -1.
         22   -1    0    0    0    0 -0.00000000000E+00 -0.00000000000E+00 -0.30266545778E+03  0.30266545778E+03  0.00000000000E+00 0.  1.
        -24    2    1    2    0    0 -0.29220077138E+02 -0.63999754856E+02 -0.35119237716E+02  0.11262547533E+03  0.80630982300E+02 0.  0.
         25    2    1    2    0    0  0.56203120135E+02 -0.90551244106E+02 -0.15930005266E+03  0.22887149862E+03  0.12508931841E+03 0.  0.
         24    2    1    2    0    0 -0.26983042997E+02  0.15455099896E+03  0.18968341959E+03  0.25909807083E+03  0.80857372905E+02 0.  0.
        -11    1    5    5    0    0 -0.12774911592E+01 -0.86842404249E+01  0.21944843399E+02  0.23635231482E+02  0.00000000000E+00 0.  1.
         12    1    5    5    0    0 -0.25705551838E+02  0.16323523939E+03  0.16773857619E+03  0.23546283935E+03  0.00000000000E+00 0. -1.
         11    1    3    3    0    0 -0.19051211174E+02 -0.77631798681E+02 -0.46201133592E+02  0.92326537674E+02  0.00000000000E+00 0. -1.
        -12    1    3    3    0    0 -0.10168865964E+02  0.13632043826E+02  0.11081895876E+02  0.20298937659E+02  0.00000000000E+00 0.  1.
          5    1    4    4  501    0 -0.18410798713E+02 -0.83393769449E+02 -0.10887090476E+03  0.13843346631E+03  0.41800000000E+01 0. -1.
         -5    1    4    4    0  501  0.74613918848E+02 -0.71574746569E+01 -0.50429147904E+02  0.90438032307E+02  0.41800000000E+01 0. -1.
</event>
<event>
11    1  0.8864208E-009  0.1470016E+03  0.7561462E-02  0.1099983E+00
         22   -1    0    0    0    0  0.00000000000E+00  0.00000000000E+00  0.28792939617E+03  0.28792939617E+03  0.00000000000E+00 0. -1.
         22   -1    0    0    0    0 -0.00000000000E+00 -0.00000000000E+00 -0.17230321429E+04  0.17230321429E+04  0.00000000000E+00 0.  1.
        -24    2    1    2    0    0  0.14244689390E+02 -0.76633785618E+02 -0.16751210420E+04  0.16788198424E+04  0.79560729564E+02 0.  0.
         25    2    1    2    0    0 -0.13837981004E+02  0.21413922443E+02  0.10491986158E+03  0.16524512702E+03  0.12509088238E+03 0.  0.
         24    2    1    2    0    0 -0.40670838569E+00  0.55219863175E+02  0.13509843367E+03  0.16689656964E+03  0.80953563705E+02 0.  0.
        -13    1    5    5    0    0  0.15055565312E+02  0.26229706675E+01 -0.52991274258E+01  0.16175004590E+02  0.00000000000E+00 0.  1.
         14    1    5    5    0    0 -0.15462273698E+02  0.52596892507E+02  0.14039756110E+03  0.15072156505E+03  0.00000000000E+00 0. -1.
         11    1    3    3    0    0 -0.31422198202E+02 -0.18085750197E+02 -0.65267537428E+03  0.65368156858E+03  0.00000000000E+00 0. -1.
        -12    1    3    3    0    0  0.45666887591E+02 -0.58548035421E+02 -0.10224456677E+04  0.10251382738E+04  0.00000000000E+00 0.  1.
          5    1    4    4  501    0 -0.15309818340E+02  0.71282664845E+02  0.83108497751E+02  0.11063500189E+03  0.41800000000E+01 0.  1.
         -5    1    4    4    0  501  0.14718373361E+01 -0.49868742402E+02  0.21811363833E+02  0.54610125125E+02  0.41800000000E+01 0.  1.
</event>
<event>
11    1  0.8864208E-009  0.1608751E+03  0.7561462E-02  0.1086257E+00
         22   -1    0    0    0    0  0.00000000000E+00  0.00000000000E+00  0.45122349528E+03  0.45122349528E+03  0.00000000000E+00 0. -1.
         22   -1    0    0    0    0 -0.00000000000E+00 -0.00000000000E+00 -0.41923957858E+03  0.41923957858E+03  0.00000000000E+00 0. -1.
        -24    2    1    2    0    0 -0.11646672412E+03  0.17542135070E+02 -0.29927577415E+03  0.33115843427E+03  0.78915747865E+02 0.  0.
         25    2    1    2    0    0  0.20607022514E+02 -0.77924847227E+02 -0.29870368946E+02  0.15177623365E+03  0.12508738933E+03 0.  0.
         24    2    1    2    0    0  0.95859701602E+02  0.60382712158E+02  0.36113005980E+03  0.38752840594E+03  0.83235755539E+02 0.  0.
        -13    1    5    5    0    0  0.36975602946E+02  0.27131639512E+02  0.45019840505E+02  0.64265909430E+02  0.00000000000E+00 0.  1.
         14    1    5    5    0    0  0.58884098656E+02  0.33251072646E+02  0.31611021929E+03  0.32326249651E+03  0.00000000000E+00 0. -1.
         13    1    3    3    0    0 -0.86732412992E+02  0.43526866739E+02 -0.24891189018E+03  0.26715955657E+03  0.00000000000E+00 0. -1.
        -14    1    3    3    0    0 -0.29734311124E+02 -0.25984731669E+02 -0.50363883975E+02  0.63998877701E+02  0.00000000000E+00 0.  1.
          5    1    4    4  501    0  0.22064427914E+02 -0.61146855735E+02  0.42220692693E+02  0.77626259970E+02  0.41800000000E+01 0. -1.
         -5    1    4    4    0  501 -0.14574053994E+01 -0.16777991492E+02 -0.72091061639E+02  0.74149973683E+02  0.41800000000E+01 0. -1.
</event>
<event>
11    1  0.8864208E-009  0.1858328E+03  0.7561462E-02  0.1065020E+00
         22   -1    0    0    0    0  0.00000000000E+00  0.00000000000E+00  0.22052593201E+04  0.22052593201E+04  0.00000000000E+00 0.  1.
         22   -1    0    0    0    0 -0.00000000000E+00 -0.00000000000E+00 -0.32053476197E+03  0.32053476197E+03  0.00000000000E+00 0. -1.
         24    2    1    2    0    0 -0.41180122819E+02  0.78970669167E+02 -0.26407810733E+03  0.29971292423E+03  0.11026523060E+03 0.  0.
         25    2    1    2    0    0  0.15778274631E+03 -0.54614764071E+01  0.25178569503E+03  0.32244227617E+03  0.12509101679E+03 0.  0.
        -24    2    1    2    0    0 -0.11660262349E+03 -0.73509192760E+02  0.18970169705E+04  0.19036388817E+04  0.78535549259E+02 0.  0.
        -13    1    3    3    0    0 -0.12968525275E+02 -0.15677079109E+02 -0.29836028306E+01  0.20563446770E+02  0.00000000000E+00 0.  1.
         14    1    3    3    0    0 -0.28211597545E+02  0.94647748276E+02 -0.26109450450E+03  0.27914947746E+03  0.00000000000E+00 0. -1.
         13    1    5    5    0    0 -0.34903381924E+02 -0.64377763562E+02  0.10859502169E+04  0.10884165637E+04  0.00000000000E+00 0. -1.
        -14    1    5    5    0    0 -0.81699241569E+02 -0.91314291978E+01  0.81106675356E+03  0.81522231802E+03  0.00000000000E+00 0.  1.
          5    1    4    4  501    0  0.16294580810E+02 -0.24002989956E+02 -0.39327450720E+01  0.29573565466E+02  0.41800000000E+01 0.  1.
         -5    1    4    4    0  501  0.14148816550E+03  0.18541513549E+02  0.25571844010E+03  0.29286871071E+03  0.41800000000E+01 0.  1.
</event>
<event>
11    1  0.8864208E-009  0.2142683E+03  0.7561462E-02  0.1044869E+00
         22   -1    0    0    0    0  0.00000000000E+00  0.00000000000E+00  0.27393415329E+03  0.27393415329E+03  0.00000000000E+00 0. -1.
         22   -1    0    0    0    0 -0.00000000000E+00 -0.00000000000E+00 -0.13563028157E+04  0.13563028157E+04  0.00000000000E+00 0.  1.
        -24    2    1    2    0    0 -0.99359412649E+01  0.74620922051E+02 -0.11131677271E+04  0.11184331693E+04  0.77995900717E+02 0.  0.
         25    2    1    2    0    0  0.13992241427E+03 -0.17377221338E+03 -0.11036575295E+03  0.27857660056E+03  0.12509699756E+03 0.  0.
         24    2    1    2    0    0 -0.12998647300E+03  0.99151291324E+02  0.14116481770E+03  0.23322719911E+03  0.87977036279E+02 0.  0.
        -11    1    5    5    0    0 -0.36966414514E+02  0.99358829971E+01 -0.47128557954E+01  0.38567454968E+02  0.00000000000E+00 0.  1.
         12    1    5    5    0    0 -0.93020058488E+02  0.89215408327E+02  0.14587767349E+03  0.19465974414E+03  0.00000000000E+00 0. -1.
         11    1    3    3    0    0  0.20535674462E+02 -0.59756406146E+01 -0.17063225480E+03  0.17196740559E+03  0.00000000000E+00 0. -1.
        -12    1    3    3    0    0 -0.30471615726E+02  0.80596562666E+02 -0.94253547232E+03  0.94646576370E+03  0.00000000000E+00 0.  1.
          5    1    4    4  501    0  0.14081724216E+03 -0.15040811071E+03 -0.13340025351E+03  0.24548970547E+03  0.41800000000E+01 0. -1.
         -5    1    4    4    0  501 -0.89482789364E+00 -0.23364102663E+02  0.23034500560E+02  0.33086895084E+02  0.41800000000E+01 0. -1.
</event>
<event>
11    1  0.8864208E-009  0.1430148E+03  0.7561462E-02  0.1104238E+00
         22   -1    0    0    0    0  0.00000000000E+00  0.00000000000E+00  0.74390895474E+03  0.74390895474E+03  0.00000000000E+00 0. -1.
         22   -1    0    0    0    0 -0.00000000000E+00 -0.00000000000E+00 -0.19139260612E+03  0.19139260612E+03  0.00000000000E+00 0. -1.
        -24    2    1    2    0    0  0.70288953527E+02 -0.88232973884E+01 -0.13163785986E+03  0.16974483152E+03  0.80413892552E+02 0.  0.
         25    2    1    2    0    0 -0.61014578198E+02 -0.18063613787E+02  0.93271173954E+02  0.16851212133E+03  0.12509096790E+03 0.  0.
         24    2    1    2    0    0 -0.92743753290E+01  0.26886911175E+02  0.59088303453E+03  0.59704460800E+03  0.80688186351E+02 0.  0.
        -13    1    5    5    0    0 -0.25585584376E+02 -0.21892472317E+02  0.20463789153E+03  0.20738989638E+03  0.00000000000E+00 0.  1.
         14    1    5    5    0    0  0.16311209047E+02  0.48779383492E+02  0.38624514300E+03  0.38965471162E+03  0.00000000000E+00 0. -1.
         11    1    3    3    0    0  0.56430179672E+02  0.31362113420E+02 -0.75773423530E+02  0.99546768152E+02  0.00000000000E+00 0. -1.
        -12    1    3    3    0    0  0.13858773855E+02 -0.40185410808E+02 -0.55864436331E+02  0.70198063372E+02  0.00000000000E+00 0.  1.
          5    1    4    4  501    0 -0.81362921434E+01 -0.65766568289E+02  0.61180654423E+02  0.90288347144E+02  0.41800000000E+01 0. -1.
         -5    1    4    4    0  501 -0.52878286055E+02  0.47702954502E+02  0.32090519531E+02  0.78223774187E+02  0.41800000000E+01 0. -1.
</event>
<event>
11    1  0.8864208E-009  0.1435930E+03  0.7561462E-02  0.1103611E+00
         22   -1    0    0    0    0  0.00000000000E+00  0.00000000000E+00  0.89655167249E+03  0.89655167249E+03  0.00000000000E+00 0. -1.
         22   -1    0    0    0    0 -0.00000000000E+00 -0.00000000000E+00 -0.23500940046E+03  0.23500940046E+03  0.00000000000E+00 0. -1.
         24    2    1    2    0    0 -0.27258018443E+01  0.59656869089E+01 -0.18820953965E+03  0.20451891289E+03  0.79762995791E+02 0.  0.
         25    2    1    2    0    0 -0.18448351524E+02 -0.72722343145E+02  0.11764167550E+03  0.18739197130E+03  0.12508919308E+03 0.  0.
        -24    2    1    2    0    0  0.21174153368E+02  0.66756656237E+02  0.73211013619E+03  0.73965018875E+03  0.78691513498E+02 0.  0.
        -13    1    3    3    0    0 -0.19402166189E+02  0.30310709118E+02 -0.41768438925E+02  0.55134250973E+02  0.00000000000E+00 0.  1.
         14    1    3    3    0    0  0.16676364344E+02 -0.24345022209E+02 -0.14644110073E+03  0.14938466192E+03  0.00000000000E+00 0. -1.
         13    1    5    5    0    0  0.48746249470E+02  0.56110398265E+02  0.57500561643E+03  0.57978964509E+03  0.00000000000E+00 0. -1.
        -14    1    5    5    0    0 -0.27572096102E+02  0.10646257972E+02  0.15710451976E+03  0.15986054366E+03  0.00000000000E+00 0.  1.
          5    1    4    4  501    0  0.38783401728E+02 -0.76037691809E+02  0.51557760760E+02  0.99807604519E+02  0.41800000000E+01 0.  1.
         -5    1    4    4    0  501 -0.57231753252E+02  0.33153486636E+01  0.66083914736E+02  0.87584366778E+02  0.41800000000E+01 0.  1.
</event>
<event>
11    1  0.8864208E-009  0.1315495E+03  0.7561462E-02  0.1117380E+00
         22   -1    0    0    0    0  0.00000000000E+00  0.00000000000E+00  0.37208113514E+03  0.37208113514E+03  0.00000000000E+00 0.  1.
         22   -1    0    0    0    0 -0.00000000000E+00 -0.00000000000E+00 -0.16994686124E+04  0.16994686124E+04  0.00000000000E+00 0.  1.
        -24    2    1    2    0    0 -0.15301924770E+02  0.53620720607E+01 -0.16211999339E+04  0.16233430954E+04  0.81796571577E+02 0.  0.
         25    2    1    2    0    0  0.17621915238E+02 -0.45461242156E+02 -0.70769041011E+01  0.13444584414E+03  0.12509334915E+03 0.  0.
         24    2    1    2    0    0 -0.23199904674E+01  0.40099170096E+02  0.30088936080E+03  0.31376080791E+03  0.79360640990E+02 0.  0.
        -11    1    5    5    0    0 -0.29712554265E+02  0.30856179285E+02  0.26102769311E+03  0.26451917937E+03  0.00000000000E+00 0.  1.
         12    1    5    5    0    0  0.27392563798E+02  0.92429908107E+01  0.39861667684E+02  0.49241628538E+02  0.00000000000E+00 0. -1.
         11    1    3    3    0    0  0.28537641700E+02  0.18991883940E+02 -0.48139677248E+03  0.48261572830E+03  0.00000000000E+00 0. -1.
        -12    1    3    3    0    0 -0.43839566470E+02 -0.13629811879E+02 -0.11398031614E+04  0.11407273671E+04  0.00000000000E+00 0.  1.
          5    1    4    4  501    0 -0.23987589861E+02 -0.72056186632E+02 -0.27452289646E+02  0.80861604647E+02  0.41800000000E+01 0. -1.
         -5    1    4    4    0  501  0.41609505099E+02  0.26594944476E+02  0.20375385544E+02  0.53584239495E+02  0.41800000000E+01 0. -1.
</event>
<event>
11    1  0.8864208E-009  0.1861116E+03  0.7561462E-02  0.1064804E+00
         22   -1    0    0    0    0  0.00000000000E+00  0.00000000000E+00  0.17685547093E+04  0.17685547093E+04  0.00000000000E+00 0.  1.
         22   -1    0    0    0    0 -0.00000000000E+00 -0.00000000000E+00 -0.56647459509E+03  0.56647459509E+03  0.00000000000E+00 0. -1.
        -24    2    1    2    0    0 -0.40990456327E+02 -0.76099507722E+02 -0.51906939268E+03  0.53213597843E+03  0.79147410190E+02 0.  0.
         25    2    1    2    0    0  0.15808282150E+03  0.28958670339E+01  0.24134485714E+03  0.31447347738E+03  0.12509062078E+03 0.  0.
         24    2    1    2    0    0 -0.11709236517E+03  0.73203640688E+02  0.14798046497E+04  0.14884198486E+04  0.80637765607E+02 0.  0.
        -11    1    5    5    0    0 -0.64501081736E+01 -0.62685726860E+00  0.45169055493E+03  0.45173704105E+03  0.00000000000E+00 0.  1.
         12    1    5    5    0    0 -0.11064225700E+03  0.73830497957E+02  0.10281140948E+04  0.10366828075E+04  0.00000000000E+00 0. -1.
         11    1    3    3    0    0 -0.45381593131E+02 -0.46541189871E+02 -0.47149560834E+03  0.47595554418E+03  0.00000000000E+00 0. -1.
        -12    1    3    3    0    0  0.43911368034E+01 -0.29558317851E+02 -0.47573784339E+02  0.56180434253E+02  0.00000000000E+00 0.  1.
          5    1    4    4  501    0 -0.10469453965E+01  0.24818026849E+02  0.90990007952E+02  0.94412311159E+02  0.41800000000E+01 0.  1.
         -5    1    4    4    0  501  0.15912976690E+03 -0.21922159815E+02  0.15035484918E+03  0.22006116622E+03  0.41800000000E+01 0.  1.
</event>
<event>
11    1  0.8864208E-009  0.1563844E+03  0.7561462E-02  0.1090528E+00
         22   -1    0    0    0    0  0.00000000000E+00  0.00000000000E+00  0.57837087970E+03  0.57837087970E+03  0.00000000000E+00 0.  1.
         22   -1    0    0    0    0 -0.00000000000E+00 -0.00000000000E+00 -0.10167665695E+04  0.10167665695E+04  0.00000000000E+00 0. -1.
        -24    2    1    2    0    0  0.85909974239E+02  0.36250035720E+02 -0.82774102350E+03  0.83706978088E+03  0.82680271565E+02 0.  0.
         25    2    1    2    0    0 -0.68635349204E+02 -0.87582423207E+02 -0.14103381671E+03  0.21890483254E+03  0.12508915317E+03 0.  0.
         24    2    1    2    0    0 -0.17274625034E+02  0.51332387487E+02  0.53037915047E+03  0.53916283573E+03  0.80380927507E+02 0.  0.
        -13    1    5    5    0    0 -0.27662528881E+02  0.52704187506E+02  0.52293002465E+03  0.52630671434E+03  0.00000000000E+00 0.  1.
         14    1    5    5    0    0  0.10387903846E+02 -0.13718000196E+01  0.74491258179E+01  0.12856121385E+02  0.00000000000E+00 0. -1.
         13    1    3    3    0    0  0.19231868756E+02  0.65568097033E+01 -0.53433039475E+03  0.53471658594E+03  0.00000000000E+00 0. -1.
        -14    1    3    3    0    0  0.66678105483E+02  0.29693226017E+02 -0.29341062876E+03  0.30235319494E+03  0.00000000000E+00 0.  1.
          5    1    4    4  501    0 -0.10196853547E+03 -0.56304810906E+02 -0.12337306560E+03  0.16972389246E+03  0.41800000000E+01 0. -1.
         -5    1    4    4    0  501  0.33333186264E+02 -0.31277612301E+02 -0.17660751115E+02  0.49180940085E+02  0.41800000000E+01 0. -1.
</event>
<event>
11    1  0.8864208E-009  0.1276392E+03  0.7561462E-02  0.1122204E+00
         22   -1    0    0    0    0  0.00000000000E+00  0.00000000000E+00  0.83619676517E+02  0.83619676517E+02  0.00000000000E+00 0.  1.
         22   -1    0    0    0    0 -0.00000000000E+00 -0.00000000000E+00 -0.25082918620E+04  0.25082918620E+04  0.00000000000E+00 0.  1.
         24    2    1    2    0    0 -0.41546565707E+02 -0.89159603501E+01 -0.22444678755E+04  0.22462073692E+04  0.77497677488E+02 0.  0.
         25    2    1    2    0    0  0.49178953426E+02 -0.12658833918E+02 -0.18873938866E+03  0.23205045738E+03  0.12508414128E+03 0.  0.
        -24    2    1    2    0    0 -0.76323877195E+01  0.21574794268E+02  0.85350786182E+01  0.11365371196E+03  0.11099816929E+03 0.  0.
        -11    1    3    3    0    0 -0.52795217409E+02 -0.31674518776E+02 -0.17576775097E+04  0.17587554799E+04  0.00000000000E+00 0.  1.
         12    1    3    3    0    0  0.11248651702E+02  0.22758558426E+02 -0.48679036579E+03  0.48745188929E+03  0.00000000000E+00 0. -1.
         13    1    5    5    0    0  0.49202222728E+02 -0.34975410936E+01 -0.64673937247E+01  0.49748554720E+02  0.00000000000E+00 0. -1.
        -14    1    5    5    0    0 -0.56834610448E+02  0.25072335362E+02  0.15002472343E+02  0.63905157238E+02  0.00000000000E+00 0.  1.
          5    1    4    4  501    0  0.63647569139E+02  0.40613036661E+02 -0.80313306599E+02  0.11030925356E+03  0.41800000000E+01 0. -1.
         -5    1    4    4    0  501 -0.14468615713E+02 -0.53271870579E+02 -0.10842608206E+03  0.12174120382E+03  0.41800000000E+01 0. -1.
</event>
<event>
11    1  0.8864208E-009  0.1671371E+03  0.7561462E-02  0.1080550E+00
         22   -1    0    0    0    0  0.00000000000E+00  0.00000000000E+00  0.25770623614E+03  0.25770623614E+03  0.00000000000E+00 0.  1.
         22   -1    0    0    0    0 -0.00000000000E+00 -0.00000000000E+00 -0.19217229300E+03  0.19217229300E+03  0.00000000000E+00 0. -1.
        -24    2    1    2    0    0 -0.12685829036E+03  0.12455963236E+02 -0.67262239752E+02  0.16561036696E+03  0.81574554204E+02 0.  0.
         25    2    1    2    0    0  0.75493724927E+02 -0.18888180914E+02  0.45230610027E+02  0.15410572686E+03  0.12508677422E+03 0.  0.
         24    2    1    2    0    0  0.51364565433E+02  0.64322176781E+01  0.87565572862E+02  0.13016243533E+03  0.81208607999E+02 0.  0.
        -13    1    5    5    0    0  0.45988699220E+02  0.58263885231E+01  0.10346108973E+03  0.11337153235E+03  0.00000000000E+00 0.  1.
         14    1    5    5    0    0  0.53758662128E+01  0.60582915501E+00 -0.15895516865E+02  0.16790902980E+02  0.00000000000E+00 0. -1.
         11    1    3    3    0    0  0.87045105739E+00  0.23081414424E+02 -0.85021635550E+01  0.24612926725E+02  0.00000000000E+00 0. -1.
        -12    1    3    3    0    0 -0.12772874142E+03 -0.10625451188E+02 -0.58760076197E+02  0.14099744023E+03  0.00000000000E+00 0.  1.
          5    1    4    4  501    0  0.48320895228E+01  0.29647655152E+02 -0.28004319922E+02  0.41280102706E+02  0.41800000000E+01 0. -1.
         -5    1    4    4    0  501  0.70661635404E+02 -0.48535836065E+02  0.73234929949E+02  0.11282562415E+03  0.41800000000E+01 0. -1.
</event>
<event>
11    1  0.8864208E-009  0.1725794E+03  0.7561462E-02  0.1075808E+00
         22   -1    0    0    0    0  0.00000000000E+00  0.00000000000E+00  0.16306705615E+04  0.16306705615E+04  0.00000000000E+00 0. -1.
         22   -1    0    0    0    0 -0.00000000000E+00 -0.00000000000E+00 -0.14837210083E+03  0.14837210083E+03  0.00000000000E+00 0.  1.
         24    2    1    2    0    0  0.51520161913E+02  0.11515670289E+03 -0.92003669814E+02  0.17557933738E+03  0.80299658474E+02 0.  0.
         25    2    1    2    0    0 -0.13550316158E+02 -0.51698764600E+02  0.36847302098E+03  0.39278029845E+03  0.12509045659E+03 0.  0.
        -24    2    1    2    0    0 -0.37969845755E+02 -0.63457938290E+02  0.12058291095E+04  0.12106830265E+04  0.79126040110E+02 0.  0.
        -13    1    3    3    0    0  0.41133176463E+02  0.66301240177E+02 -0.98007067079E+02  0.12527241457E+03  0.00000000000E+00 0.  1.
         14    1    3    3    0    0  0.10386985450E+02  0.48855462713E+02  0.60033972653E+01  0.50306922807E+02  0.00000000000E+00 0. -1.
         11    1    5    5    0    0 -0.34890310817E+02 -0.47433510747E+02  0.11680161541E+04  0.11694994690E+04  0.00000000000E+00 0. -1.
        -12    1    5    5    0    0 -0.30795349385E+01 -0.16024427543E+02  0.37812955447E+02  0.41183557558E+02  0.00000000000E+00 0.  1.
          5    1    4    4  501    0 -0.65043706714E+01 -0.88339877005E+02  0.18065186762E+03  0.20124316232E+03  0.41800000000E+01 0. -1.
         -5    1    4    4    0  501 -0.70459454864E+01  0.36641112405E+02  0.18782115336E+03  0.19153713613E+03  0.41800000000E+01 0. -1.
</event>
<event>
11    1  0.8864208E-009  0.1342045E+03  0.7561462E-02  0.1114208E+00
         22   -1    0    0    0    0  0.00000000000E+00  0.00000000000E+00  0.73082692364E+03  0.73082692364E+03  0.00000000000E+00 0.  1.
         22   -1    0    0    0    0 -0.00000000000E+00 -0.00000000000E+00 -0.70725457667E+03  0.70725457667E+03  0.00000000000E+00 0.  1.
         24    2    1    2    0    0  0.19460469105E+02 -0.45471453121E+02 -0.65988949466E+03  0.66578489438E+03  0.73273579929E+02 0.  0.
         25    2    1    2    0    0  0.69455535937E+01  0.25120690312E+02  0.56578339042E+02  0.13974209344E+03  0.12508978549E+03 0.  0.
        -24    2    1    2    0    0 -0.26406022699E+02  0.20350762809E+02  0.62688350259E+03  0.63255451249E+03  0.77658572411E+02 0.  0.
        -11    1    3    3    0    0  0.12494366273E+02 -0.10241680198E+02 -0.54874279333E+03  0.54898055925E+03  0.00000000000E+00 0.  1.
         12    1    3    3    0    0  0.69661028317E+01 -0.35229772923E+02 -0.11114670133E+03  0.11680433513E+03  0.00000000000E+00 0. -1.
         11    1    5    5    0    0 -0.38617888944E+02  0.13490808297E+02  0.15035813174E+03  0.15582333277E+03  0.00000000000E+00 0. -1.
        -12    1    5    5    0    0  0.12211866245E+02  0.68599545119E+01  0.47652537085E+03  0.47673117972E+03  0.00000000000E+00 0.  1.
          5    1    4    4  501    0  0.46450384261E+02  0.57301722441E+02  0.18981996019E+02  0.76281807566E+02  0.41800000000E+01 0. -1.
         -5    1    4    4    0  501 -0.39504830667E+02 -0.32181032129E+02  0.37596343023E+02  0.63460285877E+02  0.41800000000E+01 0. -1.
</event>
<event>
11    1  0.8864208E-009  0.1588392E+03  0.7561462E-02  0.1088174E+00
         22   -1    0    0    0    0  0.00000000000E+00  0.00000000000E+00  0.10116532955E+03  0.10116532955E+03  0.00000000000E+00 0. -1.
         22   -1    0    0    0    0 -0.00000000000E+00 -0.00000000000E+00 -0.74743142301E+03  0.74743142301E+03  0.00000000000E+00 0. -1.
        -24    2    1    2    0    0  0.72185002782E+02 -0.74974001160E+02 -0.43970715199E+03  0.45897933373E+03  0.80547338929E+02 0.  0.
         25    2    1    2    0    0 -0.75211023592E+02  0.43175936599E+02 -0.25032800688E+03  0.29297162733E+03  0.12508958319E+03 0.  0.
         24    2    1    2    0    0  0.30260208105E+01  0.31798064561E+02  0.43769065401E+02  0.96645791506E+02  0.80027521629E+02 0.  0.
        -11    1    5    5    0    0 -0.18761917276E+02 -0.21486588184E+01 -0.15855693453E+02  0.24658249927E+02  0.00000000000E+00 0.  1.
         12    1    5    5    0    0  0.21787938086E+02  0.33946723379E+02  0.59624758854E+02  0.71987541579E+02  0.00000000000E+00 0. -1.
         11    1    3    3    0    0 -0.14178212386E+01 -0.26752774168E+02 -0.23006400197E+03  0.23161857902E+03  0.00000000000E+00 0. -1.
        -12    1    3    3    0    0  0.73602824020E+02 -0.48221226991E+02 -0.20964315001E+03  0.22736075471E+03  0.00000000000E+00 0.  1.
          5    1    4    4  501    0 -0.38560447546E+02 -0.14202488298E+02 -0.20937265115E+03  0.21340805570E+03  0.41800000000E+01 0. -1.
         -5    1    4    4    0  501 -0.36650576046E+02  0.57378424897E+02 -0.40955355729E+02  0.79563571633E+02  0.41800000000E+01 0. -1.
</event>
<event>
11    1  0.8864208E-009  0.1675596E+03  0.7561462E-02  0.1080175E+00
         22   -1    0    0    0    0  0.00000000000E+00  0.00000000000E+00  0.93259945936E+03  0.93259945936E+03  0.00000000000E+00 0. -1.
         22   -1    0    0    0    0 -0.00000000000E+00 -0.00000000000E+00 -0.12378047929E+03  0.12378047929E+03  0.00000000000E+00 0. -1.
        -24    2    1    2    0    0 -0.89858035434E+02 -0.71251467864E+02 -0.40746741164E+02  0.14515858185E+03  0.79116867765E+02 0.  0.
         25    2    1    2    0    0  0.52084304665E+02  0.88362436307E+02  0.21404915322E+03  0.26829528765E+03  0.12507848112E+03 0.  0.
         24    2    1    2    0    0  0.37773730768E+02 -0.17110968443E+02  0.63551656801E+03  0.64292606915E+03  0.88051020460E+02 0.  0.
        -11    1    5    5    0    0  0.53125059804E+02  0.51040590533E+01  0.21433053767E+03  0.22087531047E+03  0.00000000000E+00 0.  1.
         12    1    5    5    0    0 -0.15351329036E+02 -0.22215027496E+02  0.42118603034E+03  0.42205075869E+03  0.00000000000E+00 0. -1.
         11    1    3    3    0    0 -0.94864682480E+02 -0.34271469703E+02 -0.37834074593E+02  0.10772770683E+03  0.00000000000E+00 0. -1.
        -12    1    3    3    0    0  0.50066470463E+01 -0.36979998161E+02 -0.29126665710E+01  0.37430875026E+02  0.00000000000E+00 0.  1.
          5    1    4    4  501    0  0.52658658887E+02  0.10013333074E+03  0.22486873539E+03  0.25175988330E+03  0.41800000000E+01 0.  1.
         -5    1    4    4    0  501 -0.57435422166E+00 -0.11770894437E+02 -0.10819582173E+02  0.16535404350E+02  0.41800000000E+01 0.  1.
</event>
<event>
11    1  0.8864208E-009  0.1267879E+03  0.7561462E-02  0.1123280E+00
         22   -1    0    0    0    0  0.00000000000E+00  0.00000000000E+00  0.11878347921E+04  0.11878347921E+04  0.00000000000E+00 0. -1.
         22   -1    0    0    0    0 -0.00000000000E+00 -0.00000000000E+00 -0.57789721816E+03  0.57789721816E+03  0.00000000000E+00 0.  1.
        -24    2    1    2    0    0 -0.12793783684E+02  0.16055328847E+02 -0.53722160446E+03  0.54397733920E+03  0.82962875950E+02 0.  0.
         25    2    1    2    0    0  0.27569938625E+01 -0.30813616303E+02  0.80503630451E+02  0.15193828994E+03  0.12508928600E+03 0.  0.
         24    2    1    2    0    0  0.10036789821E+02  0.14758287456E+02  0.10666555479E+04  0.10698163811E+04  0.80215255013E+02 0.  0.
        -13    1    5    5    0    0  0.10161944931E+02 -0.28730603528E+02  0.22715045480E+03  0.22918560562E+03  0.00000000000E+00 0.  1.
         14    1    5    5    0    0 -0.12515510932E+00  0.43488890984E+02  0.83950509311E+03  0.84063077547E+03  0.00000000000E+00 0. -1.
         11    1    3    3    0    0  0.20140582630E+02  0.68374928434E+01 -0.37697898074E+02  0.43284245358E+02  0.00000000000E+00 0. -1.
        -12    1    3    3    0    0 -0.32934366314E+02  0.92178360040E+01 -0.49952370638E+03  0.50069309384E+03  0.00000000000E+00 0.  1.
          5    1    4    4  501    0  0.20393061955E+02 -0.23311082327E+02  0.11120058342E+03  0.11550898532E+03  0.41800000000E+01 0. -1.
         -5    1    4    4    0  501 -0.17636068093E+02 -0.75025339760E+01 -0.30696952973E+02  0.36429304628E+02  0.41800000000E+01 0. -1.
</event>
<event>
11    1  0.8864208E-009  0.1304254E+03  0.7561462E-02  0.1118747E+00
         22   -1    0    0    0    0  0.00000000000E+00  0.00000000000E+00  0.72877383049E+03  0.72877383049E+03  0.00000000000E+00 0. -1.
         22   -1    0    0    0    0 -0.00000000000E+00 -0.00000000000E+00 -0.50644658199E+03  0.50644658199E+03  0.00000000000E+00 0. -1.
         24    2    1    2    0    0 -0.15876528997E+02  0.24316499796E+02 -0.36973119648E+03  0.38384606567E+03  0.98961043569E+02 0.  0.
         25    2    1    2    0    0  0.45169146764E+02 -0.77274725564E+02 -0.78990055949E+02  0.17291023162E+03  0.12508750629E+03 0.  0.
        -24    2    1    2    0    0 -0.29292617767E+02  0.52958225768E+02  0.67104850093E+03  0.67846411519E+03  0.79654465481E+02 0.  0.
        -13    1    3    3    0    0  0.37327877931E+02  0.38191983989E+01 -0.77513356580E+02  0.86117809978E+02  0.00000000000E+00 0.  1.
         14    1    3    3    0    0 -0.53204406928E+02  0.20497301397E+02 -0.29221783990E+03  0.29772825569E+03  0.00000000000E+00 0. -1.
         11    1    5    5    0    0 -0.52847288954E+02  0.16742372562E+02  0.43210143885E+03  0.43564296900E+03  0.00000000000E+00 0. -1.
        -12    1    5    5    0    0  0.23554671187E+02  0.36215853206E+02  0.23894706208E+03  0.24282114619E+03  0.00000000000E+00 0.  1.
          5    1    4    4  501    0  0.28907973347E+02 -0.85282336833E+02  0.16418112523E+01  0.90160500458E+02  0.41800000000E+01 0.  1.
         -5    1    4    4    0  501  0.16261173417E+02  0.80076112693E+01 -0.80631867201E+02  0.82749731163E+02  0.41800000000E+01 0.  1.
</event>
<event>
11    1  0.8864208E-009  0.3411327E+03  0.7561462E-02  0.9841443E-01
         22   -1    0    0    0    0  0.00000000000E+00  0.00000000000E+00  0.14910747010E+04  0.14910747010E+04  0.00000000000E+00 0. -1.
         22   -1    0    0    0    0 -0.00000000000E+00 -0.00000000000E+00 -0.52288362551E+03  0.52288362551E+03  0.00000000000E+00 0.  1.
        -24    2    1    2    0    0  0.25244938322E+03  0.18467561305E+03 -0.39127187098E+03  0.50739090617E+03  0.80722249100E+02 0.  0.
         25    2    1    2    0    0 -0.33391844492E+03 -0.15198070592E+03  0.47151588698E+03  0.61038822399E+03  0.12508752730E+03 0.  0.
         24    2    1    2    0    0  0.81469061699E+02 -0.32694907122E+02  0.88794705945E+03  0.89617919630E+03  0.83552417866E+02 0.  0.
        -13    1    5    5    0    0  0.42798349858E+02 -0.60047256674E+02  0.52407176373E+03  0.52923396086E+03  0.00000000000E+00 0.  1.
         14    1    5    5    0    0  0.38670711841E+02  0.27352349552E+02  0.36387529572E+03  0.36694523544E+03  0.00000000000E+00 0. -1.
         11    1    3    3    0    0  0.16711567288E+03  0.15385068514E+03 -0.23602314732E+03  0.32757381994E+03  0.00000000000E+00 0. -1.
        -12    1    3    3    0    0  0.85333710338E+02  0.30824927905E+02 -0.15524872366E+03  0.17981708623E+03  0.00000000000E+00 0.  1.
          5    1    4    4  501    0 -0.15972500868E+03 -0.67713520828E+01  0.21534993419E+03  0.26823682850E+03  0.41800000000E+01 0.  1.
         -5    1    4    4    0  501 -0.17419343624E+03 -0.14520935384E+03  0.25616595279E+03  0.34215139550E+03  0.41800000000E+01 0.  1.
</event>
<event>
11    1  0.8864208E-009  0.1644573E+03  0.7561462E-02  0.1082958E+00
         22   -1    0    0    0    0  0.00000000000E+00  0.00000000000E+00  0.59228059348E+03  0.59228059348E+03  0.00000000000E+00 0.  1.
         22   -1    0    0    0    0 -0.00000000000E+00 -0.00000000000E+00 -0.44005711455E+03  0.44005711455E+03  0.00000000000E+00 0.  1.
         24    2    1    2    0    0  0.67078931658E+02  0.83215189295E+02 -0.39175356934E+03  0.41387949639E+03  0.80006422489E+02 0.  0.
         25    2    1    2    0    0 -0.95532626092E+02 -0.56793741487E+02  0.18884940307E+03  0.25231371445E+03  0.12508437847E+03 0.  0.
        -24    2    1    2    0    0  0.28453694434E+02 -0.26421447808E+02  0.35512764519E+03  0.36614449720E+03  0.80239907901E+02 0.  0.
        -11    1    3    3    0    0  0.79500666828E+02  0.88036252838E+02 -0.32910763629E+03  0.34983220850E+03  0.00000000000E+00 0.  1.
         12    1    3    3    0    0 -0.12421735170E+02 -0.48210635430E+01 -0.62645933043E+02  0.64047287883E+02  0.00000000000E+00 0. -1.
         13    1    5    5    0    0 -0.26005131988E+02 -0.32946883588E+00  0.69581863860E+02  0.74283317223E+02  0.00000000000E+00 0. -1.
        -14    1    5    5    0    0  0.54458826422E+02 -0.26091978972E+02  0.28554578133E+03  0.29186117997E+03  0.00000000000E+00 0.  1.
          5    1    4    4  501    0 -0.11504290810E+03 -0.69612224734E+02  0.18428166372E+03  0.22816208388E+03  0.41800000000E+01 0.  1.
         -5    1    4    4    0  501  0.19510282003E+02  0.12818483247E+02  0.45677393528E+01  0.24151630574E+02  0.41800000000E+01 0.  1.
</event>
<event>
11    1  0.8864208E-009  0.1280217E+03  0.7561462E-02  0.1121724E+00
         22   -1    0    0    0    0  0.00000000000E+00  0.00000000000E+00  0.11176261903E+03  0.11176261903E+03  0.00000000000E+00 0. -1.
         22   -1    0    0    0    0 -0.00000000000E+00 -0.00000000000E+00 -0.57979164390E+03  0.57979164390E+03  0.00000000000E+00 0. -1.
        -24    2    1    2    0    0  0.37589716926E+01  0.24409703313E+02 -0.45187920377E+03  0.46086112549E+03  0.87110267524E+02 0.  0.
         25    2    1    2    0    0  0.46438698398E+01 -0.63848769530E+02 -0.16483077960E+02  0.14148278805E+03  0.12508979398E+03 0.  0.
         24    2    1    2    0    0 -0.84028415324E+01  0.39439066217E+02  0.33325685908E+00  0.89210349389E+02  0.79575924048E+02 0.  0.
        -13    1    5    5    0    0 -0.31468552750E+01  0.40178124825E+02 -0.35062560037E+02  0.53418793780E+02  0.00000000000E+00 0.  1.
         14    1    5    5    0    0 -0.52559862574E+01 -0.73905860741E+00  0.35395816896E+02  0.35791555609E+02  0.00000000000E+00 0. -1.
         13    1    3    3    0    0  0.12245288684E+02  0.19010687109E+02 -0.45007462840E+03  0.45064234649E+03  0.00000000000E+00 0. -1.
        -14    1    3    3    0    0 -0.84863169916E+01  0.53990162039E+01 -0.18045753670E+01  0.10218779003E+02  0.00000000000E+00 0.  1.
          5    1    4    4  501    0 -0.56437908882E+02 -0.50739061147E+02 -0.20555224737E+02  0.78738043848E+02  0.41800000000E+01 0. -1.
         -5    1    4    4    0  501  0.61081778722E+02 -0.13109708383E+02  0.40721467773E+01  0.62744744203E+02  0.41800000000E+01 0. -1.
</event>
<event>
11    1  0.8864208E-009  0.1401667E+03  0.7561462E-02  0.1107372E+00
         22   -1    0    0    0    0  0.00000000000E+00  0.00000000000E+00  0.29265501203E+03  0.29265501203E+03  0.00000000000E+00 0. -1.
         22   -1    0    0    0    0 -0.00000000000E+00 -0.00000000000E+00 -0.15128823632E+04  0.15128823632E+04  0.00000000000E+00 0. -1.
         24    2    1    2    0    0  0.53906480307E+02  0.13190212162E+02 -0.13371142037E+04  0.13409189656E+04  0.84317187893E+02 0.  0.
         25    2    1    2    0    0  0.61626141541E+00 -0.49350756589E+02 -0.13589153350E+03  0.19118174492E+03  0.12509226100E+03 0.  0.
        -24    2    1    2    0    0 -0.54522741722E+02  0.36160544427E+02  0.25277838598E+03  0.27343666478E+03  0.81181173260E+02 0.  0.
        -13    1    3    3    0    0  0.45829696940E+02 -0.30776442760E+02 -0.83264596390E+03  0.83447399705E+03  0.00000000000E+00 0.  1.
         14    1    3    3    0    0  0.80767833666E+01  0.43966654922E+02 -0.50446823978E+03  0.50644496850E+03  0.00000000000E+00 0. -1.
         13    1    5    5    0    0 -0.70836263251E+02  0.42955847709E+02  0.23090513898E+03  0.24531645736E+03  0.00000000000E+00 0. -1.
        -14    1    5    5    0    0  0.16313521529E+02 -0.67953032817E+01  0.21873247000E+02  0.28120207426E+02  0.00000000000E+00 0.  1.
          5    1    4    4  501    0 -0.59786644449E+02 -0.79189947241E+01 -0.52059137762E+02  0.79779568540E+02  0.41800000000E+01 0. -1.
         -5    1    4    4    0  501  0.60402905865E+02 -0.41431761865E+02 -0.83832395735E+02  0.11140217638E+03  0.41800000000E+01 0. -1.
</event>
<event>
11    1  0.8864208E-009  0.1573202E+03  0.7561462E-02  0.1089625E+00
         22   -1    0    0    0    0  0.00000000000E+00  0.00000000000E+00  0.36734347787E+03  0.36734347787E+03  0.00000000000E+00 0. -1.
         22   -1    0    0    0    0 -0.00000000000E+00 -0.00000000000E+00 -0.45116705277E+03  0.45116705277E+03  0.00000000000E+00 0.  1.
         24    2    1    2    0    0  0.19437938253E+02 -0.86317162745E+01 -0.31969885293E+03  0.33074446587E+03  0.82050016247E+02 0.  0.
         25    2    1    2    0    0 -0.10366545924E+03  0.48680923681E+02 -0.49783817527E+02  0.17675549252E+03  0.12509083052E+03 0.  0.
        -24    2    1    2    0    0  0.84227520989E+02 -0.40049207406E+02  0.28565909557E+03  0.31101057225E+03  0.80176323579E+02 0.  0.
        -13    1    3    3    0    0 -0.28904891412E+02 -0.99578897360E+00 -0.61671638427E+02  0.68116630345E+02  0.00000000000E+00 0.  1.
         14    1    3    3    0    0  0.48342829665E+02 -0.76359273009E+01 -0.25802721451E+03  0.26262783552E+03  0.00000000000E+00 0. -1.
         11    1    5    5    0    0  0.89108024924E+02 -0.71086302102E+01  0.21744475351E+03  0.23510209178E+03  0.00000000000E+00 0. -1.
        -12    1    5    5    0    0 -0.48805039349E+01 -0.32940577196E+02  0.68214342056E+02  0.75908480467E+02  0.00000000000E+00 0.  1.
          5    1    4    4  501    0  0.12904198865E+02  0.13102879955E+02  0.26786609594E+02  0.32759711003E+02  0.41800000000E+01 0. -1.
         -5    1    4    4    0  501 -0.11656965811E+03  0.35578043726E+02 -0.76570427121E+02  0.14399578152E+03  0.41800000000E+01 0. -1.
</event>
<event>
11    1  0.1040537E-008  0.1577666E+03  0.7561462E-02  0.1089197E+00
         22   -1    0    0    0    0  0.00000000000E+00  0.00000000000E+00  0.52064177420E+03  0.52064177420E+03  0.00000000000E+00 0.  1.
         22   -1    0    0    0    0 -0.00000000000E+00 -0.00000000000E+00 -0.60520015391E+03  0.60520015391E+03  0.00000000000E+00 0. -1.
         24    2    1    2    0    0 -0.70149012893E+02  0.18383350519E+02 -0.34656996313E+03  0.36289939023E+03  0.79538647832E+02 0.  0.
         25    2    1    2    0    0  0.72394627439E+02 -0.11383868672E+03 -0.20768647498E+03  0.27745567818E+03  0.12509097803E+03 0.  0.
        -24    2    1    2    0    0 -0.22456145452E+01  0.95455336204E+02  0.46969805841E+03  0.48548685969E+03  0.77229922087E+02 0.  0.
        -13    1    3    3    0    0 -0.36865374584E+02  0.19134500279E+02 -0.52464770989E+02  0.66915896012E+02  0.00000000000E+00 0.  1.
         14    1    3    3    0    0 -0.33283638310E+02 -0.75114976013E+00 -0.29410519215E+03  0.29598349422E+03  0.00000000000E+00 0. -1.
         13    1    5    5    0    0 -0.21597358752E+02  0.50275034277E+01  0.38014462258E+02  0.44009328972E+02  0.00000000000E+00 0. -1.
        -14    1    5    5    0    0  0.19351744207E+02  0.90427832777E+02  0.43168359615E+03  0.44147753072E+03  0.00000000000E+00 0.  1.
          5    1    4    4  501    0 -0.90099771832E+01 -0.87868762571E+02 -0.60269487257E+02  0.10701393656E+03  0.41800000000E+01 0.  1.
         -5    1    4    4    0  501  0.81404604622E+02 -0.25969924153E+02 -0.14741698773E+03  0.17044174161E+03  0.41800000000E+01 0.  1.
</event>
<event>
11    1  0.8864208E-009  0.1446426E+03  0.7561462E-02  0.1102482E+00
         22   -1    0    0    0    0  0.00000000000E+00  0.00000000000E+00  0.53763691831E+03  0.53763691831E+03  0.00000000000E+00 0.  1.
         22   -1    0    0    0    0 -0.00000000000E+00 -0.00000000000E+00 -0.30096422436E+03  0.30096422436E+03  0.00000000000E+00 0. -1.
        -24    2    1    2    0    0 -0.70350453227E+02  0.13041947640E+02 -0.25551951747E+03  0.27703588753E+03  0.79620226735E+02 0.  0.
         25    2    1    2    0    0  0.88511942678E+02 -0.41124975761E+02  0.19269215289E+03  0.24960602701E+03  0.12508906950E+03 0.  0.
         24    2    1    2    0    0 -0.18161489451E+02  0.28083028121E+02  0.29950005853E+03  0.31195922812E+03  0.80621205551E+02 0.  0.
        -11    1    5    5    0    0 -0.38496931182E+02 -0.10058387313E+01  0.23679787422E+03  0.23990885489E+03  0.00000000000E+00 0.  1.
         12    1    5    5    0    0  0.20335441731E+02  0.29088866853E+02  0.62702184313E+02  0.72050373231E+02  0.00000000000E+00 0. -1.
         13    1    3    3    0    0 -0.32628906223E+02 -0.29626003359E+02 -0.15872350034E+03  0.16472854992E+03  0.00000000000E+00 0. -1.
        -14    1    3    3    0    0 -0.37721547004E+02  0.42667950999E+02 -0.96796017126E+02  0.11230733762E+03  0.00000000000E+00 0.  1.
          5    1    4    4  501    0  0.77634457546E+02  0.29210636346E+02  0.13211179431E+03  0.15604925142E+03  0.41800000000E+01 0. -1.
         -5    1    4    4    0  501  0.10877485133E+02 -0.70335612107E+02  0.60580358581E+02  0.93556775592E+02  0.41800000000E+01 0. -1.
</event>
<event>
11    1  0.8864208E-009  0.1359907E+03  0.7561462E-02  0.1112120E+00
         22   -1    0    0    0    0  0.00000000000E+00  0.00000000000E+00  0.50231783747E+02  0.50231783747E+02  0.00000000000E+00 0.  1.
         22   -1    0    0    0    0 -0.00000000000E+00 -0.00000000000E+00 -0.13845719617E+04  0.13845719617E+04  0.00000000000E+00 0.  1.
        -24    2    1    2    0    0  0.20430853499E+02  0.11735215937E+01 -0.69411533147E+03  0.69903663159E+03  0.80232923397E+02 0.  0.
         25    2    1    2    0    0  0.16116616143E+02  0.39377606834E+02 -0.62170199279E+03  0.63558712753E+03  0.12508911864E+03 0.  0.
         24    2    1    2    0    0 -0.36547469643E+02 -0.40551128427E+02 -0.18522853662E+02  0.10017998630E+03  0.81931813069E+02 0.  0.
        -13    1    5    5    0    0 -0.21826720649E+02 -0.20479595889E+02  0.32026182775E+02  0.43834871566E+02  0.00000000000E+00 0.  1.
         14    1    5    5    0    0 -0.14720748994E+02 -0.20071532538E+02 -0.50549036437E+02  0.56345114732E+02  0.00000000000E+00 0. -1.
         11    1    3    3    0    0  0.12515946923E+02  0.33512545626E+02 -0.54842712884E+03  0.54959262667E+03  0.00000000000E+00 0. -1.
        -12    1    3    3    0    0  0.79149065761E+01 -0.32339024032E+02 -0.14568820262E+03  0.14944400492E+03  0.00000000000E+00 0.  1.
          5    1    4    4  501    0  0.37094331688E+02 -0.29911202443E+02 -0.12911338436E+03  0.13768953444E+03  0.41800000000E+01 0. -1.
         -5    1    4    4    0  501 -0.20977715544E+02  0.69288809277E+02 -0.49258860844E+03  0.49789759309E+03  0.41800000000E+01 0. -1.
</event>
<event>
11    1  0.8864208E-009  0.1390373E+03  0.7561462E-02  0.1108638E+00
         22   -1    0    0    0    0  0.00000000000E+00  0.00000000000E+00  0.12275865008E+03  0.12275865008E+03  0.00000000000E+00 0. -1.
         22   -1    0    0    0    0 -0.00000000000E+00 -0.00000000000E+00 -0.27661572631E+04  0.27661572631E+04  0.00000000000E+00 0.  1.
         24    2    1    2    0    0 -0.58808876896E+02 -0.16025088062E+02 -0.26141219071E+04  0.26160712323E+04  0.80498819525E+02 0.  0.
         25    2    1    2    0    0  0.61969348438E+02 -0.38676659719E+02 -0.79344646206E+02  0.16515734369E+03  0.12508113822E+03 0.  0.
        -24    2    1    2    0    0 -0.31604715419E+01  0.54701747782E+02  0.50067940279E+02  0.10768733718E+03  0.78022395215E+02 0.  0.
        -13    1    3    3    0    0 -0.38397437599E+02 -0.57950100139E+01 -0.24562464582E+04  0.24565534003E+04  0.00000000000E+00 0.  1.
         14    1    3    3    0    0 -0.20411439298E+02 -0.10230078049E+02 -0.15787544896E+03  0.15951783203E+03  0.00000000000E+00 0. -1.
         13    1    5    5    0    0 -0.21983998131E+02  0.29949374011E+02  0.63693203256E+02  0.73736594161E+02  0.00000000000E+00 0. -1.
        -14    1    5    5    0    0  0.18823526589E+02  0.24752373771E+02 -0.13625262977E+02  0.33950743022E+02  0.00000000000E+00 0.  1.
          5    1    4    4  501    0 -0.96224452672E+01 -0.32582325913E+02 -0.86309086684E+02  0.92848964771E+02  0.41800000000E+01 0. -1.
         -5    1    4    4    0  501  0.71591793705E+02 -0.60943338064E+01  0.69644404777E+01  0.72308378917E+02  0.41800000000E+01 0. -1.
</event>
<event>
11    1  0.8864208E-009  0.1477895E+03  0.7561462E-02  0.1099159E+00
         22   -1    0    0    0    0  0.00000000000E+00  0.00000000000E+00  0.24547999456E+04  0.24547999456E+04  0.00000000000E+00 0. -1.
         22   -1    0    0    0    0 -0.00000000000E+00 -0.00000000000E+00 -0.61727579828E+03  0.61727579828E+03  0.00000000000E+00 0.  1.
        -24    2    1    2    0    0 -0.10336290561E+02  0.37063783863E+02 -0.30816327152E+03  0.32097916331E+03  0.81132351038E+02 0.  0.
         25    2    1    2    0    0 -0.65461322453E+02 -0.15587618436E+02 -0.28467527622E+03  0.31814600582E+03  0.12509480222E+03 0.  0.
         24    2    1    2    0    0  0.75797613015E+02 -0.21476165427E+02  0.24303626951E+04  0.24329505748E+04  0.79869680275E+02 0.  0.
        -13    1    5    5    0    0  0.23103474583E+02 -0.88253112485E+01  0.15649228519E+03  0.15843450375E+03  0.00000000000E+00 0.  1.
         14    1    5    5    0    0  0.52694138431E+02 -0.12650854178E+02  0.22738704099E+04  0.22745160710E+04  0.00000000000E+00 0. -1.
         11    1    3    3    0    0 -0.26835078839E+02  0.22258210674E+02 -0.45204345035E+02  0.57087496081E+02  0.00000000000E+00 0. -1.
        -12    1    3    3    0    0  0.16498788278E+02  0.14805573189E+02 -0.26295892649E+03  0.26389166723E+03  0.00000000000E+00 0.  1.
          5    1    4    4  501    0 -0.69223872003E+02 -0.50651968124E+02 -0.26270802786E+03  0.27638839815E+03  0.41800000000E+01 0. -1.
         -5    1    4    4    0  501  0.37625495495E+01  0.35064349688E+02 -0.21967248366E+02  0.41757607677E+02  0.41800000000E+01 0. -1.
</event>
<event>
11    1  0.8864208E-009  0.1528568E+03  0.7561462E-02  0.1093995E+00
         22   -1    0    0    0    0  0.00000000000E+00  0.00000000000E+00  0.73709557795E+03  0.73709557795E+03  0.00000000000E+00 0.  1.
         22   -1    0    0    0    0 -0.00000000000E+00 -0.00000000000E+00 -0.41121817884E+03  0.41121817884E+03  0.00000000000E+00 0.  1.
        -24    2    1    2    0    0  0.88417251880E+02  0.11159270797E+02 -0.36774183858E+03  0.38751273850E+03  0.83605758800E+02 0.  0.
         25    2    1    2    0    0 -0.66241157364E+02  0.67514986202E+02  0.20018260237E+03  0.25429777167E+03  0.12509243820E+03 0.  0.
         24    2    1    2    0    0 -0.22176094516E+02 -0.78674256999E+02  0.49343663532E+03  0.50650324661E+03  0.79902489749E+02 0.  0.
        -11    1    5    5    0    0 -0.38316382067E+02 -0.42261207430E+02  0.41109814243E+03  0.41503715195E+03  0.00000000000E+00 0.  1.
         12    1    5    5    0    0  0.16140287551E+02 -0.36413049569E+02  0.82338492887E+02  0.91466094658E+02  0.00000000000E+00 0. -1.
         13    1    3    3    0    0  0.88396702365E+01 -0.22193437823E+02 -0.17128313657E+03  0.17294103425E+03  0.00000000000E+00 0. -1.
        -14    1    3    3    0    0  0.79577581643E+02  0.33352708620E+02 -0.19645870201E+03  0.21457170426E+03  0.00000000000E+00 0.  1.
          5    1    4    4  501    0 -0.10264267802E+03  0.40410473471E+02  0.12912825895E+03  0.16988262235E+03  0.41800000000E+01 0.  1.
         -5    1    4    4    0  501  0.36401520655E+02  0.27104512731E+02  0.71054343415E+02  0.84415149319E+02  0.41800000000E+01 0.  1.
</event>
<event>
11    1  0.8864208E-009  0.1266099E+03  0.7561462E-02  0.1123506E+00
         22   -1    0    0    0    0  0.00000000000E+00  0.00000000000E+00  0.26507458725E+03  0.26507458725E+03  0.00000000000E+00 0. -1.
         22   -1    0    0    0    0 -0.00000000000E+00 -0.00000000000E+00 -0.73325074669E+03  0.73325074669E+03  0.00000000000E+00 0.  1.
        -24    2    1    2    0    0  0.34990396789E+01 -0.14738874345E+01 -0.66432916399E+03  0.66909080398E+03  0.79591772374E+02 0.  0.
         25    2    1    2    0    0  0.11135511701E+02  0.14755893042E+02  0.11408547911E+02  0.12696247493E+03  0.12509028369E+03 0.  0.
         24    2    1    2    0    0 -0.14634551380E+02 -0.13282005607E+02  0.18474445664E+03  0.20227205502E+03  0.79955538995E+02 0.  0.
        -11    1    5    5    0    0 -0.36900232752E+02 -0.49976406948E+01  0.36522781234E+02  0.52158576847E+02  0.00000000000E+00 0.  1.
         12    1    5    5    0    0  0.22265681372E+02 -0.82843649127E+01  0.14822167541E+03  0.15011347818E+03  0.00000000000E+00 0. -1.
         13    1    3    3    0    0  0.40368032200E+02 -0.21178251134E+01 -0.26537349595E+03  0.26843463927E+03  0.00000000000E+00 0. -1.
        -14    1    3    3    0    0 -0.36868992521E+02  0.64393767891E+00 -0.39895566804E+03  0.40065616471E+03  0.00000000000E+00 0.  1.
          5    1    4    4  501    0 -0.26554521157E+02  0.60850027627E+02  0.98947628119E+01  0.67255090418E+02  0.41800000000E+01 0.  1.
         -5    1    4    4    0  501  0.37690032857E+02 -0.46094134585E+02  0.15137850988E+01  0.59707384512E+02  0.41800000000E+01 0.  1.
</event>
<event>
11    1  0.8864208E-009  0.1351021E+03  0.7561462E-02  0.1113154E+00
         22   -1    0    0    0    0  0.00000000000E+00  0.00000000000E+00  0.72741298872E+03  0.72741298872E+03  0.00000000000E+00 0. -1.
         22   -1    0    0    0    0 -0.00000000000E+00 -0.00000000000E+00 -0.28343178133E+03  0.28343178133E+03  0.00000000000E+00 0.  1.
        -24    2    1    2    0    0 -0.29521319843E+02 -0.42323220507E+02 -0.25167030033E+03  0.26942113028E+03  0.81160594229E+02 0.  0.
         25    2    1    2    0    0  0.58173975296E+02  0.17992070521E+00  0.24765558852E+03  0.28348773914E+03  0.12509102263E+03 0.  0.
         24    2    1    2    0    0 -0.28652655453E+02  0.42143299802E+02  0.44799591919E+03  0.45793590063E+03  0.80049441575E+02 0.  0.
        -13    1    5    5    0    0  0.63470568180E+01  0.45880826873E+02  0.13013463167E+03  0.13813166822E+03  0.00000000000E+00 0.  1.
         14    1    5    5    0    0 -0.34999712271E+02 -0.37375270711E+01  0.31786128752E+03  0.31980423242E+03  0.00000000000E+00 0. -1.
         13    1    3    3    0    0 -0.35309946033E+02 -0.43208393426E+02 -0.79376042643E+02  0.97027386324E+02  0.00000000000E+00 0. -1.
        -14    1    3    3    0    0  0.57886261902E+01  0.88517291861E+00 -0.17229425768E+03  0.17239374396E+03  0.00000000000E+00 0.  1.
          5    1    4    4  501    0 -0.20677683685E+02 -0.26653759482E+02  0.16573641540E+02  0.37817290900E+02  0.41800000000E+01 0. -1.
         -5    1    4    4    0  501  0.78851658981E+02  0.26833680187E+02  0.23108194698E+03  0.24567044824E+03  0.41800000000E+01 0. -1.
</event>
<event>
11    1  0.8864208E-009  0.1352318E+03  0.7561462E-02  0.1113003E+00
         22   -1    0    0    0    0  0.00000000000E+00  0.00000000000E+00  0.59991007427E+03  0.59991007427E+03  0.00000000000E+00 0. -1.
         22   -1    0    0    0    0 -0.00000000000E+00 -0.00000000000E+00 -0.78207794175E+03  0.78207794175E+03  0.00000000000E+00 0. -1.
         24    2    1    2    0    0 -0.41228941279E+01 -0.30039103767E+02 -0.72330156263E+03  0.72826919406E+03  0.79319118156E+02 0.  0.
         25    2    1    2    0    0 -0.25325868599E+02 -0.14756795254E+02  0.28202523026E+02  0.13154105730E+03  0.12509398396E+03 0.  0.
        -24    2    1    2    0    0  0.29448762727E+02  0.44795899022E+02  0.51293117213E+03  0.52217776465E+03  0.81837206480E+02 0.  0.
        -13    1    3    3    0    0  0.62288714750E+01 -0.16717035834E+02 -0.31034841562E+02  0.35796920506E+02  0.00000000000E+00 0.  1.
         14    1    3    3    0    0 -0.10351765603E+02 -0.13322067933E+02 -0.69226672107E+03  0.69247227356E+03  0.00000000000E+00 0. -1.
         13    1    5    5    0    0  0.35869507785E+02  0.58781048925E+02  0.48832150931E+03  0.49315284624E+03  0.00000000000E+00 0. -1.
        -14    1    5    5    0    0 -0.64207450578E+01 -0.13985149903E+02  0.24609662818E+02  0.29024918414E+02  0.00000000000E+00 0.  1.
          5    1    4    4  501    0 -0.56498651486E+02  0.13692535565E+02  0.56004800732E+02  0.80830645519E+02  0.41800000000E+01 0. -1.
         -5    1    4    4    0  501  0.31172782887E+02 -0.28449330819E+02 -0.27802277705E+02  0.50710411777E+02  0.41800000000E+01 0. -1.
</event>
<event>
11    1  0.8864208E-009  0.1340353E+03  0.7561462E-02  0.1114408E+00
         22   -1    0    0    0    0  0.00000000000E+00  0.00000000000E+00  0.10764599422E+03  0.10764599422E+03  0.00000000000E+00 0.  1.
         22   -1    0    0    0    0 -0.00000000000E+00 -0.00000000000E+00 -0.96193797695E+03  0.96193797695E+03  0.00000000000E+00 0.  1.
         24    2    1    2    0    0 -0.47816193166E+02  0.23663647137E+02 -0.60515090616E+03  0.61268155209E+03  0.79528036092E+02 0.  0.
         25    2    1    2    0    0  0.86806319256E+01 -0.43218046274E+02 -0.31598256614E+03  0.34268691950E+03  0.12508473046E+03 0.  0.
        -24    2    1    2    0    0  0.39135561240E+02  0.19554399136E+02  0.66841489571E+02  0.11421549958E+03  0.81629828722E+02 0.  0.
        -13    1    3    3    0    0  0.62038234163E+01  0.52176011537E+01 -0.39008340543E+03  0.39016762292E+03  0.00000000000E+00 0.  1.
         14    1    3    3    0    0 -0.54020016582E+02  0.18446045983E+02 -0.21506750073E+03  0.22251392917E+03  0.00000000000E+00 0. -1.
         13    1    5    5    0    0 -0.15380363083E+02  0.95499870923E+00 -0.98592368505E+01  0.18294046638E+02  0.00000000000E+00 0. -1.
        -14    1    5    5    0    0  0.54515924324E+02  0.18599400427E+02  0.76700726422E+02  0.95921452943E+02  0.00000000000E+00 0.  1.
          5    1    4    4  501    0 -0.71534318466E+00  0.41697400544E+02 -0.63287258495E+02  0.75907406857E+02  0.41800000000E+01 0.  1.
         -5    1    4    4    0  501  0.93959751103E+01 -0.84915446817E+02 -0.25269530765E+03  0.26677951264E+03  0.41800000000E+01 0.  1.
</event>
<event>
11    1  0.8864208E-009  0.1522915E+03  0.7561462E-02  0.1094560E+00
         22   -1    0    0    0    0  0.00000000000E+00  0.00000000000E+00  0.23153978821E+03  0.23153978821E+03  0.00000000000E+00 0.  1.
         22   -1    0    0    0    0 -0.00000000000E+00 -0.00000000000E+00 -0.11459469197E+04  0.11459469197E+04  0.00000000000E+00 0. -1.
         24    2    1    2    0    0  0.15941654467E+02  0.94446642915E+02 -0.90186894269E+03  0.91159862875E+03  0.92033501736E+02 0.  0.
         25    2    1    2    0    0 -0.87352509544E+01 -0.49717530823E+02 -0.20902583614E+03  0.24876857179E+03  0.12508343078E+03 0.  0.
        -24    2    1    2    0    0 -0.72064035127E+01 -0.44729112092E+02  0.19648764732E+03  0.21711950739E+03  0.80503783893E+02 0.  0.
        -13    1    3    3    0    0  0.13449641965E+02  0.15542282175E+02 -0.31222343632E+02  0.37380344381E+02  0.00000000000E+00 0.  1.
         14    1    3    3    0    0  0.24920125019E+01  0.78904360740E+02 -0.87064659906E+03  0.87421828436E+03  0.00000000000E+00 0. -1.
         11    1    5    5    0    0 -0.36153133642E+02 -0.40244975106E+02  0.77071578071E+02  0.94163343397E+02  0.00000000000E+00 0. -1.
        -12    1    5    5    0    0  0.28946730129E+02 -0.44841369859E+01  0.11941606925E+03  0.12295616400E+03  0.00000000000E+00 0.  1.
          5    1    4    4  501    0 -0.11886520665E+02 -0.32198899928E+02 -0.22305717757E+03  0.22572114521E+03  0.41800000000E+01 0.  1.
         -5    1    4    4    0  501  0.31512697103E+01 -0.17518630895E+02  0.14031341436E+02  0.23047426574E+02  0.41800000000E+01 0.  1.
</event>
<event>
11    1  0.8864208E-009  0.1640634E+03  0.7561462E-02  0.1083317E+00
         22   -1    0    0    0    0  0.00000000000E+00  0.00000000000E+00  0.11679712825E+03  0.11679712825E+03  0.00000000000E+00 0.  1.
         22   -1    0    0    0    0 -0.00000000000E+00 -0.00000000000E+00 -0.13162670015E+04  0.13162670015E+04  0.00000000000E+00 0.  1.
        -24    2    1    2    0    0 -0.35333332534E+02  0.52147624164E+02 -0.73171533494E+03  0.73877173791E+03  0.80053296334E+02 0.  0.
         25    2    1    2    0    0  0.91454643051E+02  0.40240553206E+02 -0.52402036955E+03  0.54793061073E+03  0.12508937854E+03 0.  0.
         24    2    1    2    0    0 -0.56121310517E+02 -0.92388177370E+02  0.56265831284E+02  0.14636178106E+03  0.81060165138E+02 0.  0.
        -13    1    5    5    0    0 -0.84101386247E+01 -0.73824499232E+02  0.59317538137E+02  0.95075535492E+02  0.00000000000E+00 0.  1.
         14    1    5    5    0    0 -0.47711171892E+02 -0.18563678138E+02 -0.30517068535E+01  0.51286245564E+02  0.00000000000E+00 0. -1.
         13    1    3    3    0    0 -0.11603285243E+02  0.21897786089E+02 -0.48399891258E+02  0.54375534368E+02  0.00000000000E+00 0. -1.
        -14    1    3    3    0    0 -0.23730047291E+02  0.30249838076E+02 -0.68331544369E+03  0.68439620354E+03  0.00000000000E+00 0.  1.
          5    1    4    4  501    0  0.16177176179E+01  0.20013805909E+02 -0.35345622401E+03  0.35405076490E+03  0.41800000000E+01 0. -1.
         -5    1    4    4    0  501  0.89836925433E+02  0.20226747296E+02 -0.17056414553E+03  0.19387984583E+03  0.41800000000E+01 0. -1.
</event>
<event>
11    1  0.8864208E-009  0.1367624E+03  0.7561462E-02  0.1111229E+00
         22   -1    0    0    0    0  0.00000000000E+00  0.00000000000E+00  0.99852671852E+03  0.99852671852E+03  0.00000000000E+00 0.  1.
         22   -1    0    0    0    0 -0.00000000000E+00 -0.00000000000E+00 -0.66293524140E+03  0.66293524140E+03  0.00000000000E+00 0. -1.
        -24    2    1    2    0    0  0.30601262655E+02 -0.18574452694E+02 -0.55905120431E+03  0.56572409077E+03  0.78892650284E+02 0.  0.
         25    2    1    2    0    0 -0.72730637508E+02 -0.16767122603E+02 -0.43919944150E+02  0.15214272283E+03  0.12509022577E+03 0.  0.
         24    2    1    2    0    0  0.42129374853E+02  0.35341575297E+02  0.93856262559E+03  0.94359514632E+03  0.80299980252E+02 0.  0.
        -13    1    5    5    0    0  0.60038025613E+02  0.37457035136E+02  0.86358248468E+03  0.86647694825E+03  0.00000000000E+00 0.  1.
         14    1    5    5    0    0 -0.17908650759E+02 -0.21154598394E+01  0.74980140906E+02  0.77118198064E+02  0.00000000000E+00 0. -1.
         13    1    3    3    0    0  0.54373909600E+02 -0.27818258063E+02 -0.40306199760E+03  0.40766328193E+03  0.00000000000E+00 0. -1.
        -14    1    3    3    0    0 -0.23772646945E+02  0.92438053689E+01 -0.15598920672E+03  0.15806080884E+03  0.00000000000E+00 0.  1.
          5    1    4    4  501    0 -0.50952571562E+01 -0.46833923995E+02 -0.59883944466E+02  0.76308173134E+02  0.41800000000E+01 0. -1.
         -5    1    4    4    0  501 -0.67635380352E+02  0.30066801393E+02  0.15964000316E+02  0.75834549695E+02  0.41800000000E+01 0. -1.
</event>
<event>
11    1  0.8864208E-009  0.1409247E+03  0.7561462E-02  0.1106530E+00
         22   -1    0    0    0    0  0.00000000000E+00  0.00000000000E+00  0.36841286919E+03  0.36841286919E+03  0.00000000000E+00 0.  1.
         22   -1    0    0    0    0 -0.00000000000E+00 -0.00000000000E+00 -0.10265318425E+04  0.10265318425E+04  0.00000000000E+00 0. -1.
        -24    2    1    2    0    0  0.53046662822E+02 -0.29973336408E+02 -0.97074908071E+03  0.97623506709E+03  0.83479214145E+02 0.  0.
         25    2    1    2    0    0  0.22383102345E+02  0.37461690880E+02  0.66361800199E+02  0.14817551566E+03  0.12509082046E+03 0.  0.
         24    2    1    2    0    0 -0.75429765167E+02 -0.74883544723E+01  0.24626830716E+03  0.27053412898E+03  0.82431249583E+02 0.  0.
        -11    1    5    5    0    0 -0.65796348148E+02  0.28946936396E+02  0.18652996418E+03  0.19990125586E+03  0.00000000000E+00 0.  1.
         12    1    5    5    0    0 -0.96334170194E+01 -0.36435290868E+02  0.59738342974E+02  0.70632873122E+02  0.00000000000E+00 0. -1.
         13    1    3    3    0    0 -0.14192831822E+01 -0.46429665549E+02 -0.43483928591E+03  0.43731331191E+03  0.00000000000E+00 0. -1.
        -14    1    3    3    0    0  0.54465946004E+02  0.16456329141E+02 -0.53590979480E+03  0.53892175518E+03  0.00000000000E+00 0.  1.
          5    1    4    4  501    0 -0.12307335172E+02  0.47482534998E+02 -0.21024140206E+02  0.53530818229E+02  0.41800000000E+01 0.  1.
         -5    1    4    4    0  501  0.34690437517E+02 -0.10020844118E+02  0.87385940405E+02  0.94644697434E+02  0.41800000000E+01 0.  1.
</event>
<event>
11    1  0.8864208E-009  0.2156741E+03  0.7561462E-02  0.1043962E+00
         22   -1    0    0    0    0  0.00000000000E+00  0.00000000000E+00  0.26985732019E+04  0.26985732019E+04  0.00000000000E+00 0.  1.
         22   -1    0    0    0    0 -0.00000000000E+00 -0.00000000000E+00 -0.14843940837E+03  0.14843940837E+03  0.00000000000E+00 0. -1.
        -24    2    1    2    0    0  0.10860693337E+03 -0.37423112208E+02 -0.93103422242E+02  0.16826435961E+03  0.80303749468E+02 0.  0.
         25    2    1    2    0    0 -0.11636960309E+03  0.19326463283E+03  0.14529858836E+04  0.14757062572E+04  0.12509147362E+03 0.  0.
         24    2    1    2    0    0  0.77626697168E+01 -0.15584152062E+03  0.11902513321E+04  0.12030419934E+04  0.79151536390E+02 0.  0.
        -13    1    5    5    0    0  0.32977416439E+02 -0.14170935541E+03  0.10263303852E+04  0.10365920658E+04  0.00000000000E+00 0.  1.
         14    1    5    5    0    0 -0.25214746722E+02 -0.14132165215E+02  0.16392094697E+03  0.16644992761E+03  0.00000000000E+00 0. -1.
         13    1    3    3    0    0  0.11852436427E+03 -0.26299598459E+02 -0.68223997757E+02  0.13926308798E+03  0.00000000000E+00 0. -1.
        -14    1    3    3    0    0 -0.99174308921E+01 -0.11123513749E+02 -0.24879424485E+02  0.29001271633E+02  0.00000000000E+00 0.  1.
          5    1    4    4  501    0 -0.11504171142E+03  0.20763515033E+03  0.12624913365E+04  0.12846200988E+04  0.41800000000E+01 0.  1.
         -5    1    4    4    0  501 -0.13278916679E+01 -0.14370517501E+02  0.19049454713E+03  0.19108615846E+03  0.41800000000E+01 0.  1.
</event>
<event>
11    1  0.8864208E-009  0.2199048E+03  0.7561462E-02  0.1041277E+00
         22   -1    0    0    0    0  0.00000000000E+00  0.00000000000E+00  0.68308432443E+03  0.68308432443E+03  0.00000000000E+00 0. -1.
         22   -1    0    0    0    0 -0.00000000000E+00 -0.00000000000E+00 -0.18113644784E+03  0.18113644784E+03  0.00000000000E+00 0.  1.
         24    2    1    2    0    0 -0.18829277218E+03  0.26905721603E+02 -0.68603652428E+02  0.21478832289E+03  0.72453271929E+02 0.  0.
         25    2    1    2    0    0  0.13558636541E+03  0.20512408261E+02  0.35956009828E+03  0.40464207988E+03  0.12508927673E+03 0.  0.
        -24    2    1    2    0    0  0.52706406770E+02 -0.47418129864E+02  0.21099143073E+03  0.24479036950E+03  0.10187490764E+03 0.  0.
        -13    1    3    3    0    0 -0.15168846833E+03  0.27868438504E+02 -0.83355312817E+02  0.17531157823E+03  0.00000000000E+00 0.  1.
         14    1    3    3    0    0 -0.36604303855E+02 -0.96271690045E+00  0.14751660389E+02  0.39476744658E+02  0.00000000000E+00 0. -1.
         13    1    5    5    0    0  0.76311655872E+02 -0.50297848742E+02  0.12058040041E+03  0.15130424771E+03  0.00000000000E+00 0. -1.
        -14    1    5    5    0    0 -0.23605249101E+02  0.28797188778E+01  0.90411030317E+02  0.93486121799E+02  0.00000000000E+00 0.  1.
          5    1    4    4  501    0  0.13264321973E+03  0.98219603341E+01  0.17572567645E+03  0.22042613368E+03  0.41800000000E+01 0. -1.
         -5    1    4    4    0  501  0.29431456816E+01  0.10690447927E+02  0.18383442183E+03  0.18421594620E+03  0.41800000000E+01 0. -1.
</event>
<event>
11    1  0.8864208E-009  0.1272087E+03  0.7561462E-02  0.1122747E+00
         22   -1    0    0    0    0  0.00000000000E+00  0.00000000000E+00  0.62256209277E+03  0.62256209277E+03  0.00000000000E+00 0. -1.
         22   -1    0    0    0    0 -0.00000000000E+00 -0.00000000000E+00 -0.36238586399E+03  0.36238586399E+03  0.00000000000E+00 0. -1.
         24    2    1    2    0    0  0.53950170287E+01 -0.14982440331E+02 -0.26930474025E+03  0.28172362952E+03  0.81176231620E+02 0.  0.
         25    2    1    2    0    0 -0.24612203611E+02  0.26790017910E+02 -0.31828368888E+02  0.13410483251E+03  0.12509034899E+03 0.  0.
        -24    2    1    2    0    0  0.19217186582E+02 -0.11807577579E+02  0.56130933793E+03  0.56911949472E+03  0.91214622076E+02 0.  0.
        -13    1    3    3    0    0 -0.11858031765E+02 -0.44539919956E+02 -0.12001906400E+03  0.12856513178E+03  0.00000000000E+00 0.  1.
         14    1    3    3    0    0  0.17253048793E+02  0.29557479626E+02 -0.14928567625E+03  0.15315849774E+03  0.00000000000E+00 0. -1.
         11    1    5    5    0    0  0.35346610644E+01  0.19669392865E+02  0.48139287132E+03  0.48180750866E+03  0.00000000000E+00 0. -1.
        -12    1    5    5    0    0  0.15682525518E+02 -0.31476970444E+02  0.79916466604E+02  0.87311986058E+02  0.00000000000E+00 0.  1.
          5    1    4    4  501    0 -0.47514502414E+02  0.37778360182E+02  0.29479205475E+02  0.67611599546E+02  0.41800000000E+01 0. -1.
         -5    1    4    4    0  501  0.22902298803E+02 -0.10988342272E+02 -0.61307574363E+02  0.66493232969E+02  0.41800000000E+01 0. -1.
</event>
<event>
11    1  0.8864208E-009  0.1595946E+03  0.7561462E-02  0.1087459E+00
         22   -1    0    0    0    0  0.00000000000E+00  0.00000000000E+00  0.26511113498E+03  0.26511113498E+03  0.00000000000E+00 0. -1.
         22   -1    0    0    0    0 -0.00000000000E+00 -0.00000000000E+00 -0.13573308350E+04  0.13573308350E+04  0.00000000000E+00 0.  1.
         24    2    1    2    0    0  0.81676456285E+01  0.99422002824E+02 -0.11572183411E+04  0.11637549890E+04  0.72249155494E+02 0.  0.
         25    2    1    2    0    0 -0.65966087985E+02 -0.85296741336E+02 -0.14897294777E+03  0.22241345258E+03  0.12509095040E+03 0.  0.
        -24    2    1    2    0    0  0.57798442356E+02 -0.14125261488E+02  0.21397158883E+03  0.23627352837E+03  0.80629749059E+02 0.  0.
        -11    1    3    3    0    0  0.24676568657E+02  0.90277323443E+02 -0.10877498537E+04  0.10917685984E+04  0.00000000000E+00 0.  1.
         12    1    3    3    0    0 -0.16508923028E+02  0.91446793811E+01 -0.69468487421E+02  0.71986390694E+02  0.00000000000E+00 0. -1.
         11    1    5    5    0    0  0.72702786476E+02 -0.10460878760E+02  0.20655737420E+03  0.21922836035E+03  0.00000000000E+00 0. -1.
        -12    1    5    5    0    0 -0.14904344119E+02 -0.36643827277E+01  0.74142146317E+01  0.17045168025E+02  0.00000000000E+00 0.  1.
          5    1    4    4  501    0 -0.90408042698E+02 -0.16475605626E+02 -0.81986047722E+02  0.12322436523E+03  0.41800000000E+01 0.  1.
         -5    1    4    4    0  501  0.24441954713E+02 -0.68821135710E+02 -0.66986900051E+02  0.99189087348E+02  0.41800000000E+01 0.  1.
</event>
<event>
11    1  0.8864208E-009  0.2138748E+03  0.7561462E-02  0.1045124E+00
         22   -1    0    0    0    0  0.00000000000E+00  0.00000000000E+00  0.67679314685E+03  0.67679314685E+03  0.00000000000E+00 0.  1.
         22   -1    0    0    0    0 -0.00000000000E+00 -0.00000000000E+00 -0.14653731018E+03  0.14653731018E+03  0.00000000000E+00 0.  1.
        -24    2    1    2    0    0  0.22508406423E+02 -0.85186775731E+02  0.22141694298E+02  0.11022448555E+03  0.62416083421E+02 0.  0.
         25    2    1    2    0    0 -0.89118378585E+02  0.22660106719E+03  0.14558148659E+03  0.31005354240E+03  0.12509636632E+03 0.  0.
         24    2    1    2    0    0  0.66609972162E+02 -0.14141429146E+03  0.36253265578E+03  0.40305242908E+03  0.81156908906E+02 0.  0.
        -13    1    5    5    0    0  0.35467938810E+02 -0.13323450057E+03  0.32819809331E+03  0.35598229630E+03  0.00000000000E+00 0.  1.
         14    1    5    5    0    0  0.31142033351E+02 -0.81797908838E+01  0.34334562465E+02  0.47070132779E+02  0.00000000000E+00 0. -1.
         13    1    3    3    0    0  0.98181104292E+01  0.28569442676E+01 -0.11256786419E+02  0.15207651476E+02  0.00000000000E+00 0. -1.
        -14    1    3    3    0    0  0.12690295994E+02 -0.88043719999E+02  0.33398480716E+02  0.95016834076E+02  0.00000000000E+00 0.  1.
          5    1    4    4  501    0  0.27616970250E+02  0.14868939115E+02  0.12382431968E+02  0.33979102661E+02  0.41800000000E+01 0. -1.
         -5    1    4    4    0  501 -0.11673534884E+03  0.21173212807E+03  0.13319905462E+03  0.27607443974E+03  0.41800000000E+01 0. -1.
</event>
<event>
11    1  0.8864208E-009  0.2184565E+03  0.7561462E-02  0.1042189E+00
         22   -1    0    0    0    0  0.00000000000E+00  0.00000000000E+00  0.31126439114E+03  0.31126439114E+03  0.00000000000E+00 0. -1.
         22   -1    0    0    0    0 -0.00000000000E+00 -0.00000000000E+00 -0.40753748700E+03  0.40753748700E+03  0.00000000000E+00 0. -1.
         24    2    1    2    0    0 -0.15741062541E+03  0.14822622701E+03 -0.20645256857E+03  0.30741543133E+03  0.71641224060E+02 0.  0.
         25    2    1    2    0    0  0.14440677115E+03 -0.92902254496E+01 -0.36225669317E+02  0.19467894177E+03  0.12509183590E+03 0.  0.
        -24    2    1    2    0    0  0.13003854261E+02 -0.13893600156E+03  0.14640514202E+03  0.21670750504E+03  0.77816221786E+02 0.  0.
        -11    1    3    3    0    0 -0.21826849140E+02 -0.47142345443E+01 -0.29999738241E+02  0.37398123553E+02  0.00000000000E+00 0.  1.
         12    1    3    3    0    0 -0.13558377627E+03  0.15294046156E+03 -0.17645283033E+03  0.27001730778E+03  0.00000000000E+00 0. -1.
         13    1    5    5    0    0  0.21363370798E+02 -0.71116031518E+02  0.26772426452E+02  0.78934443489E+02  0.00000000000E+00 0. -1.
        -14    1    5    5    0    0 -0.83595165367E+01 -0.67819970043E+02  0.11963271557E+03  0.13777306155E+03  0.00000000000E+00 0.  1.
          5    1    4    4  501    0  0.21858150973E+01 -0.41830684829E+02  0.65074828106E+01  0.42595818028E+02  0.41800000000E+01 0.  1.
         -5    1    4    4    0  501  0.14222095605E+03  0.32540459380E+02 -0.42733152128E+02  0.15208312374E+03  0.41800000000E+01 0.  1.
</event>
<event>
11    1  0.8864208E-009  0.1375526E+03  0.7561462E-02  0.1110322E+00
         22   -1    0    0    0    0  0.00000000000E+00  0.00000000000E+00  0.23030199607E+03  0.23030199607E+03  0.00000000000E+00 0.  1.
         22   -1    0    0    0    0 -0.00000000000E+00 -0.00000000000E+00 -0.23725460865E+04  0.23725460865E+04  0.00000000000E+00 0.  1.
         24    2    1    2    0    0  0.52568658735E+02  0.37347548045E+02 -0.18864612464E+04  0.18893569578E+04  0.82312676180E+02 0.  0.
         25    2    1    2    0    0 -0.13401418323E+02 -0.73503192636E+01 -0.46523015427E+03  0.48199468700E+03  0.12508459793E+03 0.  0.
        -24    2    1    2    0    0 -0.39167240413E+02 -0.29997228782E+02  0.20944731028E+03  0.23149643772E+03  0.85372820269E+02 0.  0.
        -13    1    3    3    0    0  0.73763312214E+02  0.34887765876E+02 -0.13425769445E+04  0.13450542868E+04  0.00000000000E+00 0.  1.
         14    1    3    3    0    0 -0.21194653478E+02  0.24597821692E+01 -0.54388430188E+03  0.54430267103E+03  0.00000000000E+00 0. -1.
         13    1    5    5    0    0  0.19549106590E+02 -0.25024040230E+01  0.10667542362E+02  0.22410400586E+02  0.00000000000E+00 0. -1.
        -14    1    5    5    0    0 -0.58716347003E+02 -0.27494824759E+02  0.19877976791E+03  0.20908603714E+03  0.00000000000E+00 0.  1.
          5    1    4    4  501    0 -0.61322542568E+02  0.17552088566E+02 -0.33336035102E+03  0.33943353704E+03  0.41800000000E+01 0. -1.
         -5    1    4    4    0  501  0.47921124245E+02 -0.24902407830E+02 -0.13186980326E+03  0.14256114995E+03  0.41800000000E+01 0. -1.
</event>
<event>
11    1  0.8864208E-009  0.2271717E+03  0.7561462E-02  0.1036816E+00
         22   -1    0    0    0    0  0.00000000000E+00  0.00000000000E+00  0.45727658487E+03  0.45727658487E+03  0.00000000000E+00 0. -1.
         22   -1    0    0    0    0 -0.00000000000E+00 -0.00000000000E+00 -0.21209600549E+03  0.21209600549E+03  0.00000000000E+00 0. -1.
        -24    2    1    2    0    0 -0.15187386151E+02  0.30203532919E+02 -0.88066058942E+02  0.12132653730E+03  0.76299330383E+02 0.  0.
         25    2    1    2    0    0  0.17168276200E+03  0.79796340873E+02  0.16653204758E+03  0.28146720209E+03  0.12509370966E+03 0.  0.
         24    2    1    2    0    0 -0.15649537585E+03 -0.10999987379E+03  0.16671459073E+03  0.26657885097E+03  0.81729762781E+02 0.  0.
        -13    1    5    5    0    0 -0.17586459536E+02 -0.53847190879E+02  0.60767231706E+02  0.83075026174E+02  0.00000000000E+00 0.  1.
         14    1    5    5    0    0 -0.13890891631E+03 -0.56152682913E+02  0.10594735903E+03  0.18350382479E+03  0.00000000000E+00 0. -1.
         11    1    3    3    0    0 -0.25936871794E+02  0.50734438855E+02 -0.76604841974E+02  0.95472542745E+02  0.00000000000E+00 0. -1.
        -12    1    3    3    0    0  0.10749485642E+02 -0.20530905935E+02 -0.11461216968E+02  0.25853994556E+02  0.00000000000E+00 0.  1.
          5    1    4    4  501    0  0.79044072041E+02  0.53397194995E+01  0.31644432233E+01  0.79397506448E+02  0.41800000000E+01 0.  1.
         -5    1    4    4    0  501  0.92638689958E+02  0.74456621373E+02  0.16336760436E+03  0.20206969564E+03  0.41800000000E+01 0.  1.
</event>
<event>
11    1  0.8864208E-009  0.1505456E+03  0.7561462E-02  0.1096323E+00
         22   -1    0    0    0    0  0.00000000000E+00  0.00000000000E+00  0.32186568054E+03  0.32186568054E+03  0.00000000000E+00 0.  1.
         22   -1    0    0    0    0 -0.00000000000E+00 -0.00000000000E+00 -0.11643257720E+04  0.11643257720E+04  0.00000000000E+00 0. -1.
        -24    2    1    2    0    0 -0.61239787542E+02  0.53027028431E+02 -0.80583700750E+03  0.81399079819E+03  0.81520301480E+02 0.  0.
         25    2    1    2    0    0  0.82748791879E+02 -0.50397953480E+02 -0.33071057426E+03  0.36661502900E+03  0.12509907787E+03 0.  0.
         24    2    1    2    0    0 -0.21509004338E+02 -0.26290749510E+01  0.29408749036E+03  0.30558562531E+03  0.80159672574E+02 0.  0.
        -11    1    5    5    0    0 -0.47424489114E+02  0.10387722245E+02  0.12628603337E+03  0.13529652311E+03  0.00000000000E+00 0.  1.
         12    1    5    5    0    0  0.25915484776E+02 -0.13016797196E+02  0.16780145699E+03  0.17028910220E+03  0.00000000000E+00 0. -1.
         11    1    3    3    0    0 -0.47066978656E+02  0.16052745629E+02 -0.68560274832E+03  0.68740389846E+03  0.00000000000E+00 0. -1.
        -12    1    3    3    0    0 -0.14172808886E+02  0.36974282801E+02 -0.12023425918E+03  0.12658689973E+03  0.00000000000E+00 0.  1.
          5    1    4    4  501    0 -0.89641021773E+01  0.24235899138E+02 -0.16691108262E+02  0.31045119260E+02  0.41800000000E+01 0.  1.
         -5    1    4    4    0  501  0.91712894057E+02 -0.74633852618E+02 -0.31401946600E+03  0.33556990974E+03  0.41800000000E+01 0.  1.
</event>
<event>
11    1  0.8864208E-009  0.1704775E+03  0.7561462E-02  0.1077617E+00
         22   -1    0    0    0    0  0.00000000000E+00  0.00000000000E+00  0.10999437701E+04  0.10999437701E+04  0.00000000000E+00 0.  1.
         22   -1    0    0    0    0 -0.00000000000E+00 -0.00000000000E+00 -0.20498669558E+03  0.20498669558E+03  0.00000000000E+00 0.  1.
        -24    2    1    2    0    0  0.10696926255E+03 -0.33324290821E+02 -0.12998298121E+03  0.18746603409E+03  0.75465270432E+02 0.  0.
         25    2    1    2    0    0 -0.17064881681E+03 -0.43867237667E+02  0.24353052966E+03  0.32557643613E+03  0.12509014217E+03 0.  0.
         24    2    1    2    0    0  0.63679554252E+02  0.77191528488E+02  0.78140952607E+03  0.79188799546E+03  0.80449563212E+02 0.  0.
        -13    1    5    5    0    0  0.48485512903E+02  0.35189182172E+02  0.65658785113E+03  0.65931534925E+03  0.00000000000E+00 0.  1.
         14    1    5    5    0    0  0.15194041349E+02  0.42002346316E+02  0.12482167493E+03  0.13257264620E+03  0.00000000000E+00 0. -1.
         11    1    3    3    0    0  0.62726041837E+02 -0.11971784761E+02 -0.19848743869E+02  0.66871911802E+02  0.00000000000E+00 0. -1.
        -12    1    3    3    0    0  0.44243220718E+02 -0.21352506059E+02 -0.11013423734E+03  0.12059412229E+03  0.00000000000E+00 0.  1.
          5    1    4    4  501    0 -0.18135478050E+02  0.33804448736E+02  0.18421032337E+02  0.42760298769E+02  0.41800000000E+01 0.  1.
         -5    1    4    4    0  501 -0.15251333876E+03 -0.77671686403E+02  0.22510949732E+03  0.28281613736E+03  0.41800000000E+01 0.  1.
</event>
<event>
11    1  0.8864208E-009  0.4002332E+03  0.7561462E-02  0.9649070E-01
         22   -1    0    0    0    0  0.00000000000E+00  0.00000000000E+00  0.13292268224E+04  0.13292268224E+04  0.00000000000E+00 0.  1.
         22   -1    0    0    0    0 -0.00000000000E+00 -0.00000000000E+00 -0.26342263638E+03  0.26342263638E+03  0.00000000000E+00 0. -1.
        -24    2    1    2    0    0  0.36828896860E+01  0.86876956280E+02 -0.50242871826E+02  0.12857838598E+03  0.80292502526E+02 0.  0.
         25    2    1    2    0    0  0.21682635219E+03  0.24260547000E+03  0.88568296050E+02  0.35966961788E+03  0.12508720909E+03 0.  0.
         24    2    1    2    0    0 -0.22050924188E+03 -0.32948242628E+03  0.10274787618E+04  0.11044014549E+04  0.82504379952E+02 0.  0.
        -13    1    5    5    0    0 -0.23735647915E+02 -0.97284183317E+02  0.27760713678E+03  0.29511576661E+03  0.00000000000E+00 0.  1.
         14    1    5    5    0    0 -0.19677359397E+03 -0.23219824297E+03  0.74987162502E+03  0.80928568833E+03  0.00000000000E+00 0. -1.
         11    1    3    3    0    0  0.40353734049E+02  0.62028707361E+02 -0.29455475127E+02  0.79646778991E+02  0.00000000000E+00 0. -1.
        -12    1    3    3    0    0 -0.36670844363E+02  0.24848248919E+02 -0.20787396699E+02  0.48931606985E+02  0.00000000000E+00 0.  1.
          5    1    4    4  501    0  0.70446108318E+02  0.11930398222E+03 -0.19275209261E+02  0.13994677718E+03  0.41800000000E+01 0. -1.
         -5    1    4    4    0  501  0.14638024388E+03  0.12330148778E+03  0.10784350531E+03  0.21972284070E+03  0.41800000000E+01 0. -1.
</event>
<event>
11    1  0.8864208E-009  0.2005514E+03  0.7561462E-02  0.1054134E+00
         22   -1    0    0    0    0  0.00000000000E+00  0.00000000000E+00  0.63922305019E+03  0.63922305019E+03  0.00000000000E+00 0.  1.
         22   -1    0    0    0    0 -0.00000000000E+00 -0.00000000000E+00 -0.51871940331E+03  0.51871940331E+03  0.00000000000E+00 0.  1.
         24    2    1    2    0    0 -0.68125761585E+02 -0.13865053466E+03 -0.39226726049E+03  0.42897135960E+03  0.79232149768E+02 0.  0.
         25    2    1    2    0    0  0.71460529920E+02  0.15421274211E+03  0.14036546552E+01  0.21103963757E+03  0.12509029225E+03 0.  0.
        -24    2    1    2    0    0 -0.33347683353E+01 -0.15562207448E+02  0.51136725271E+03  0.51793145633E+03  0.80642565261E+02 0.  0.
        -11    1    3    3    0    0 -0.73309674275E+01 -0.10133651702E+03 -0.21147917300E+03  0.23461942242E+03  0.00000000000E+00 0.  1.
         12    1    3    3    0    0 -0.60794794157E+02 -0.37314017646E+02 -0.18078808749E+03  0.19435193718E+03  0.00000000000E+00 0. -1.
         13    1    5    5    0    0 -0.35422849196E+02  0.12183515517E+02  0.17972849087E+03  0.18359070436E+03  0.00000000000E+00 0. -1.
        -14    1    5    5    0    0  0.32088080860E+02 -0.27745722965E+02  0.33163876184E+03  0.33434075197E+03  0.00000000000E+00 0.  1.
          5    1    4    4  501    0  0.77894889256E+01  0.90577756352E+02  0.54857250264E+02  0.10626286459E+03  0.41800000000E+01 0. -1.
         -5    1    4    4    0  501  0.63671040994E+02  0.63634985759E+02 -0.53453595609E+02  0.10477677299E+03  0.41800000000E+01 0. -1.
</event>
<event>
11    1  0.8864208E-009  0.1454107E+03  0.7561462E-02  0.1101663E+00
         22   -1    0    0    0    0  0.00000000000E+00  0.00000000000E+00  0.69041310399E+03  0.69041310399E+03  0.00000000000E+00 0.  1.
         22   -1    0    0    0    0 -0.00000000000E+00 -0.00000000000E+00 -0.18481887998E+03  0.18481887998E+03  0.00000000000E+00 0.  1.
         24    2    1    2    0    0 -0.67501254304E+02 -0.33518025247E+02 -0.12258392338E+03  0.16484839635E+03  0.80425730695E+02 0.  0.
         25    2    1    2    0    0  0.61934926623E+02  0.24297565669E+02  0.97191005885E+02  0.17181560295E+03  0.12509277740E+03 0.  0.
        -24    2    1    2    0    0  0.55663276815E+01  0.92204595778E+01  0.53098714150E+03  0.53856798467E+03  0.89398706897E+02 0.  0.
        -13    1    3    3    0    0 -0.85447272183E+02 -0.24675402297E+02 -0.89432749263E+02  0.12612822223E+03  0.00000000000E+00 0.  1.
         14    1    3    3    0    0  0.17946017879E+02 -0.88426229500E+01 -0.33151174121E+02  0.38720174120E+02  0.00000000000E+00 0. -1.
         11    1    5    5    0    0  0.43160499313E+02  0.22932501991E+02  0.33403675552E+03  0.33759336840E+03  0.00000000000E+00 0. -1.
        -12    1    5    5    0    0 -0.37594171632E+02 -0.13712042413E+02  0.19695038598E+03  0.20097461627E+03  0.00000000000E+00 0.  1.
          5    1    4    4  501    0  0.43551870477E+02  0.71966402706E+02  0.34958809656E+02  0.91189469310E+02  0.41800000000E+01 0. -1.
         -5    1    4    4    0  501  0.18383056146E+02 -0.47668837036E+02  0.62232196230E+02  0.80626133637E+02  0.41800000000E+01 0. -1.
</event>
<event>
11    1  0.8864208E-009  0.1308365E+03  0.7561462E-02  0.1118245E+00
         22   -1    0    0    0    0  0.00000000000E+00  0.00000000000E+00  0.64759715789E+03  0.64759715789E+03  0.00000000000E+00 0. -1.
         22   -1    0    0    0    0 -0.00000000000E+00 -0.00000000000E+00 -0.40748943633E+03  0.40748943633E+03  0.00000000000E+00 0.  1.
        -24    2    1    2    0    0  0.19207123913E+02 -0.39878056927E+02 -0.19716401589E+03  0.22408438408E+03  0.96855505753E+02 0.  0.
         25    2    1    2    0    0 -0.44545171656E+02  0.12602016682E+01 -0.17056316799E+03  0.21615903877E+03  0.12508827019E+03 0.  0.
         24    2    1    2    0    0  0.25338047743E+02  0.38617855259E+02  0.60783490544E+03  0.61484317138E+03  0.80221553862E+02 0.  0.
        -13    1    5    5    0    0  0.39278636699E+02  0.54718076894E+02  0.37201334136E+03  0.37806190682E+03  0.00000000000E+00 0.  1.
         14    1    5    5    0    0 -0.13940588956E+02 -0.16100221634E+02  0.23582156409E+03  0.23678126456E+03  0.00000000000E+00 0. -1.
         13    1    3    3    0    0  0.45945736570E+02 -0.13166568855E+01 -0.43019702026E+02  0.62955850060E+02  0.00000000000E+00 0. -1.
        -14    1    3    3    0    0 -0.26738612657E+02 -0.38561400042E+02 -0.15414431386E+03  0.16112853402E+03  0.00000000000E+00 0.  1.
          5    1    4    4  501    0  0.32292755736E+02 -0.54791313714E+01 -0.11847842571E+03  0.12299371006E+03  0.41800000000E+01 0. -1.
         -5    1    4    4    0  501 -0.76837927393E+02  0.67393330396E+01 -0.52084742280E+02  0.93165328713E+02  0.41800000000E+01 0. -1.
</event>
<event>
11    1  0.8864208E-009  0.1819015E+03  0.7561462E-02  0.1068115E+00
         22   -1    0    0    0    0  0.00000000000E+00  0.00000000000E+00  0.42315653783E+03  0.42315653783E+03  0.00000000000E+00 0. -1.
         22   -1    0    0    0    0 -0.00000000000E+00 -0.00000000000E+00 -0.19214158556E+04  0.19214158556E+04  0.00000000000E+00 0.  1.
        -24    2    1    2    0    0 -0.42049318531E+02  0.12711947924E+03 -0.16405491178E+04  0.16479313996E+04  0.79680505235E+02 0.  0.
         25    2    1    2    0    0  0.92680605602E+02 -0.91178923838E+02 -0.24096954822E+03  0.30102857332E+03  0.12509431632E+03 0.  0.
         24    2    1    2    0    0 -0.50631287071E+02 -0.35940555399E+02  0.38325934817E+03  0.39561242053E+03  0.75935555373E+02 0.  0.
        -13    1    5    5    0    0 -0.17781817437E+01  0.16224174909E+02  0.22236283009E+02  0.27583293202E+02  0.00000000000E+00 0.  1.
         14    1    5    5    0    0 -0.48853105328E+02 -0.52164730308E+02  0.36102306516E+03  0.36802912733E+03  0.00000000000E+00 0. -1.
         13    1    3    3    0    0  0.16999267344E+02  0.29843881157E+01 -0.13006114175E+03  0.13120130432E+03  0.00000000000E+00 0. -1.
        -14    1    3    3    0    0 -0.59048585875E+02  0.12413509112E+03 -0.15104879760E+04  0.15167300953E+04  0.00000000000E+00 0.  1.
          5    1    4    4  501    0  0.22269727209E+02  0.21073502507E+02 -0.11153375139E+03  0.11574663432E+03  0.41800000000E+01 0. -1.
         -5    1    4    4    0  501  0.70410878393E+02 -0.11225242634E+03 -0.12943579683E+03  0.18528193900E+03  0.41800000000E+01 0. -1.
</event>
<event>
11    1  0.8864208E-009  0.1534544E+03  0.7561462E-02  0.1093400E+00
         22   -1    0    0    0    0  0.00000000000E+00  0.00000000000E+00  0.29547819615E+03  0.29547819615E+03  0.00000000000E+00 0. -1.
         22   -1    0    0    0    0 -0.00000000000E+00 -0.00000000000E+00 -0.68927480409E+03  0.68927480409E+03  0.00000000000E+00 0. -1.
         24    2    1    2    0    0  0.62642895454E+01 -0.52018273199E+02 -0.61541147779E+03  0.62290007429E+03  0.80796494253E+02 0.  0.
         25    2    1    2    0    0  0.18420472789E+02 -0.50734807850E+02  0.50289462669E+02  0.14522371988E+03  0.12509022430E+03 0.  0.
        -24    2    1    2    0    0 -0.24684762334E+02  0.10275308105E+03  0.17132540719E+03  0.21662920606E+03  0.80051762085E+02 0.  0.
        -13    1    3    3    0    0 -0.30499487587E+02 -0.51038255940E+02 -0.36911188404E+03  0.37386990418E+03  0.00000000000E+00 0.  1.
         14    1    3    3    0    0  0.36763777132E+02 -0.98001725975E+00 -0.24629959375E+03  0.24903017011E+03  0.00000000000E+00 0. -1.
         11    1    5    5    0    0 -0.47213075373E+02  0.67759165843E+02  0.14648470652E+03  0.16816107839E+03  0.00000000000E+00 0. -1.
        -12    1    5    5    0    0  0.22528313039E+02  0.34993915206E+02  0.24840700670E+02  0.48468127667E+02  0.00000000000E+00 0.  1.
          5    1    4    4  501    0  0.96832460044E+01  0.39548787970E+02 -0.98961371476E+00  0.40942931238E+02  0.41800000000E+01 0.  1.
         -5    1    4    4    0  501  0.87372267844E+01 -0.90283595820E+02  0.51279076384E+02  0.10428078865E+03  0.41800000000E+01 0.  1.
</event>
<event>
11    1  0.8864208E-009  0.2160307E+03  0.7561462E-02  0.1043733E+00
         22   -1    0    0    0    0  0.00000000000E+00  0.00000000000E+00  0.11653872249E+03  0.11653872249E+03  0.00000000000E+00 0.  1.
         22   -1    0    0    0    0 -0.00000000000E+00 -0.00000000000E+00 -0.67328619555E+03  0.67328619555E+03  0.00000000000E+00 0.  1.
        -24    2    1    2    0    0 -0.33654601103E+02 -0.81863849980E+02 -0.22223550276E+03  0.25230084752E+03  0.80204593792E+02 0.  0.
         25    2    1    2    0    0  0.10802189073E+02 -0.12922771992E+03 -0.21609615321E+03  0.28135827505E+03  0.12509372734E+03 0.  0.
         24    2    1    2    0    0  0.22852412029E+02  0.21109156990E+03 -0.11841581709E+03  0.25616579547E+03  0.80726237430E+02 0.  0.
        -11    1    5    5    0    0 -0.36594667211E+01  0.14096894864E+03 -0.37621194801E+02  0.14594858847E+03  0.00000000000E+00 0.  1.
         12    1    5    5    0    0  0.26511878750E+02  0.70122621263E+02 -0.80794622288E+02  0.11021720700E+03  0.00000000000E+00 0. -1.
         11    1    3    3    0    0 -0.35581571476E+01  0.12663504965E+02 -0.61270955767E+01  0.14510897301E+02  0.00000000000E+00 0. -1.
        -12    1    3    3    0    0 -0.30096443955E+02 -0.94527354945E+02 -0.21610840718E+03  0.23778995022E+03  0.00000000000E+00 0.  1.
          5    1    4    4  501    0  0.58574865164E+02 -0.86859342269E+02 -0.83162048681E+02  0.13382435843E+03  0.41800000000E+01 0.  1.
         -5    1    4    4    0  501 -0.47772676091E+02 -0.42368377656E+02 -0.13293410453E+03  0.14753391662E+03  0.41800000000E+01 0.  1.
</event>
<event>
11    1  0.8864208E-009  0.1423547E+03  0.7561462E-02  0.1104957E+00
         22   -1    0    0    0    0  0.00000000000E+00  0.00000000000E+00  0.26730951756E+03  0.26730951756E+03  0.00000000000E+00 0.  1.
         22   -1    0    0    0    0 -0.00000000000E+00 -0.00000000000E+00 -0.38720447111E+03  0.38720447111E+03  0.00000000000E+00 0.  1.
        -24    2    1    2    0    0 -0.53714127784E+01 -0.18981060189E+02 -0.23846353390E+03  0.25354679199E+03  0.83856937741E+02 0.  0.
         25    2    1    2    0    0 -0.21248889913E+02 -0.45601417404E+02 -0.91841633951E+02  0.16313606099E+03  0.12508990397E+03 0.  0.
         24    2    1    2    0    0  0.26620302692E+02  0.64582477593E+02  0.21041021430E+03  0.23783113568E+03  0.86090962871E+02 0.  0.
        -13    1    5    5    0    0  0.47178028580E+02  0.12042725817E+02  0.13598037928E+03  0.14443495828E+03  0.00000000000E+00 0.  1.
         14    1    5    5    0    0 -0.20557725888E+02  0.52539751776E+02  0.74429835025E+02  0.93396177396E+02  0.00000000000E+00 0. -1.
         13    1    3    3    0    0  0.20852938966E+02  0.17659948846E+02 -0.31346437125E+02  0.41585069162E+02  0.00000000000E+00 0. -1.
        -14    1    3    3    0    0 -0.26224351745E+02 -0.36641009036E+02 -0.20711709678E+03  0.21196172283E+03  0.00000000000E+00 0.  1.
          5    1    4    4  501    0 -0.54156307596E+01 -0.46643381950E+02  0.19189949172E+02  0.50898533235E+02  0.41800000000E+01 0.  1.
         -5    1    4    4    0  501 -0.15833259154E+02  0.10419645459E+01 -0.11103158312E+03  0.11223752775E+03  0.41800000000E+01 0.  1.
</event>
<event>
11    1  0.8864208E-009  0.4165995E+03  0.7561462E-02  0.9602011E-01
         22   -1    0    0    0    0  0.00000000000E+00  0.00000000000E+00  0.45458780823E+03  0.45458780823E+03  0.00000000000E+00 0. -1.
         22   -1    0    0    0    0 -0.00000000000E+00 -0.00000000000E+00 -0.62700631349E+03  0.62700631349E+03  0.00000000000E+00 0. -1.
         24    2    1    2    0    0  0.20455785252E+03  0.36628032263E+03 -0.30692337301E+03  0.52604155577E+03  0.80700506377E+02 0.  0.
         25    2    1    2    0    0 -0.21998061061E+03 -0.28612716602E+03  0.42133909571E+01  0.38200172380E+03  0.12508932863E+03 0.  0.
        -24    2    1    2    0    0  0.15422758095E+02 -0.80153156602E+02  0.13029147678E+03  0.17355084216E+03  0.80508607678E+02 0.  0.
        -13    1    3    3    0    0  0.84281128326E+02  0.16671600807E+03 -0.88682229840E+02  0.20678992680E+03  0.00000000000E+00 0.  1.
         14    1    3    3    0    0  0.12027672419E+03  0.19956431456E+03 -0.21824114317E+03  0.31925162897E+03  0.00000000000E+00 0. -1.
         13    1    5    5    0    0 -0.24102715472E+02 -0.66102482264E+02  0.97855773915E+02  0.12052481712E+03  0.00000000000E+00 0. -1.
        -14    1    5    5    0    0  0.39525473567E+02 -0.14050674338E+02  0.32435702869E+02  0.53026025031E+02  0.00000000000E+00 0.  1.
          5    1    4    4  501    0 -0.14821433140E+03 -0.17270513148E+03 -0.56652528566E+02  0.23456668959E+03  0.41800000000E+01 0.  1.
         -5    1    4    4    0  501 -0.71766279216E+02 -0.11342203454E+03  0.60865919523E+02  0.14743503421E+03  0.41800000000E+01 0.  1.
</event>
<event>
11    1  0.8864208E-009  0.2162425E+03  0.7561462E-02  0.1043597E+00
         22   -1    0    0    0    0  0.00000000000E+00  0.00000000000E+00  0.46185378045E+03  0.46185378045E+03  0.00000000000E+00 0.  1.
         22   -1    0    0    0    0 -0.00000000000E+00 -0.00000000000E+00 -0.98113341393E+03  0.98113341393E+03  0.00000000000E+00 0. -1.
         24    2    1    2    0    0 -0.12157013986E+03 -0.12366852555E+03 -0.87760274543E+03  0.89809550996E+03  0.79471775578E+02 0.  0.
         25    2    1    2    0    0  0.17099551229E+03  0.17679230529E+03  0.16032295018E+03  0.31913327401E+03  0.12509042245E+03 0.  0.
        -24    2    1    2    0    0 -0.49425372435E+02 -0.53123779743E+02  0.19800016177E+03  0.22575841042E+03  0.80608885367E+02 0.  0.
        -11    1    3    3    0    0 -0.56781350202E+02 -0.95530441610E+02 -0.39442367035E+03  0.40978069591E+03  0.00000000000E+00 0.  1.
         12    1    3    3    0    0 -0.64788789655E+02 -0.28138083940E+02 -0.48317907507E+03  0.48831481405E+03  0.00000000000E+00 0. -1.
         11    1    5    5    0    0  0.35964961646E+01  0.16030293741E+02  0.62761774756E+02  0.64876386094E+02  0.00000000000E+00 0. -1.
        -12    1    5    5    0    0 -0.53021868599E+02 -0.69154073484E+02  0.13523838701E+03  0.16088202432E+03  0.00000000000E+00 0.  1.
          5    1    4    4  501    0  0.63619152212E+02  0.87457091336E+02  0.14147466413E+03  0.17812549605E+03  0.41800000000E+01 0.  1.
         -5    1    4    4    0  501  0.10737636008E+03  0.89335213957E+02  0.18848286051E+02  0.14100777795E+03  0.41800000000E+01 0.  1.
</event>
<event>
11    1  0.8864208E-009  0.1632990E+03  0.7561462E-02  0.1084015E+00
         22   -1    0    0    0    0  0.00000000000E+00  0.00000000000E+00  0.20065141737E+04  0.20065141737E+04  0.00000000000E+00 0.  1.
         22   -1    0    0    0    0 -0.00000000000E+00 -0.00000000000E+00 -0.12857566875E+04  0.12857566875E+04  0.00000000000E+00 0. -1.
        -24    2    1    2    0    0 -0.83755979526E+01 -0.58086761420E+02 -0.12703381365E+04  0.12742565424E+04  0.80786955270E+02 0.  0.
         25    2    1    2    0    0  0.24732105787E+02 -0.60000556268E+02  0.48441883255E+03  0.50450022505E+03  0.12508848046E+03 0.  0.
         24    2    1    2    0    0 -0.16356507834E+02  0.11808731769E+03  0.15066767902E+04  0.15135140939E+04  0.80235978695E+02 0.  0.
        -11    1    5    5    0    0 -0.30477198086E+02  0.65414264864E+02  0.11892112132E+04  0.11913988397E+04  0.00000000000E+00 0.  1.
         12    1    5    5    0    0  0.14120690252E+02  0.52673052824E+02  0.31746557695E+03  0.32211525412E+03  0.00000000000E+00 0. -1.
         11    1    3    3    0    0  0.28158086023E+02 -0.42391391024E+02 -0.96489660283E+03  0.96623773575E+03  0.00000000000E+00 0. -1.
        -12    1    3    3    0    0 -0.36533683976E+02 -0.15695370396E+02 -0.30544153369E+03  0.30801880660E+03  0.00000000000E+00 0.  1.
          5    1    4    4  501    0  0.57059995322E+02 -0.24998186484E+01  0.10723331693E+03  0.12156705483E+03  0.41800000000E+01 0. -1.
         -5    1    4    4    0  501 -0.32327889535E+02 -0.57500737620E+02  0.37718551561E+03  0.38293317022E+03  0.41800000000E+01 0. -1.
</event>
<event>
11    1  0.8864208E-009  0.1425292E+03  0.7561462E-02  0.1104767E+00
         22   -1    0    0    0    0  0.00000000000E+00  0.00000000000E+00  0.12513324729E+04  0.12513324729E+04  0.00000000000E+00 0. -1.
         22   -1    0    0    0    0 -0.00000000000E+00 -0.00000000000E+00 -0.34337218141E+03  0.34337218141E+03  0.00000000000E+00 0.  1.
         24    2    1    2    0    0 -0.18331464188E+02  0.12413717862E+02 -0.30059733797E+03  0.31186218900E+03  0.80056994449E+02 0.  0.
         25    2    1    2    0    0  0.62849753023E+02 -0.62328219453E+02  0.13494285586E+03  0.20417687355E+03  0.12507486938E+03 0.  0.
        -24    2    1    2    0    0 -0.44518288835E+02  0.49914501591E+02  0.10736147736E+04  0.10786655917E+04  0.79984006261E+02 0.  0.
        -11    1    3    3    0    0 -0.31455441333E+02  0.27631168349E+02 -0.27990174922E+03  0.28301575128E+03  0.00000000000E+00 0.  1.
         12    1    3    3    0    0  0.13123977146E+02 -0.15217450487E+02 -0.20695588752E+02  0.28846437722E+02  0.00000000000E+00 0. -1.
         11    1    5    5    0    0 -0.34913119586E+02  0.71168664222E+02  0.90133325826E+03  0.90481243755E+03  0.00000000000E+00 0. -1.
        -12    1    5    5    0    0 -0.96051692490E+01 -0.21254162631E+02  0.17228151529E+03  0.17385315418E+03  0.00000000000E+00 0.  1.
          5    1    4    4  501    0  0.98119059135E+02 -0.45981075980E+02  0.12145014884E+03  0.16281652302E+03  0.41800000000E+01 0.  1.
         -5    1    4    4    0  501 -0.35269306112E+02 -0.16347143473E+02  0.13492707016E+02  0.41360350530E+02  0.41800000000E+01 0.  1.
</event>
<event>
11    1  0.8864208E-009  0.1829436E+03  0.7561462E-02  0.1067286E+00
         22   -1    0    0    0    0  0.00000000000E+00  0.00000000000E+00  0.15437458173E+03  0.15437458173E+03  0.00000000000E+00 0. -1.
         22   -1    0    0    0    0 -0.00000000000E+00 -0.00000000000E+00 -0.54724598502E+03  0.54724598502E+03  0.00000000000E+00 0. -1.
         24    2    1    2    0    0  0.36477414573E+01  0.22993210435E+02 -0.30774175525E+03  0.31886031653E+03  0.80155597342E+02 0.  0.
         25    2    1    2    0    0  0.89580556261E+02  0.79516073205E+02 -0.12906452359E+03  0.21599213130E+03  0.12508983802E+03 0.  0.
        -24    2    1    2    0    0 -0.93228297718E+02 -0.10250928364E+03  0.43934875555E+02  0.16676811891E+03  0.81741442784E+02 0.  0.
        -13    1    3    3    0    0  0.21017478572E+02 -0.23365362503E+02 -0.83488431124E+02  0.89207582088E+02  0.00000000000E+00 0.  1.
         14    1    3    3    0    0 -0.17369737115E+02  0.46358572938E+02 -0.22425332413E+03  0.22965273444E+03  0.00000000000E+00 0. -1.
         13    1    5    5    0    0 -0.88808902353E+02 -0.50807558013E+02  0.51132966034E+02  0.11438098314E+03  0.00000000000E+00 0. -1.
        -14    1    5    5    0    0 -0.44193953651E+01 -0.51701725627E+02 -0.71980904788E+01  0.52387135775E+02  0.00000000000E+00 0.  1.
          5    1    4    4  501    0  0.35018019780E+02  0.35728952965E+02 -0.13657184647E+03  0.14550656836E+03  0.41800000000E+01 0.  1.
         -5    1    4    4    0  501  0.54562536481E+02  0.43787120239E+02  0.75073228747E+01  0.70485562939E+02  0.41800000000E+01 0.  1.
</event>
<event>
11    1  0.8864208E-009  0.1359759E+03  0.7561462E-02  0.1112137E+00
         22   -1    0    0    0    0  0.00000000000E+00  0.00000000000E+00  0.86861597460E+03  0.86861597460E+03  0.00000000000E+00 0. -1.
         22   -1    0    0    0    0 -0.00000000000E+00 -0.00000000000E+00 -0.33539541085E+04  0.33539541085E+04  0.00000000000E+00 0.  1.
        -24    2    1    2    0    0  0.22349251334E+02  0.23064241230E+02 -0.16627885020E+04  0.16650604294E+04  0.80803359630E+02 0.  0.
         25    2    1    2    0    0 -0.53119035107E+02 -0.66528024311E+02 -0.16839737486E+04  0.16907582389E+04  0.12509287219E+03 0.  0.
         24    2    1    2    0    0  0.30769783773E+02  0.43463783081E+02  0.86142411674E+03  0.86675141472E+03  0.79816201254E+02 0.  0.
        -11    1    5    5    0    0 -0.12629987633E+02  0.38427666939E+02  0.20977725084E+03  0.21364151550E+03  0.00000000000E+00 0.  1.
         12    1    5    5    0    0  0.43399771406E+02  0.50361161422E+01  0.65164686590E+03  0.65310989922E+03  0.00000000000E+00 0. -1.
         13    1    3    3    0    0 -0.79781273848E+01  0.22184279599E+02 -0.14010168038E+03  0.14207136806E+03  0.00000000000E+00 0. -1.
        -14    1    3    3    0    0  0.30327378719E+02  0.87996163138E+00 -0.15226868216E+04  0.15229890614E+04  0.00000000000E+00 0.  1.
          5    1    4    4  501    0 -0.74162655133E+02 -0.55034027557E+02 -0.16144940223E+04  0.16171386039E+04  0.41800000000E+01 0.  1.
         -5    1    4    4    0  501  0.21043620026E+02 -0.11493996754E+02 -0.69479726290E+02  0.73619635088E+02  0.41800000000E+01 0.  1.
</event>
<event>
11    1  0.8864208E-009  0.1887558E+03  0.7561462E-02  0.1062773E+00
         22   -1    0    0    0    0  0.00000000000E+00  0.00000000000E+00  0.69520033730E+03  0.69520033730E+03  0.00000000000E+00 0.  1.
         22   -1    0    0    0    0 -0.00000000000E+00 -0.00000000000E+00 -0.57220149291E+03  0.57220149291E+03  0.00000000000E+00 0. -1.
        -24    2    1    2    0    0  0.43232974010E+01 -0.14316343383E+03 -0.50399995916E+03  0.53153296691E+03  0.89425255882E+02 0.  0.
         25    2    1    2    0    0  0.29037156888E+02  0.12099451998E+03  0.10332206105E+03  0.20446673627E+03  0.12509343548E+03 0.  0.
         24    2    1    2    0    0 -0.33360454289E+02  0.22168913858E+02  0.52367674250E+03  0.53140212703E+03  0.80910501963E+02 0.  0.
        -13    1    5    5    0    0  0.10421606683E+01  0.84933290651E+01  0.43782197896E+03  0.43790559257E+03  0.00000000000E+00 0.  1.
         14    1    5    5    0    0 -0.34402614957E+02  0.13675584793E+02  0.85854763532E+02  0.93496534462E+02  0.00000000000E+00 0. -1.
         11    1    3    3    0    0  0.14087128349E+02 -0.15363830462E+03 -0.46866860934E+03  0.49341001329E+03  0.00000000000E+00 0. -1.
        -12    1    3    3    0    0 -0.97638309482E+01  0.10474870784E+02 -0.35331349815E+02  0.38122953617E+02  0.00000000000E+00 0.  1.
          5    1    4    4  501    0  0.51148533641E+02  0.15096383959E+02  0.75774872111E+02  0.92754390439E+02  0.41800000000E+01 0.  1.
         -5    1    4    4    0  501 -0.22111376753E+02  0.10589813602E+03  0.27547188935E+02  0.11171234583E+03  0.41800000000E+01 0.  1.
</event>
<event>
11    1  0.8864208E-009  0.1840713E+03  0.7561462E-02  0.1066396E+00
         22   -1    0    0    0    0  0.00000000000E+00  0.00000000000E+00  0.16734361360E+04  0.16734361360E+04  0.00000000000E+00 0.  1.
         22   -1    0    0    0    0 -0.00000000000E+00 -0.00000000000E+00 -0.13650509973E+03  0.13650509973E+03  0.00000000000E+00 0. -1.
        -24    2    1    2    0    0 -0.34630603954E+02  0.10786228653E+03 -0.29412715997E+01  0.13985499994E+03  0.81958638015E+02 0.  0.
         25    2    1    2    0    0  0.37756034485E+02 -0.21324103908E+03  0.19055211650E+03  0.31441257624E+03  0.12509156688E+03 0.  0.
         24    2    1    2    0    0 -0.31254305311E+01  0.10537875255E+03  0.13493201914E+04  0.13556736595E+04  0.77920745116E+02 0.  0.
        -13    1    5    5    0    0  0.17844181482E+02  0.95846237873E+02  0.80750869981E+03  0.81337274137E+03  0.00000000000E+00 0.  1.
         14    1    5    5    0    0 -0.20969612013E+02  0.95325146821E+01  0.54181149157E+03  0.54230091818E+03  0.00000000000E+00 0. -1.
         13    1    3    3    0    0 -0.35372325141E+00  0.89568737886E+02 -0.27734759541E+02  0.93765136450E+02  0.00000000000E+00 0. -1.
        -14    1    3    3    0    0 -0.34276880702E+02  0.18293548642E+02  0.24793487941E+02  0.46089863494E+02  0.00000000000E+00 0.  1.
          5    1    4    4  501    0 -0.44101603092E+02 -0.78127174471E+02  0.89746985765E+02  0.12696771495E+03  0.41800000000E+01 0.  1.
         -5    1    4    4    0  501  0.81857637577E+02 -0.13511386461E+03  0.10080513073E+03  0.18744486128E+03  0.41800000000E+01 0.  1.
</event>
<event>
11    1  0.8864208E-009  0.1800556E+03  0.7561462E-02  0.1069598E+00
         22   -1    0    0    0    0  0.00000000000E+00  0.00000000000E+00  0.29671851199E+03  0.29671851199E+03  0.00000000000E+00 0. -1.
         22   -1    0    0    0    0 -0.00000000000E+00 -0.00000000000E+00 -0.43183216340E+03  0.43183216340E+03  0.00000000000E+00 0. -1.
        -24    2    1    2    0    0  0.11588483947E+03 -0.64357727704E+02 -0.31877775107E+03  0.35407478757E+03  0.78603355428E+02 0.  0.
         25    2    1    2    0    0 -0.76205976804E+02  0.94421404899E+02  0.76396867705E+01  0.17444052433E+03  0.12509348149E+03 0.  0.
         24    2    1    2    0    0 -0.39678862662E+02 -0.30063677195E+02  0.17602441289E+03  0.20003536348E+03  0.80940199409E+02 0.  0.
        -13    1    5    5    0    0  0.11564429128E+02 -0.31508809161E+02  0.29092856549E+02  0.44417737200E+02  0.00000000000E+00 0.  1.
         14    1    5    5    0    0 -0.51243291790E+02  0.14451319656E+01  0.14693155634E+03  0.15561762628E+03  0.00000000000E+00 0. -1.
         11    1    3    3    0    0  0.46429517621E+01 -0.14739113239E+02 -0.11967178610E+03  0.12066538381E+03  0.00000000000E+00 0. -1.
        -12    1    3    3    0    0  0.11124188770E+03 -0.49618614464E+02 -0.19910596497E+03  0.23340940377E+03  0.00000000000E+00 0.  1.
          5    1    4    4  501    0 -0.56253262958E+02  0.19544404942E+02 -0.49921399788E+02  0.77820510887E+02  0.41800000000E+01 0. -1.
         -5    1    4    4    0  501 -0.19952713846E+02  0.74876999957E+02  0.57561086558E+02  0.96620013445E+02  0.41800000000E+01 0. -1.
</event>
<event>
11    1  0.8864208E-009  0.1354687E+03  0.7561462E-02  0.1112727E+00
         22   -1    0    0    0    0  0.00000000000E+00  0.00000000000E+00  0.33679574297E+04  0.33679574297E+04  0.00000000000E+00 0. -1.
         22   -1    0    0    0    0 -0.00000000000E+00 -0.00000000000E+00 -0.38159478569E+03  0.38159478569E+03  0.00000000000E+00 0. -1.
        -24    2    1    2    0    0 -0.17623183404E+02  0.65891207142E+01 -0.34102256970E+03  0.35092883883E+03  0.80626693935E+02 0.  0.
         25    2    1    2    0    0 -0.31138286556E+02  0.12514334060E+02  0.85194041548E+02  0.15502323871E+03  0.12509187975E+03 0.  0.
         24    2    1    2    0    0  0.48761469960E+02 -0.19103454774E+02  0.32421911722E+04  0.32436001379E+04  0.79972710220E+02 0.  0.
        -11    1    5    5    0    0 -0.52693209010E+01 -0.24414995178E+02  0.34608737991E+03  0.34698751024E+03  0.00000000000E+00 0.  1.
         12    1    5    5    0    0  0.54030790861E+02  0.53115404046E+01  0.28961037923E+04  0.28966126276E+04  0.00000000000E+00 0. -1.
         11    1    3    3    0    0 -0.39264494585E+02 -0.18895217728E+02 -0.12598531037E+03  0.13330802008E+03  0.00000000000E+00 0. -1.
        -12    1    3    3    0    0  0.21641311181E+02  0.25484338443E+02 -0.21503725933E+03  0.21762081876E+03  0.00000000000E+00 0.  1.
          5    1    4    4  501    0 -0.33492783252E+02  0.34877591543E+02  0.11063468804E+03  0.12081274568E+03  0.41800000000E+01 0.  1.
         -5    1    4    4    0  501  0.23544966963E+01 -0.22363257483E+02 -0.25440646488E+02  0.34210493035E+02  0.41800000000E+01 0.  1.
</event>
<event>
11    1  0.8864208E-009  0.1911552E+03  0.7561462E-02  0.1060961E+00
         22   -1    0    0    0    0  0.00000000000E+00  0.00000000000E+00  0.60279418371E+03  0.60279418371E+03  0.00000000000E+00 0.  1.
         22   -1    0    0    0    0 -0.00000000000E+00 -0.00000000000E+00 -0.86691839793E+03  0.86691839793E+03  0.00000000000E+00 0.  1.
        -24    2    1    2    0    0 -0.33591732228E+02  0.47082187688E+02 -0.60277829799E+03  0.61089617476E+03  0.80667979606E+02 0.  0.
         25    2    1    2    0    0  0.10460863840E+03 -0.16988954481E+03 -0.19206735887E+03  0.30387969263E+03  0.12509025775E+03 0.  0.
         24    2    1    2    0    0 -0.71016906175E+02  0.12280735712E+03  0.53072144264E+03  0.55493671426E+03  0.78514070215E+02 0.  0.
        -13    1    5    5    0    0 -0.46385554576E+02  0.12838078909E+03  0.43314288850E+03  0.45414315864E+03  0.00000000000E+00 0.  1.
         14    1    5    5    0    0 -0.24631351598E+02 -0.55734319625E+01  0.97578554147E+02  0.10079355562E+03  0.00000000000E+00 0. -1.
         11    1    3    3    0    0 -0.26437360343E+02  0.55681946870E+02 -0.23505021344E+03  0.24299797544E+03  0.00000000000E+00 0. -1.
        -12    1    3    3    0    0 -0.71543718856E+01 -0.85997591819E+01 -0.36772808455E+03  0.36789819932E+03  0.00000000000E+00 0.  1.
          5    1    4    4  501    0  0.12856026569E+03 -0.16204944803E+03 -0.18456750833E+03  0.27725512267E+03  0.41800000000E+01 0. -1.
         -5    1    4    4    0  501 -0.23951627284E+02 -0.78400967867E+01 -0.74998505448E+01  0.26624569957E+02  0.41800000000E+01 0. -1.
</event>
<event>
11    1  0.8864208E-009  0.1400522E+03  0.7561462E-02  0.1107500E+00
         22   -1    0    0    0    0  0.00000000000E+00  0.00000000000E+00  0.28138607150E+04  0.28138607150E+04  0.00000000000E+00 0. -1.
         22   -1    0    0    0    0 -0.00000000000E+00 -0.00000000000E+00 -0.19179988720E+03  0.19179988720E+03  0.00000000000E+00 0. -1.
         24    2    1    2    0    0  0.22327052439E+02 -0.11293422989E+02 -0.88485060767E+02  0.12364782927E+03  0.82662815286E+02 0.  0.
         25    2    1    2    0    0 -0.46893692240E+02  0.69069013052E+02 -0.18096396888E+02  0.15147087875E+03  0.12508557308E+03 0.  0.
        -24    2    1    2    0    0  0.24566639801E+02 -0.57775590063E+02  0.27286422854E+04  0.27305418941E+04  0.80179643808E+02 0.  0.
        -13    1    3    3    0    0 -0.30369224829E+02 -0.78462822572E+01 -0.20132465316E+02  0.37271572568E+02  0.00000000000E+00 0.  1.
         14    1    3    3    0    0  0.52696277268E+02 -0.34471407319E+01 -0.68352595451E+02  0.86376256703E+02  0.00000000000E+00 0. -1.
         11    1    5    5    0    0  0.35623460907E+02 -0.53027194947E+02  0.26653742505E+04  0.26661396831E+04  0.00000000000E+00 0. -1.
        -12    1    5    5    0    0 -0.11056821106E+02 -0.47483951161E+01  0.63268034873E+02  0.64402211032E+02  0.00000000000E+00 0.  1.
          5    1    4    4  501    0  0.57236264170E+01  0.73407766006E+02  0.30296884137E+02  0.79729753528E+02  0.41800000000E+01 0.  1.
         -5    1    4    4    0  501 -0.52617318657E+02 -0.43387529537E+01 -0.48393281025E+02  0.71741125223E+02  0.41800000000E+01 0.  1.
</event>
<event>
11    1  0.1287278E-008  0.2474021E+03  0.7561462E-02  0.1025292E+00
         22   -1    0    0    0    0  0.00000000000E+00  0.00000000000E+00  0.81456661616E+03  0.81456661616E+03  0.00000000000E+00 0.  1.
         22   -1    0    0    0    0 -0.00000000000E+00 -0.00000000000E+00 -0.25093020421E+04  0.25093020421E+04  0.00000000000E+00 0.  1.
        -24    2    1    2    0    0  0.74693648945E+02 -0.80500706959E+02 -0.16801844325E+04  0.16857832137E+04  0.82376035872E+02 0.  0.
         25    2    1    2    0    0 -0.11955453889E+03  0.28724742266E+03 -0.77510166224E+03  0.84453222319E+03  0.12509084546E+03 0.  0.
         24    2    1    2    0    0  0.44860889945E+02 -0.20674671570E+03  0.76055066879E+03  0.79355322140E+03  0.80825067338E+02 0.  0.
        -11    1    5    5    0    0  0.19925244323E+02 -0.19868890618E+03  0.65256779103E+03  0.68243609129E+03  0.00000000000E+00 0.  1.
         12    1    5    5    0    0  0.24935645622E+02 -0.80578095150E+01  0.10798287776E+03  0.11111713012E+03  0.00000000000E+00 0. -1.
         11    1    3    3    0    0 -0.10498231833E+02 -0.80390565480E+01 -0.53207540745E+03  0.53223968145E+03  0.00000000000E+00 0. -1.
        -12    1    3    3    0    0  0.85191880778E+02 -0.72461650411E+02 -0.11481090251E+04  0.11535435322E+04  0.00000000000E+00 0.  1.
          5    1    4    4  501    0 -0.14527313637E+03  0.22499241190E+03 -0.62011287264E+03  0.67548746604E+03  0.41800000000E+01 0.  1.
         -5    1    4    4    0  501  0.25718597479E+02  0.62255010757E+02 -0.15498878960E+03  0.16904475715E+03  0.41800000000E+01 0.  1.
</event>
<event>
11    1  0.8864208E-009  0.1365657E+03  0.7561462E-02  0.1111455E+00
         22   -1    0    0    0    0  0.00000000000E+00  0.00000000000E+00  0.11031625385E+04  0.11031625385E+04  0.00000000000E+00 0.  1.
         22   -1    0    0    0    0 -0.00000000000E+00 -0.00000000000E+00 -0.26511522557E+03  0.26511522557E+03  0.00000000000E+00 0. -1.
         24    2    1    2    0    0 -0.47402538265E+02  0.30867100912E+02 -0.18581534054E+03  0.21026514399E+03  0.80525222417E+02 0.  0.
         25    2    1    2    0    0  0.46459527389E+02 -0.10201041936E+02  0.29910407831E+01  0.13386185951E+03  0.12508997628E+03 0.  0.
        -24    2    1    2    0    0  0.94301087625E+00 -0.20666058976E+02  0.10208716127E+04  0.10241507606E+04  0.79233550380E+02 0.  0.
        -11    1    3    3    0    0  0.10635828930E+02  0.15632813592E+02 -0.47205878845E+01  0.19488193036E+02  0.00000000000E+00 0.  1.
         12    1    3    3    0    0 -0.58038367195E+02  0.15234287320E+02 -0.18109475265E+03  0.19077695095E+03  0.00000000000E+00 0. -1.
         13    1    5    5    0    0  0.38555813001E+02 -0.17680480769E+02  0.43412376182E+03  0.43619100254E+03  0.00000000000E+00 0. -1.
        -14    1    5    5    0    0 -0.37612802125E+02 -0.29855782071E+01  0.58674785090E+03  0.58795975806E+03  0.00000000000E+00 0.  1.
          5    1    4    4  501    0 -0.42885778933E+02  0.16325377759E+01  0.63057118092E+01  0.43578545360E+02  0.41800000000E+01 0.  1.
         -5    1    4    4    0  501  0.89345306322E+02 -0.11833579712E+02 -0.33146710261E+01  0.90283314154E+02  0.41800000000E+01 0.  1.
</event>
<event>
11    1  0.8864208E-009  0.1946302E+03  0.7561462E-02  0.1058387E+00
         22   -1    0    0    0    0  0.00000000000E+00  0.00000000000E+00  0.65809263781E+03  0.65809263781E+03  0.00000000000E+00 0.  1.
         22   -1    0    0    0    0 -0.00000000000E+00 -0.00000000000E+00 -0.10567297355E+04  0.10567297355E+04  0.00000000000E+00 0.  1.
         24    2    1    2    0    0 -0.87355346332E+02  0.11500104482E+03 -0.79311452852E+03  0.81015809364E+03  0.80431862412E+02 0.  0.
         25    2    1    2    0    0  0.98090285850E+02 -0.14431922935E+03 -0.20639898103E+03  0.29781977132E+03  0.12508530161E+03 0.  0.
        -24    2    1    2    0    0 -0.10734939518E+02  0.29318184533E+02  0.60087641188E+03  0.60684450833E+03  0.78949351260E+02 0.  0.
        -13    1    3    3    0    0 -0.47462332916E+02  0.75607333792E+02 -0.65565919327E+03  0.66170848543E+03  0.00000000000E+00 0.  1.
         14    1    3    3    0    0 -0.39893013416E+02  0.39393711031E+02 -0.13745533525E+03  0.14844960821E+03  0.00000000000E+00 0. -1.
         11    1    5    5    0    0  0.89038887028E+01  0.45657892610E+02  0.20799671047E+03  0.21313506037E+03  0.00000000000E+00 0. -1.
        -12    1    5    5    0    0 -0.19638828221E+02 -0.16339708077E+02  0.39287970141E+03  0.39370944796E+03  0.00000000000E+00 0.  1.
          5    1    4    4  501    0 -0.15469686239E+02 -0.63617563033E+02 -0.27748198785E+02  0.71231597304E+02  0.41800000000E+01 0.  1.
         -5    1    4    4    0  501  0.11355997209E+03 -0.80701666321E+02 -0.17865078224E+03  0.22658817402E+03  0.41800000000E+01 0.  1.
</event>
<event>
11    1  0.8864208E-009  0.1545785E+03  0.7561462E-02  0.1092290E+00
         22   -1    0    0    0    0  0.00000000000E+00  0.00000000000E+00  0.75584046182E+03  0.75584046182E+03  0.00000000000E+00 0. -1.
         22   -1    0    0    0    0 -0.00000000000E+00 -0.00000000000E+00 -0.33673812886E+03  0.33673812886E+03  0.00000000000E+00 0. -1.
        -24    2    1    2    0    0 -0.47914798218E+02 -0.29200305994E+02 -0.26802701825E+03  0.28532733596E+03  0.80154353436E+02 0.  0.
         25    2    1    2    0    0  0.12482236309E+03  0.66156087384E+02  0.11018943502E+03  0.21850964598E+03  0.12508998189E+03 0.  0.
         24    2    1    2    0    0 -0.76907564869E+02 -0.36955781389E+02  0.57693991619E+03  0.58874160874E+03  0.80476777123E+02 0.  0.
        -13    1    5    5    0    0 -0.77185807869E+01 -0.11707083251E+02  0.10460895907E+02  0.17494645775E+02  0.00000000000E+00 0.  1.
         14    1    5    5    0    0 -0.69188984082E+02 -0.25248698138E+02  0.56647902029E+03  0.57124696297E+03  0.00000000000E+00 0. -1.
         11    1    3    3    0    0 -0.47333080970E+02 -0.51806579977E+02 -0.23534671865E+03  0.24558587146E+03  0.00000000000E+00 0. -1.
        -12    1    3    3    0    0 -0.58171724768E+00  0.22606273982E+02 -0.32680299602E+02  0.39741464497E+02  0.00000000000E+00 0.  1.
          5    1    4    4  501    0  0.78163656758E+02  0.29719857930E+02 -0.10141465823E+02  0.84339486139E+02  0.41800000000E+01 0. -1.
         -5    1    4    4    0  501  0.46658706329E+02  0.36436229454E+02  0.12033090084E+03  0.13417015984E+03  0.41800000000E+01 0. -1.
</event>
<event>
11    1  0.8864208E-009  0.2457922E+03  0.7561462E-02  0.1026165E+00
         22   -1    0    0    0    0  0.00000000000E+00  0.00000000000E+00  0.33629109125E+03  0.33629109125E+03  0.00000000000E+00 0. -1.
         22   -1    0    0    0    0 -0.00000000000E+00 -0.00000000000E+00 -0.36602211901E+03  0.36602211901E+03  0.00000000000E+00 0. -1.
        -24    2    1    2    0    0 -0.12556094124E+03  0.15337517334E+03 -0.10217940215E+03  0.23687484734E+03  0.79872206172E+02 0.  0.
         25    2    1    2    0    0  0.24189339097E+03 -0.93819335484E+02 -0.15291966781E+02  0.28843520801E+03  0.12508614898E+03 0.  0.
         24    2    1    2    0    0 -0.11633244973E+03 -0.59555837854E+02  0.87740341163E+02  0.17700315490E+03  0.80942032922E+02 0.  0.
        -11    1    5    5    0    0 -0.60093623609E+01 -0.41045841233E+02  0.29346121983E+02  0.50814057051E+02  0.00000000000E+00 0.  1.
         12    1    5    5    0    0 -0.11032308737E+03 -0.18509996621E+02  0.58394219180E+02  0.12618909785E+03  0.00000000000E+00 0. -1.
         11    1    3    3    0    0 -0.11409209384E+03  0.10714076322E+03 -0.45821402826E+02  0.16308203450E+03  0.00000000000E+00 0. -1.
        -12    1    3    3    0    0 -0.11468847401E+02  0.46234410117E+02 -0.56357999320E+02  0.73792812840E+02  0.00000000000E+00 0.  1.
          5    1    4    4  501    0  0.32572713706E+02 -0.68868729148E+02 -0.14089819014E+02  0.77587878773E+02  0.41800000000E+01 0. -1.
         -5    1    4    4    0  501  0.20932067727E+03 -0.24950606335E+02 -0.12021477661E+01  0.21084732924E+03  0.41800000000E+01 0. -1.
</event>
<event>
11    1  0.8864208E-009  0.1563677E+03  0.7561462E-02  0.1090544E+00
         22   -1    0    0    0    0  0.00000000000E+00  0.00000000000E+00  0.10713579080E+04  0.10713579080E+04  0.00000000000E+00 0.  1.
         22   -1    0    0    0    0 -0.00000000000E+00 -0.00000000000E+00 -0.27208767883E+03  0.27208767883E+03  0.00000000000E+00 0.  1.
        -24    2    1    2    0    0 -0.69341715322E-01 -0.91133908162E+02 -0.20447787097E+03  0.23955451199E+03  0.85262949006E+02 0.  0.
         25    2    1    2    0    0 -0.76846952547E+02  0.12143713061E+03  0.15036830363E+03  0.24271593199E+03  0.12509183066E+03 0.  0.
         24    2    1    2    0    0  0.76916294262E+02 -0.30303222451E+02  0.85337979650E+03  0.86117514285E+03  0.80815518153E+02 0.  0.
        -13    1    5    5    0    0  0.92592172931E+02 -0.20683861320E+02  0.63856835859E+03  0.64557778865E+03  0.00000000000E+00 0.  1.
         14    1    5    5    0    0 -0.15675878669E+02 -0.96193611315E+01  0.21481143791E+03  0.21559735420E+03  0.00000000000E+00 0. -1.
         13    1    3    3    0    0  0.18806736841E+02 -0.40122057950E+02 -0.22647919266E+02  0.49763451768E+02  0.00000000000E+00 0. -1.
        -14    1    3    3    0    0 -0.18876078556E+02 -0.51011850212E+02 -0.18182995170E+03  0.18979106022E+03  0.00000000000E+00 0.  1.
          5    1    4    4  501    0 -0.20003309578E+02  0.50511108180E+01  0.10238225751E+03  0.10452389759E+03  0.41800000000E+01 0.  1.
         -5    1    4    4    0  501 -0.56843642969E+02  0.11638601980E+03  0.47986046123E+02  0.13819203440E+03  0.41800000000E+01 0.  1.
</event>
<event>
11    1  0.8864208E-009  0.1333747E+03  0.7561462E-02  0.1115191E+00
         22   -1    0    0    0    0  0.00000000000E+00  0.00000000000E+00  0.46403037912E+03  0.46403037912E+03  0.00000000000E+00 0.  1.
         22   -1    0    0    0    0 -0.00000000000E+00 -0.00000000000E+00 -0.95645158332E+03  0.95645158332E+03  0.00000000000E+00 0.  1.
         24    2    1    2    0    0 -0.55559863002E+01  0.87901370646E+01 -0.90332447979E+03  0.90685036771E+03  0.79210719877E+02 0.  0.
         25    2    1    2    0    0 -0.33462546824E+02  0.18121850343E+02  0.49045838978E+02  0.13964694114E+03  0.12509048864E+03 0.  0.
        -24    2    1    2    0    0  0.39018533124E+02 -0.26911987407E+02  0.36185743661E+03  0.37398465359E+03  0.81713008145E+02 0.  0.
        -11    1    3    3    0    0 -0.35992259267E+02  0.23994015622E+02 -0.61636875111E+03  0.61788477313E+03  0.00000000000E+00 0.  1.
         12    1    3    3    0    0  0.30436272967E+02 -0.15203878558E+02 -0.28695572867E+03  0.28896559458E+03  0.00000000000E+00 0. -1.
         13    1    5    5    0    0  0.59205613542E+02 -0.34915254246E+02  0.22037043165E+03  0.23084086900E+03  0.00000000000E+00 0. -1.
        -14    1    5    5    0    0 -0.20187080418E+02  0.80032668394E+01  0.14148700495E+03  0.14314378459E+03  0.00000000000E+00 0.  1.
          5    1    4    4  501    0 -0.61095516819E+02  0.31656549879E+02 -0.13104301238E+02  0.70171179529E+02  0.41800000000E+01 0. -1.
         -5    1    4    4    0  501  0.27632969995E+02 -0.13534699536E+02  0.62150140215E+02  0.69475761608E+02  0.41800000000E+01 0. -1.
</event>
<event>
11    1  0.8864208E-009  0.1392379E+03  0.7561462E-02  0.1108412E+00
         22   -1    0    0    0    0  0.00000000000E+00  0.00000000000E+00  0.73229543126E+03  0.73229543126E+03  0.00000000000E+00 0.  1.
         22   -1    0    0    0    0 -0.00000000000E+00 -0.00000000000E+00 -0.73341037870E+02  0.73341037870E+02  0.00000000000E+00 0. -1.
        -24    2    1    2    0    0  0.37636705070E+02 -0.22471494658E+01  0.26955192862E+01  0.94093644936E+02  0.86167145385E+02 0.  0.
         25    2    1    2    0    0 -0.80310533958E+02 -0.32848802884E+02  0.24175000753E+03  0.28569181375E+03  0.12509164876E+03 0.  0.
         24    2    1    2    0    0  0.42673828888E+02  0.35095952349E+02  0.41450886658E+03  0.42585101044E+03  0.80490378823E+02 0.  0.
        -11    1    5    5    0    0  0.23342175345E+02  0.47732527524E+02  0.13046895915E+03  0.14087370456E+03  0.00000000000E+00 0.  1.
         12    1    5    5    0    0  0.19331653542E+02 -0.12636575174E+02  0.28403990742E+03  0.28497730589E+03  0.00000000000E+00 0. -1.
         11    1    3    3    0    0  0.91854821811E+00 -0.32280881829E+01 -0.38646128732E+02  0.38791591229E+02  0.00000000000E+00 0. -1.
        -12    1    3    3    0    0  0.36718156852E+02  0.98093871711E+00  0.41341648018E+02  0.55302053707E+02  0.00000000000E+00 0.  1.
          5    1    4    4  501    0  0.81273692231E+01 -0.35408806958E+02  0.16338613827E+03  0.16742861260E+03  0.41800000000E+01 0. -1.
         -5    1    4    4    0  501 -0.88437903181E+02  0.25600040744E+01  0.78363869264E+02  0.11826320115E+03  0.41800000000E+01 0. -1.
</event>
<event>
11    1  0.8864208E-009  0.1557293E+03  0.7561462E-02  0.1091164E+00
         22   -1    0    0    0    0  0.00000000000E+00  0.00000000000E+00  0.27510669715E+03  0.27510669715E+03  0.00000000000E+00 0. -1.
         22   -1    0    0    0    0 -0.00000000000E+00 -0.00000000000E+00 -0.17374248038E+04  0.17374248038E+04  0.00000000000E+00 0. -1.
        -24    2    1    2    0    0  0.20495390802E+02  0.27009755294E+02 -0.15954697840E+04  0.15985587441E+04  0.93362940143E+02 0.  0.
         25    2    1    2    0    0  0.24408858867E+02  0.58587413678E+02 -0.84336397519E+02  0.16367310812E+03  0.12509189000E+03 0.  0.
         24    2    1    2    0    0 -0.44904249669E+02 -0.85597168972E+02  0.21748807491E+03  0.25029964874E+03  0.77495706043E+02 0.  0.
        -13    1    5    5    0    0  0.20767624437E+02 -0.88043435651E+01  0.46628288019E+02  0.51797759931E+02  0.00000000000E+00 0.  1.
         14    1    5    5    0    0 -0.65671874106E+02 -0.76792825407E+02  0.17085978689E+03  0.19850188880E+03  0.00000000000E+00 0. -1.
         11    1    3    3    0    0  0.40333255877E+02  0.52595558211E+02 -0.11555037315E+04  0.11574031008E+04  0.00000000000E+00 0. -1.
        -12    1    3    3    0    0 -0.19837865076E+02 -0.25585802916E+02 -0.43996605250E+03  0.44115564323E+03  0.00000000000E+00 0.  1.
          5    1    4    4  501    0  0.62875762453E+02  0.72461634610E+02 -0.74147904840E+02  0.12132367529E+03  0.41800000000E+01 0.  1.
         -5    1    4    4    0  501 -0.38466903586E+02 -0.13874220932E+02 -0.10188492679E+02  0.42349432830E+02  0.41800000000E+01 0.  1.
</event>
<event>
11    1  0.8864208E-009  0.1852353E+03  0.7561462E-02  0.1065485E+00
         22   -1    0    0    0    0  0.00000000000E+00  0.00000000000E+00  0.14992326459E+03  0.14992326459E+03  0.00000000000E+00 0. -1.
         22   -1    0    0    0    0 -0.00000000000E+00 -0.00000000000E+00 -0.48366638266E+03  0.48366638266E+03  0.00000000000E+00 0.  1.
        -24    2    1    2    0    0  0.82768876165E+02  0.11412339229E+03 -0.26288962083E+03  0.30949835748E+03  0.82482998325E+02 0.  0.
         25    2    1    2    0    0 -0.10633910444E+03 -0.78049805161E+02 -0.12211960508E+03  0.21900097975E+03  0.12509378070E+03 0.  0.
         24    2    1    2    0    0  0.23570228271E+02 -0.36073587133E+02  0.51266107844E+02  0.10509031002E+03  0.80987036605E+02 0.  0.
        -13    1    5    5    0    0 -0.24551635627E+02 -0.23159280324E+01 -0.33066672931E+01  0.24881325994E+02  0.00000000000E+00 0.  1.
         14    1    5    5    0    0  0.48121863899E+02 -0.33757659101E+02  0.54572775137E+02  0.80208984030E+02  0.00000000000E+00 0. -1.
         13    1    3    3    0    0  0.79564245858E+02  0.57075707502E+02 -0.11549991308E+03  0.15142105378E+03  0.00000000000E+00 0. -1.
        -14    1    3    3    0    0  0.32046303075E+01  0.57047684792E+02 -0.14738970774E+03  0.15807730370E+03  0.00000000000E+00 0.  1.
          5    1    4    4  501    0  0.70829297248E+01  0.24744480505E+02 -0.58280186781E+01  0.26718821281E+02  0.41800000000E+01 0.  1.
         -5    1    4    4    0  501 -0.11342203416E+03 -0.10279428567E+03 -0.11629158641E+03  0.19228215847E+03  0.41800000000E+01 0.  1.
</event>
<event>
11    1  0.8864208E-009  0.1311151E+03  0.7561462E-02  0.1117906E+00
         22   -1    0    0    0    0  0.00000000000E+00  0.00000000000E+00  0.22417834255E+03  0.22417834255E+03  0.00000000000E+00 0.  1.
         22   -1    0    0    0    0 -0.00000000000E+00 -0.00000000000E+00 -0.45109324896E+03  0.45109324896E+03  0.00000000000E+00 0.  1.
        -24    2    1    2    0    0  0.32035165614E+02 -0.16894978121E+01 -0.38969609716E+03  0.39923438783E+03  0.80597407162E+02 0.  0.
         25    2    1    2    0    0 -0.92874725275E+01  0.39075236254E+02  0.93917861835E+02  0.16149057331E+03  0.12508201015E+03 0.  0.
         24    2    1    2    0    0 -0.22747693087E+02 -0.37385738442E+02  0.68863328915E+02  0.11454663038E+03  0.80396650938E+02 0.  0.
        -11    1    5    5    0    0 -0.45059248870E+02 -0.12071699553E+01  0.52003498782E+02  0.68819743196E+02  0.00000000000E+00 0.  1.
         12    1    5    5    0    0  0.22311555783E+02 -0.36178568487E+02  0.16859830133E+02  0.45726887182E+02  0.00000000000E+00 0. -1.
         11    1    3    3    0    0  0.13945560071E+02 -0.42598279260E+01 -0.71287148816E+01  0.16230938220E+02  0.00000000000E+00 0. -1.
        -12    1    3    3    0    0  0.18089605544E+02  0.25703301139E+01 -0.38256738228E+03  0.38300344961E+03  0.00000000000E+00 0.  1.
          5    1    4    4  501    0 -0.42488342083E+02 -0.28472330725E+02  0.59646908623E+02  0.78683917913E+02  0.41800000000E+01 0. -1.
         -5    1    4    4    0  501  0.33200869555E+02  0.67547566980E+02  0.34270953212E+02  0.82806655398E+02  0.41800000000E+01 0. -1.
</event>
<event>
11    1  0.8864208E-009  0.1340201E+03  0.7561462E-02  0.1114426E+00
         22   -1    0    0    0    0  0.00000000000E+00  0.00000000000E+00  0.73411837281E+02  0.73411837281E+02  0.00000000000E+00 0.  1.
         22   -1    0    0    0    0 -0.00000000000E+00 -0.00000000000E+00 -0.16777110892E+04  0.16777110892E+04  0.00000000000E+00 0.  1.
        -24    2    1    2    0    0  0.20099178677E+02  0.34298418441E+02 -0.12620571502E+04  0.12655351847E+04  0.84915810472E+02 0.  0.
         25    2    1    2    0    0 -0.55187118187E+02 -0.58793272042E+02 -0.33823979456E+03  0.36953646269E+03  0.12509505101E+03 0.  0.
         24    2    1    2    0    0  0.35087939510E+02  0.24494853601E+02 -0.40023071702E+01  0.11605127909E+03  0.10779944139E+03 0.  0.
        -11    1    5    5    0    0  0.22306198781E+01  0.97426658902E+01  0.50083182132E+02  0.51070738551E+02  0.00000000000E+00 0.  1.
         12    1    5    5    0    0  0.32857319632E+02  0.14752187711E+02 -0.54085489302E+02  0.64980540539E+02  0.00000000000E+00 0. -1.
         13    1    3    3    0    0 -0.29210044544E+02  0.24263683623E+01 -0.23830367635E+03  0.24009947132E+03  0.00000000000E+00 0. -1.
        -14    1    3    3    0    0  0.49309223221E+02  0.31872050078E+02 -0.10237534738E+04  0.10254357134E+04  0.00000000000E+00 0.  1.
          5    1    4    4  501    0 -0.65036710698E+02 -0.71750537817E+02 -0.13826418482E+03  0.16885606480E+03  0.41800000000E+01 0.  1.
         -5    1    4    4    0  501  0.98495925112E+01  0.12957265775E+02 -0.19997560974E+03  0.20068039790E+03  0.41800000000E+01 0.  1.
</event>
<event>
11    1  0.8864208E-009  0.1398019E+03  0.7561462E-02  0.1107780E+00
         22   -1    0    0    0    0  0.00000000000E+00  0.00000000000E+00  0.29007204029E+04  0.29007204029E+04  0.00000000000E+00 0. -1.
         22   -1    0    0    0    0 -0.00000000000E+00 -0.00000000000E+00 -0.67207685257E+02  0.67207685257E+02  0.00000000000E+00 0.  1.
        -24    2    1    2    0    0 -0.43943257055E+02  0.44626973540E+02 -0.17305370908E+02  0.10358444517E+03  0.80670222584E+02 0.  0.
         25    2    1    2    0    0  0.12214064989E+02 -0.68778262507E+02  0.88852801886E+03  0.90000524530E+03  0.12509104077E+03 0.  0.
         24    2    1    2    0    0  0.31729192066E+02  0.24151288967E+02  0.19622900697E+04  0.19643383977E+04  0.80330546077E+02 0.  0.
        -13    1    5    5    0    0 -0.22821309755E+02  0.23733377546E+02  0.96044634005E+03  0.96101053975E+03  0.00000000000E+00 0.  1.
         14    1    5    5    0    0  0.54550501821E+02  0.41791142098E+00  0.10018437297E+04  0.10033278580E+04  0.00000000000E+00 0. -1.
         11    1    3    3    0    0 -0.50953439144E+02 -0.12450183519E+01  0.65832207691E+01  0.51392040503E+02  0.00000000000E+00 0. -1.
        -12    1    3    3    0    0  0.70101820892E+01  0.45871991892E+02 -0.23888591677E+02  0.52192404671E+02  0.00000000000E+00 0.  1.
          5    1    4    4  501    0 -0.25627738655E+02 -0.89743984356E+02  0.46777093848E+03  0.47700931543E+03  0.41800000000E+01 0.  1.
         -5    1    4    4    0  501  0.37841803644E+02  0.20965721849E+02  0.42075708038E+03  0.42299592987E+03  0.41800000000E+01 0.  1.
</event>
<event>
11    1  0.8864208E-009  0.2096782E+03  0.7561462E-02  0.1047883E+00
         22   -1    0    0    0    0  0.00000000000E+00  0.00000000000E+00  0.13123143444E+04  0.13123143444E+04  0.00000000000E+00 0.  1.
         22   -1    0    0    0    0 -0.00000000000E+00 -0.00000000000E+00 -0.19987794570E+03  0.19987794570E+03  0.00000000000E+00 0.  1.
        -24    2    1    2    0    0  0.95009677031E+02  0.14103059405E+03 -0.92669994702E+02  0.20887446472E+03  0.78258206635E+02 0.  0.
         25    2    1    2    0    0 -0.13006793499E+03 -0.10501122856E+03  0.18572704366E+03  0.27943922371E+03  0.12508684648E+03 0.  0.
         24    2    1    2    0    0  0.35058257959E+02 -0.36019365482E+02  0.10193793497E+04  0.10238786016E+04  0.81649593579E+02 0.  0.
        -13    1    5    5    0    0  0.13669755306E+02 -0.19242473251E+02  0.93353047744E+03  0.93382883190E+03  0.00000000000E+00 0.  1.
         14    1    5    5    0    0  0.21388502652E+02 -0.16776892232E+02  0.85848872277E+02  0.90049769738E+02  0.00000000000E+00 0. -1.
         13    1    3    3    0    0 -0.82772194005E+01  0.19560883083E+01  0.51378397804E+01  0.99366010327E+01  0.00000000000E+00 0. -1.
        -14    1    3    3    0    0  0.10328689643E+03  0.13907450574E+03 -0.97807834483E+02  0.19893786368E+03  0.00000000000E+00 0.  1.
          5    1    4    4  501    0 -0.12422146974E+02 -0.24829485782E+02  0.11878783262E+03  0.12206078272E+03  0.41800000000E+01 0.  1.
         -5    1    4    4    0  501 -0.11764578802E+03 -0.80181742782E+02  0.66939211041E+02  0.15737844099E+03  0.41800000000E+01 0.  1.
</event>
<event>
11    1  0.2626439E-008  0.1779246E+03  0.7561462E-02  0.1071334E+00
         22   -1    0    0    0    0  0.00000000000E+00  0.00000000000E+00  0.11099427839E+04  0.11099427839E+04  0.00000000000E+00 0. -1.
         22   -1    0    0    0    0 -0.00000000000E+00 -0.00000000000E+00 -0.42003506294E+03  0.42003506294E+03  0.00000000000E+00 0. -1.
        -24    2    1    2    0    0 -0.19279998298E+02 -0.67227939236E+00 -0.28253176246E+03  0.29436305760E+03  0.80332076963E+02 0.  0.
         25    2    1    2    0    0  0.14011648781E+02  0.12709321066E+03 -0.62738556477E+02  0.18956009237E+03  0.12509153311E+03 0.  0.
         24    2    1    2    0    0  0.52683495167E+01 -0.12642093126E+03  0.10351780399E+04  0.10460546969E+04  0.81405449456E+02 0.  0.
        -11    1    5    5    0    0 -0.29342768383E+02 -0.24627700131E+02  0.17249788107E+03  0.17670042627E+03  0.00000000000E+00 0.  1.
         12    1    5    5    0    0  0.34611117900E+02 -0.10179323113E+03  0.86268015881E+03  0.86935427059E+03  0.00000000000E+00 0. -1.
         13    1    3    3    0    0  0.11661877268E+02 -0.33435616261E+02 -0.92130327538E+02  0.98701251605E+02  0.00000000000E+00 0. -1.
        -14    1    3    3    0    0 -0.30941875566E+02  0.32763336869E+02 -0.19040143492E+03  0.19566180600E+03  0.00000000000E+00 0.  1.
          5    1    4    4  501    0 -0.73028506409E+01  0.12963069189E+03 -0.87423700462E+02  0.15658168383E+03  0.41800000000E+01 0.  1.
         -5    1    4    4    0  501  0.21314499422E+02 -0.25374812340E+01  0.24685143985E+02  0.32978408545E+02  0.41800000000E+01 0.  1.
</event>
<event>
11    1  0.8864208E-009  0.2259400E+03  0.7561462E-02  0.1037559E+00
         22   -1    0    0    0    0  0.00000000000E+00  0.00000000000E+00  0.74834190205E+03  0.74834190205E+03  0.00000000000E+00 0.  1.
         22   -1    0    0    0    0 -0.00000000000E+00 -0.00000000000E+00 -0.62590191829E+03  0.62590191829E+03  0.00000000000E+00 0. -1.
        -24    2    1    2    0    0 -0.13610316400E+03 -0.13149610139E+03 -0.54545833725E+03  0.58293310672E+03  0.80441987267E+02 0.  0.
         25    2    1    2    0    0  0.40821525566E+02  0.20098795592E+03  0.23891295457E+03  0.33880756668E+03  0.12509441237E+03 0.  0.
         24    2    1    2    0    0  0.95281638430E+02 -0.69491854536E+02  0.42898536644E+03  0.45250314693E+03  0.82601119198E+02 0.  0.
        -11    1    5    5    0    0  0.65415104059E+02 -0.77254385990E+02  0.38922085378E+03  0.40216942824E+03  0.00000000000E+00 0.  1.
         12    1    5    5    0    0  0.29866534371E+02  0.77625314541E+01  0.39764512654E+02  0.50333718683E+02  0.00000000000E+00 0. -1.
         11    1    3    3    0    0 -0.12881037546E+03 -0.14261884992E+03 -0.50415028186E+03  0.53953661217E+03  0.00000000000E+00 0. -1.
        -12    1    3    3    0    0 -0.72927885321E+01  0.11122748529E+02 -0.41308055388E+02  0.43396494551E+02  0.00000000000E+00 0.  1.
          5    1    4    4  501    0  0.48011199389E+02  0.12274611845E+03  0.63092610249E+02  0.14618424926E+03  0.41800000000E+01 0.  1.
         -5    1    4    4    0  501 -0.71896738230E+01  0.78241837467E+02  0.17582034432E+03  0.19262331743E+03  0.41800000000E+01 0.  1.
</event>
<event>
11    1  0.8864208E-009  0.1946919E+03  0.7561462E-02  0.1058342E+00
         22   -1    0    0    0    0  0.00000000000E+00  0.00000000000E+00  0.14495149636E+04  0.14495149636E+04  0.00000000000E+00 0. -1.
         22   -1    0    0    0    0 -0.00000000000E+00 -0.00000000000E+00 -0.14172172386E+04  0.14172172386E+04  0.00000000000E+00 0. -1.
         24    2    1    2    0    0  0.68879655839E+02 -0.37032101779E+02 -0.13590928695E+04  0.13637150576E+04  0.80433493591E+02 0.  0.
         25    2    1    2    0    0  0.73091165048E+01  0.16544305568E+03  0.16530803912E+03  0.26532752883E+03  0.12508845631E+03 0.  0.
        -24    2    1    2    0    0 -0.76188772344E+02 -0.12841095390E+03  0.12260825554E+04  0.12376896158E+04  0.79391752658E+02 0.  0.
        -13    1    3    3    0    0  0.10245570005E+02  0.16574545822E+02 -0.87525716585E+02  0.89668491331E+02  0.00000000000E+00 0.  1.
         14    1    3    3    0    0  0.58634085835E+02 -0.53606647601E+02 -0.12715671529E+04  0.12740465662E+04  0.00000000000E+00 0. -1.
         11    1    5    5    0    0 -0.59255291530E+02 -0.38752121670E+02  0.36636978151E+03  0.37314840655E+03  0.00000000000E+00 0. -1.
        -12    1    5    5    0    0 -0.16933480814E+02 -0.89658832227E+02  0.85971277384E+03  0.86454120924E+03  0.00000000000E+00 0.  1.
          5    1    4    4  501    0  0.50021140473E+02  0.33165526130E+02  0.18114686999E+02  0.62830572994E+02  0.41800000000E+01 0.  1.
         -5    1    4    4    0  501 -0.42712023968E+02  0.13227752955E+03  0.14719335212E+03  0.20249695584E+03  0.41800000000E+01 0.  1.
</event>
<event>
11    1  0.8864208E-009  0.1522174E+03  0.7561462E-02  0.1094634E+00
         22   -1    0    0    0    0  0.00000000000E+00  0.00000000000E+00  0.89549018829E+03  0.89549018829E+03  0.00000000000E+00 0.  1.
         22   -1    0    0    0    0 -0.00000000000E+00 -0.00000000000E+00 -0.34746768891E+03  0.34746768891E+03  0.00000000000E+00 0. -1.
        -24    2    1    2    0    0  0.79946812787E+02  0.23291263181E+02 -0.18513015507E+03  0.21829692543E+03  0.80289460828E+02 0.  0.
         25    2    1    2    0    0 -0.80984230147E+02 -0.59211485446E+02 -0.98637681463E+02  0.18825240384E+03  0.12508049331E+03 0.  0.
         24    2    1    2    0    0  0.10374173599E+01  0.35920222266E+02  0.83179033592E+03  0.83640854793E+03  0.80079694832E+02 0.  0.
        -11    1    5    5    0    0  0.27526863043E+02 -0.41104546849E-04  0.58280386253E+03  0.58345357174E+03  0.00000000000E+00 0.  1.
         12    1    5    5    0    0 -0.26489445683E+02  0.35920263370E+02  0.24898647339E+03  0.25295497620E+03  0.00000000000E+00 0. -1.
         11    1    3    3    0    0  0.70822123519E+02 -0.17336494825E+02 -0.10275677819E+03  0.12599715353E+03  0.00000000000E+00 0. -1.
        -12    1    3    3    0    0  0.91246892683E+01  0.40627758006E+02 -0.82373376877E+02  0.92299771901E+02  0.00000000000E+00 0.  1.
          5    1    4    4  501    0  0.24907992840E+02 -0.44415812153E+02 -0.47074010023E+02  0.69473788555E+02  0.41800000000E+01 0. -1.
         -5    1    4    4    0  501 -0.10589222299E+03 -0.14795673293E+02 -0.51563671439E+02  0.11877861529E+03  0.41800000000E+01 0. -1.
</event>
<event>
11    1  0.1062921E-008  0.1733689E+03  0.7561462E-02  0.1075137E+00
         22   -1    0    0    0    0  0.00000000000E+00  0.00000000000E+00  0.89645138421E+03  0.89645138421E+03  0.00000000000E+00 0.  1.
         22   -1    0    0    0    0 -0.00000000000E+00 -0.00000000000E+00 -0.73121002819E+03  0.73121002819E+03  0.00000000000E+00 0. -1.
        -24    2    1    2    0    0 -0.78818016423E+02 -0.25094653870E+02 -0.63295476020E+03  0.64338700254E+03  0.80455485918E+02 0.  0.
         25    2    1    2    0    0  0.67717549737E+01  0.12330013193E+03  0.30784702578E+01  0.17580147890E+03  0.12509158167E+03 0.  0.
         24    2    1    2    0    0  0.72046261449E+02 -0.98205478061E+02  0.79511764595E+03  0.80847293096E+03  0.81126009878E+02 0.  0.
        -13    1    5    5    0    0  0.71800450900E+02 -0.34945735175E+02  0.52555887968E+03  0.53159067446E+03  0.00000000000E+00 0.  1.
         14    1    5    5    0    0  0.24581054940E+00 -0.63259742886E+02  0.26955876627E+03  0.27688225650E+03  0.00000000000E+00 0. -1.
         11    1    3    3    0    0 -0.41728043493E+02 -0.50705940199E+02 -0.45963197072E+03  0.46429933286E+03  0.00000000000E+00 0. -1.
        -12    1    3    3    0    0 -0.37089972930E+02  0.25611286329E+02 -0.17332278947E+03  0.17908766968E+03  0.00000000000E+00 0.  1.
          5    1    4    4  501    0 -0.81901904872E+01  0.34433377058E+02  0.59528105629E+02  0.69381585710E+02  0.41800000000E+01 0.  1.
         -5    1    4    4    0  501  0.14961945461E+02  0.88866754872E+02 -0.56449635372E+02  0.10641989319E+03  0.41800000000E+01 0.  1.
</event>
<event>
11    1  0.8864208E-009  0.1576123E+03  0.7561462E-02  0.1089345E+00
         22   -1    0    0    0    0  0.00000000000E+00  0.00000000000E+00  0.45258514038E+03  0.45258514038E+03  0.00000000000E+00 0.  1.
         22   -1    0    0    0    0 -0.00000000000E+00 -0.00000000000E+00 -0.22478965911E+03  0.22478965911E+03  0.00000000000E+00 0. -1.
         24    2    1    2    0    0  0.27312985698E+02 -0.17891868469E+02 -0.14624927261E+03  0.17063391557E+03  0.81614736760E+02 0.  0.
         25    2    1    2    0    0  0.36044708828E+02 -0.61617892734E+02  0.42292066940E+02  0.15011589282E+03  0.12510066592E+03 0.  0.
        -24    2    1    2    0    0 -0.63357694525E+02  0.79509761203E+02  0.33175268695E+03  0.35662499110E+03  0.82374385588E+02 0.  0.
        -13    1    3    3    0    0 -0.38019201415E+01 -0.35307330995E+02 -0.22949287584E+02  0.42281580143E+02  0.00000000000E+00 0.  1.
         14    1    3    3    0    0  0.31114905839E+02  0.17415462526E+02 -0.12329998503E+03  0.12835233542E+03  0.00000000000E+00 0. -1.
         11    1    5    5    0    0 -0.11612893849E+02 -0.40480918063E-01  0.15981825449E+03  0.16023961872E+03  0.00000000000E+00 0. -1.
        -12    1    5    5    0    0 -0.51744800676E+02  0.79550242121E+02  0.17193443246E+03  0.19638537238E+03  0.00000000000E+00 0.  1.
          5    1    4    4  501    0  0.79148444329E+01  0.32381334196E+02 -0.14587777413E+02  0.36626100210E+02  0.41800000000E+01 0.  1.
         -5    1    4    4    0  501  0.28129864395E+02 -0.93999226930E+02  0.56879844352E+02  0.11348979262E+03  0.41800000000E+01 0.  1.
</event>
<event>
11    1  0.8864208E-009  0.1260696E+03  0.7561462E-02  0.1124195E+00
         22   -1    0    0    0    0  0.00000000000E+00  0.00000000000E+00  0.18871289166E+04  0.18871289166E+04  0.00000000000E+00 0.  1.
         22   -1    0    0    0    0 -0.00000000000E+00 -0.00000000000E+00 -0.94994270532E+02  0.94994270532E+02  0.00000000000E+00 0. -1.
        -24    2    1    2    0    0  0.10519572160E+02 -0.10366012274E+02 -0.58420431594E+02  0.10296582949E+03  0.83491913415E+02 0.  0.
         25    2    1    2    0    0 -0.12903684715E+02  0.27151160138E+02  0.30158407223E+03  0.32787880011E+03  0.12509142403E+03 0.  0.
         24    2    1    2    0    0  0.23841125553E+01 -0.16785147865E+02  0.15489710054E+04  0.15512785575E+04  0.82864722232E+02 0.  0.
        -13    1    5    5    0    0 -0.34890148415E+02 -0.22803103106E+02  0.54216706224E+03  0.54376688695E+03  0.00000000000E+00 0.  1.
         14    1    5    5    0    0  0.37274260971E+02  0.60179552416E+01  0.10068039432E+04  0.10075116706E+04  0.00000000000E+00 0. -1.
         13    1    3    3    0    0  0.55324900816E+01 -0.40695798307E+01 -0.79816670990E+02  0.80111615228E+02  0.00000000000E+00 0. -1.
        -14    1    3    3    0    0  0.49870820785E+01 -0.62964324429E+01  0.21396239396E+02  0.22854214260E+02  0.00000000000E+00 0.  1.
          5    1    4    4  501    0  0.16313931042E+02  0.71835786235E+02  0.15115535012E+03  0.16820207133E+03  0.41800000000E+01 0. -1.
         -5    1    4    4    0  501 -0.29217615758E+02 -0.44684626096E+02  0.15042872210E+03  0.15967672878E+03  0.41800000000E+01 0. -1.
</event>
<event>
11    1  0.8864208E-009  0.1315110E+03  0.7561462E-02  0.1117426E+00
         22   -1    0    0    0    0  0.00000000000E+00  0.00000000000E+00  0.67733524357E+03  0.67733524357E+03  0.00000000000E+00 0. -1.
         22   -1    0    0    0    0 -0.00000000000E+00 -0.00000000000E+00 -0.83574889319E+02  0.83574889319E+02  0.00000000000E+00 0. -1.
         24    2    1    2    0    0 -0.82377960851E+01  0.24333352131E+02 -0.40779704064E+01  0.81374995043E+02  0.77105685039E+02 0.  0.
         25    2    1    2    0    0 -0.22604745266E+02 -0.49298349105E+02  0.88743666739E+02  0.16267836445E+03  0.12509000816E+03 0.  0.
        -24    2    1    2    0    0  0.30842541351E+02  0.24964996973E+02  0.50909465792E+03  0.51685677340E+03  0.79931470981E+02 0.  0.
        -11    1    3    3    0    0  0.83962679007E+01  0.29753211920E+02  0.29993843409E+02  0.43074140463E+02  0.00000000000E+00 0.  1.
         12    1    3    3    0    0 -0.16634063986E+02 -0.54198597884E+01 -0.34071813816E+02  0.38300854579E+02  0.00000000000E+00 0. -1.
         13    1    5    5    0    0 -0.15339473261E+02  0.23109358953E+02  0.35234334710E+03  0.35343341121E+03  0.00000000000E+00 0. -1.
        -14    1    5    5    0    0  0.46182014612E+02  0.18556380201E+01  0.15675131082E+03  0.16342336219E+03  0.00000000000E+00 0.  1.
          5    1    4    4  501    0 -0.56687952994E+02 -0.49219319262E+02  0.88391028089E+01  0.75707777287E+02  0.41800000000E+01 0. -1.
         -5    1    4    4    0  501  0.34083207728E+02 -0.79029842375E-01  0.79904563930E+02  0.86970587163E+02  0.41800000000E+01 0. -1.
</event>
<event>
11    1  0.8864208E-009  0.1386203E+03  0.7561462E-02  0.1109109E+00
         22   -1    0    0    0    0  0.00000000000E+00  0.00000000000E+00  0.43849463492E+03  0.43849463492E+03  0.00000000000E+00 0.  1.
         22   -1    0    0    0    0 -0.00000000000E+00 -0.00000000000E+00 -0.13186601383E+04  0.13186601383E+04  0.00000000000E+00 0.  1.
        -24    2    1    2    0    0  0.20298156259E+02 -0.23164115906E+02 -0.11887909978E+04  0.11919369230E+04  0.80876453236E+02 0.  0.
         25    2    1    2    0    0 -0.66877081386E+02 -0.14090413117E+02 -0.80336694222E+02  0.16362375979E+03  0.12509063343E+03 0.  0.
         24    2    1    2    0    0  0.46578925127E+02  0.37254529023E+02  0.38896218857E+03  0.40159409044E+03  0.80179381030E+02 0.  0.
        -13    1    5    5    0    0  0.12953367993E+02  0.10721336146E+02  0.31980442834E+03  0.32024616965E+03  0.00000000000E+00 0.  1.
         14    1    5    5    0    0  0.33625557134E+02  0.26533192877E+02  0.69157760229E+02  0.81347920789E+02  0.00000000000E+00 0. -1.
         13    1    3    3    0    0  0.22040790858E+02  0.20102923095E+02 -0.20144936182E+03  0.20364618670E+03  0.00000000000E+00 0. -1.
        -14    1    3    3    0    0 -0.17426345988E+01 -0.43267039001E+02 -0.98734163594E+03  0.98829073633E+03  0.00000000000E+00 0.  1.
          5    1    4    4  501    0 -0.59020192584E+02 -0.30337121432E+02  0.13607848766E+02  0.67870243976E+02  0.41800000000E+01 0.  1.
         -5    1    4    4    0  501 -0.78568888027E+01  0.16246708315E+02 -0.93944542988E+02  0.95753515810E+02  0.41800000000E+01 0.  1.
</event>
<event>
11    1  0.8864208E-009  0.1339781E+03  0.7561462E-02  0.1114476E+00
         22   -1    0    0    0    0  0.00000000000E+00  0.00000000000E+00  0.41247128146E+04  0.41247128146E+04  0.00000000000E+00 0. -1.
         22   -1    0    0    0    0 -0.00000000000E+00 -0.00000000000E+00 -0.30077983079E+02  0.30077983079E+02  0.00000000000E+00 0. -1.
        -24    2    1    2    0    0  0.37733067524E+02 -0.26077353353E+02  0.68453225263E+02  0.11470038037E+03  0.79790478545E+02 0.  0.
         25    2    1    2    0    0 -0.58834612650E+02  0.30820617394E+02  0.77370983225E+03  0.78656608548E+03  0.12509148734E+03 0.  0.
         24    2    1    2    0    0  0.21101545126E+02 -0.47432640407E+01  0.32524717740E+04  0.32535243318E+04  0.79875924434E+02 0.  0.
        -13    1    5    5    0    0  0.50460212668E+02 -0.75876756767E+01  0.16758940207E+04  0.16766706816E+04  0.00000000000E+00 0.  1.
         14    1    5    5    0    0 -0.29358667542E+02  0.28444116361E+01  0.15765777533E+04  0.15768536502E+04  0.00000000000E+00 0. -1.
         11    1    3    3    0    0  0.20119274886E+02  0.36299955480E+01 -0.14353781934E+02  0.24979854792E+02  0.00000000000E+00 0. -1.
        -12    1    3    3    0    0  0.17613792638E+02 -0.29707348901E+02  0.82807007197E+02  0.89720525582E+02  0.00000000000E+00 0.  1.
          5    1    4    4  501    0 -0.60215686253E+02 -0.38477353808E+02  0.35617619380E+03  0.36329793429E+03  0.41800000000E+01 0.  1.
         -5    1    4    4    0  501  0.13810736035E+01  0.69297971201E+02  0.41753363845E+03  0.42326815120E+03  0.41800000000E+01 0.  1.
</event>
<event>
11    1  0.8864208E-009  0.1379458E+03  0.7561462E-02  0.1109874E+00
         22   -1    0    0    0    0  0.00000000000E+00  0.00000000000E+00  0.11152971010E+04  0.11152971010E+04  0.00000000000E+00 0.  1.
         22   -1    0    0    0    0 -0.00000000000E+00 -0.00000000000E+00 -0.51077422684E+03  0.51077422684E+03  0.00000000000E+00 0. -1.
         24    2    1    2    0    0 -0.25028813343E+01 -0.58528404586E+02 -0.48571498435E+03  0.49754077154E+03  0.90531402115E+02 0.  0.
         25    2    1    2    0    0  0.76326464345E+01  0.39367775285E+02  0.23404968224E+03  0.26839397946E+03  0.12509194791E+03 0.  0.
        -24    2    1    2    0    0 -0.51297651001E+01  0.19160629300E+02  0.85618817627E+03  0.86013657684E+03  0.79895515651E+02 0.  0.
        -13    1    3    3    0    0  0.39346966731E+02 -0.18074900258E+02 -0.12810550975E+03  0.13522539495E+03  0.00000000000E+00 0.  1.
         14    1    3    3    0    0 -0.41849848066E+02 -0.40453504328E+02 -0.35760947460E+03  0.36231537659E+03  0.00000000000E+00 0. -1.
         11    1    5    5    0    0 -0.27613485147E+01  0.13082682648E+02  0.20825266855E+02  0.24748199338E+02  0.00000000000E+00 0. -1.
        -12    1    5    5    0    0 -0.23684165854E+01  0.60779466529E+01  0.83536290942E+03  0.83538837750E+03  0.00000000000E+00 0.  1.
          5    1    4    4  501    0 -0.35098145672E+02  0.34922802937E+02  0.21594279682E+03  0.22158575291E+03  0.41800000000E+01 0. -1.
         -5    1    4    4    0  501  0.42730792107E+02  0.44449723486E+01  0.18106885424E+02  0.46808226553E+02  0.41800000000E+01 0. -1.
</event>
<event>
11    1  0.8864208E-009  0.2434900E+03  0.7561462E-02  0.1027425E+00
         22   -1    0    0    0    0  0.00000000000E+00  0.00000000000E+00  0.29834293544E+03  0.29834293544E+03  0.00000000000E+00 0. -1.
         22   -1    0    0    0    0 -0.00000000000E+00 -0.00000000000E+00 -0.11105098688E+04  0.11105098688E+04  0.00000000000E+00 0. -1.
        -24    2    1    2    0    0  0.22412334006E+02 -0.50900891235E+02 -0.36169326235E+03  0.37441678785E+03  0.79200388580E+02 0.  0.
         25    2    1    2    0    0  0.16456788949E+03 -0.48196083336E+02 -0.67987950923E+03  0.71224236354E+03  0.12509030598E+03 0.  0.
         24    2    1    2    0    0 -0.18698022350E+03  0.99096974571E+02  0.22940583824E+03  0.32219365284E+03  0.79999356022E+02 0.  0.
        -13    1    5    5    0    0 -0.54746316276E+02 -0.72851900884E+01  0.42169077208E+02  0.69487151424E+02  0.00000000000E+00 0.  1.
         14    1    5    5    0    0 -0.13223390722E+03  0.10638216466E+03  0.18723676103E+03  0.25270650142E+03  0.00000000000E+00 0. -1.
         11    1    3    3    0    0  0.36610297767E+02 -0.60783946346E+02 -0.33621172286E+03  0.34361799229E+03  0.00000000000E+00 0. -1.
        -12    1    3    3    0    0 -0.14197963761E+02  0.98830551115E+01 -0.25481539487E+02  0.30798795559E+02  0.00000000000E+00 0.  1.
          5    1    4    4  501    0  0.17308187071E+03 -0.33470268359E+02 -0.47602214280E+03  0.50763386970E+03  0.41800000000E+01 0. -1.
         -5    1    4    4    0  501 -0.85139812173E+01 -0.14725814977E+02 -0.20385736643E+03  0.20460849384E+03  0.41800000000E+01 0. -1.
</event>
<event>
11    1  0.8864208E-009  0.1366278E+03  0.7561462E-02  0.1111384E+00
         22   -1    0    0    0    0  0.00000000000E+00  0.00000000000E+00  0.36815270878E+03  0.36815270878E+03  0.00000000000E+00 0. -1.
         22   -1    0    0    0    0 -0.00000000000E+00 -0.00000000000E+00 -0.25669537268E+04  0.25669537268E+04  0.00000000000E+00 0. -1.
        -24    2    1    2    0    0  0.48133878839E+01  0.54386286163E+02 -0.24627038604E+04  0.24643756468E+04  0.72498189158E+02 0.  0.
         25    2    1    2    0    0 -0.27524249994E+02 -0.76660598499E+02 -0.40351597177E+02  0.15463018676E+03  0.12509121298E+03 0.  0.
         24    2    1    2    0    0  0.22710862110E+02  0.22274312336E+02  0.30425443956E+03  0.31610060205E+03  0.79604637921E+02 0.  0.
        -11    1    5    5    0    0 -0.12227368288E+02 -0.20716713427E+02  0.45345063373E+02  0.51330941184E+02  0.00000000000E+00 0.  1.
         12    1    5    5    0    0  0.34938230398E+02  0.42991025764E+02  0.25890937619E+03  0.26476966087E+03  0.00000000000E+00 0. -1.
         13    1    3    3    0    0 -0.26759048431E+02  0.22056549854E+02 -0.16871903010E+04  0.16875466363E+04  0.00000000000E+00 0. -1.
        -14    1    3    3    0    0  0.31572436315E+02  0.32329736309E+02 -0.77551355945E+03  0.77682901045E+03  0.00000000000E+00 0.  1.
          5    1    4    4  501    0 -0.58801430907E+02 -0.63945598192E+02 -0.68313346567E+02  0.11059309890E+03  0.41800000000E+01 0. -1.
         -5    1    4    4    0  501  0.31277180913E+02 -0.12715000307E+02  0.27961749390E+02  0.44037087866E+02  0.41800000000E+01 0. -1.
</event>
<event>
11    1  0.8864208E-009  0.1500744E+03  0.7561462E-02  0.1096803E+00
         22   -1    0    0    0    0  0.00000000000E+00  0.00000000000E+00  0.12716341675E+04  0.12716341675E+04  0.00000000000E+00 0. -1.
         22   -1    0    0    0    0 -0.00000000000E+00 -0.00000000000E+00 -0.95741437011E+02  0.95741437011E+02  0.00000000000E+00 0.  1.
        -24    2    1    2    0    0 -0.52412292679E+02  0.77594322216E+02  0.16686957274E+02  0.12557269357E+03  0.81988533118E+02 0.  0.
         25    2    1    2    0    0  0.30765265337E+02 -0.56455325016E+02  0.85226657269E+02  0.16445485342E+03  0.12509240757E+03 0.  0.
         24    2    1    2    0    0  0.21647027342E+02 -0.21138997201E+02  0.10739791160E+04  0.10773480576E+04  0.79575401699E+02 0.  0.
        -13    1    5    5    0    0  0.76410046499E+01 -0.18654184436E+02  0.60517287203E+02  0.63786406070E+02  0.00000000000E+00 0.  1.
         14    1    5    5    0    0  0.14006022692E+02 -0.24848127648E+01  0.10134618288E+04  0.10135616515E+04  0.00000000000E+00 0. -1.
         13    1    3    3    0    0  0.32307765099E+00  0.34301858943E+02  0.40711865853E+02  0.53236997731E+02  0.00000000000E+00 0. -1.
        -14    1    3    3    0    0 -0.52735370330E+02  0.43292463273E+02 -0.24024908579E+02  0.72335695838E+02  0.00000000000E+00 0.  1.
          5    1    4    4  501    0  0.48060991701E+02 -0.38003159686E+02  0.11178476826E+03  0.12754374107E+03  0.41800000000E+01 0. -1.
         -5    1    4    4    0  501 -0.17295726364E+02 -0.18452165329E+02 -0.26558110996E+02  0.36911112357E+02  0.41800000000E+01 0. -1.
</event>
<event>
11    1  0.9577112E-009  0.1627048E+03  0.7561462E-02  0.1084561E+00
         22   -1    0    0    0    0  0.00000000000E+00  0.00000000000E+00  0.17981099393E+03  0.17981099393E+03  0.00000000000E+00 0.  1.
         22   -1    0    0    0    0 -0.00000000000E+00 -0.00000000000E+00 -0.20610792574E+04  0.20610792574E+04  0.00000000000E+00 0. -1.
         24    2    1    2    0    0  0.56317490225E+02 -0.21154164311E+02 -0.15987868956E+04  0.16020765704E+04  0.83130267459E+02 0.  0.
         25    2    1    2    0    0  0.46213688774E+02  0.51062513698E+02 -0.42230694974E+03  0.44579545396E+03  0.12508933463E+03 0.  0.
        -24    2    1    2    0    0 -0.10253117900E+03 -0.29908349387E+02  0.13982558184E+03  0.19301822704E+03  0.79357990150E+02 0.  0.
        -13    1    3    3    0    0  0.92317166980E+01  0.22950053969E+02 -0.16551041336E+03  0.16734881685E+03  0.00000000000E+00 0.  1.
         14    1    3    3    0    0  0.47085773527E+02 -0.44104218280E+02 -0.14332764823E+04  0.14347277535E+04  0.00000000000E+00 0. -1.
         11    1    5    5    0    0 -0.66838893710E+02 -0.26231883658E+02  0.30601150737E+02  0.78051136181E+02  0.00000000000E+00 0. -1.
        -12    1    5    5    0    0 -0.35692285289E+02 -0.36764657290E+01  0.10922443111E+03  0.11496709086E+03  0.00000000000E+00 0.  1.
          5    1    4    4  501    0  0.35752600375E+02 -0.16171309156E+02 -0.32264111080E+03  0.32504540983E+03  0.41800000000E+01 0.  1.
         -5    1    4    4    0  501  0.10461088399E+02  0.67233822854E+02 -0.99665838940E+02  0.12075004413E+03  0.41800000000E+01 0.  1.
</event>
<event>
11    1  0.8864208E-009  0.1415615E+03  0.7561462E-02  0.1105827E+00
         22   -1    0    0    0    0  0.00000000000E+00  0.00000000000E+00  0.18463716434E+04  0.18463716434E+04  0.00000000000E+00 0. -1.
         22   -1    0    0    0    0 -0.00000000000E+00 -0.00000000000E+00 -0.88901976372E+02  0.88901976372E+02  0.00000000000E+00 0. -1.
         24    2    1    2    0    0 -0.31327917919E+01  0.64564071098E+01 -0.54715774247E+02  0.96291501112E+02  0.78909680380E+02 0.  0.
         25    2    1    2    0    0 -0.11859835458E+02  0.59070125648E+02  0.40496585685E+03  0.42810712583E+03  0.12509368702E+03 0.  0.
        -24    2    1    2    0    0  0.14992627250E+02 -0.65526532758E+02  0.14072195844E+04  0.14108749928E+04  0.76044600274E+02 0.  0.
        -13    1    3    3    0    0 -0.40539053425E+02  0.35085797797E+01 -0.36141267845E+02  0.54423489654E+02  0.00000000000E+00 0.  1.
         14    1    3    3    0    0  0.37406261633E+02  0.29478273301E+01 -0.18574506402E+02  0.41868011458E+02  0.00000000000E+00 0. -1.
         11    1    5    5    0    0  0.34641429901E+02 -0.34989981922E+02  0.11556320436E+04  0.11566804865E+04  0.00000000000E+00 0. -1.
        -12    1    5    5    0    0 -0.19648802651E+02 -0.30536550836E+02  0.25158754077E+03  0.25419450634E+03  0.00000000000E+00 0.  1.
          5    1    4    4  501    0 -0.50472441511E+02  0.79968541663E+02  0.26914737255E+03  0.28530723012E+03  0.41800000000E+01 0. -1.
         -5    1    4    4    0  501  0.38612606053E+02 -0.20898416015E+02  0.13581848430E+03  0.14279989571E+03  0.41800000000E+01 0. -1.
</event>
<event>
11    1  0.8864208E-009  0.1974764E+03  0.7561462E-02  0.1056323E+00
         22   -1    0    0    0    0  0.00000000000E+00  0.00000000000E+00  0.27221647838E+04  0.27221647838E+04  0.00000000000E+00 0.  1.
         22   -1    0    0    0    0 -0.00000000000E+00 -0.00000000000E+00 -0.27788883571E+03  0.27788883571E+03  0.00000000000E+00 0. -1.
        -24    2    1    2    0    0 -0.20516784075E+02  0.39828906999E+02 -0.14931830898E+03  0.17530880532E+03  0.80186903944E+02 0.  0.
         25    2    1    2    0    0  0.57122491427E+02 -0.18710854382E+03  0.68737535160E+01  0.23228333733E+03  0.12504284912E+03 0.  0.
         24    2    1    2    0    0 -0.36605707351E+02  0.14727963682E+03  0.25867205036E+04  0.25924614769E+04  0.81867431521E+02 0.  0.
        -13    1    5    5    0    0 -0.60054059086E+02  0.12545184555E+03  0.19649888434E+04  0.19699050257E+04  0.00000000000E+00 0.  1.
         14    1    5    5    0    0  0.23448351734E+02  0.21827791270E+02  0.62173166020E+03  0.62255645123E+03  0.00000000000E+00 0. -1.
         13    1    3    3    0    0 -0.29035220676E+02  0.61727627125E+02 -0.11520174142E+03  0.13388347627E+03  0.00000000000E+00 0. -1.
        -14    1    3    3    0    0  0.85184366005E+01 -0.21898720126E+02 -0.34116567553E+02  0.41425329049E+02  0.00000000000E+00 0.  1.
          5    1    4    4  501    0  0.24734367933E+02 -0.14746174064E+03 -0.48026446474E+02  0.15710113262E+03  0.41800000000E+01 0.  1.
         -5    1    4    4    0  501  0.32388123494E+02 -0.39646803180E+02  0.54900199990E+02  0.75182204708E+02  0.41800000000E+01 0.  1.
</event>
<event>
11    1  0.8864208E-009  0.1300776E+03  0.7561462E-02  0.1119174E+00
         22   -1    0    0    0    0  0.00000000000E+00  0.00000000000E+00  0.34112343447E+03  0.34112343447E+03  0.00000000000E+00 0.  1.
         22   -1    0    0    0    0 -0.00000000000E+00 -0.00000000000E+00 -0.10215182023E+03  0.10215182023E+03  0.00000000000E+00 0.  1.
         24    2    1    2    0    0  0.14888407165E+02 -0.38117406128E+02 -0.17744925372E+02  0.90983469765E+02  0.79300113974E+02 0.  0.
         25    2    1    2    0    0 -0.14927905558E+02  0.16266990162E+02  0.64821723252E+02  0.14260698967E+03  0.12508972925E+03 0.  0.
        -24    2    1    2    0    0  0.39498393104E-01  0.21850415966E+02  0.19189481636E+03  0.20968479526E+03  0.81649559601E+02 0.  0.
        -13    1    3    3    0    0  0.28007670894E+02 -0.55939376789E+02  0.93291521477E-01  0.62559189634E+02  0.00000000000E+00 0.  1.
         14    1    3    3    0    0 -0.13119263729E+02  0.17821970661E+02 -0.17838216893E+02  0.28424280131E+02  0.00000000000E+00 0. -1.
         13    1    5    5    0    0  0.26634777284E+02  0.29173839587E+02  0.43551376462E+02  0.58798356006E+02  0.00000000000E+00 0. -1.
        -14    1    5    5    0    0 -0.26595278891E+02 -0.73234236212E+01  0.14834343989E+03  0.15088643926E+03  0.00000000000E+00 0.  1.
          5    1    4    4  501    0  0.44844348347E+02 -0.11203107006E+02  0.60908628603E+02  0.76575835768E+02  0.41800000000E+01 0.  1.
         -5    1    4    4    0  501 -0.59772253905E+02  0.27470097168E+02  0.39130946493E+01  0.66031153897E+02  0.41800000000E+01 0.  1.
</event>
<event>
11    1  0.8864208E-009  0.1312503E+03  0.7561462E-02  0.1117742E+00
         22   -1    0    0    0    0  0.00000000000E+00  0.00000000000E+00  0.38984528200E+03  0.38984528200E+03  0.00000000000E+00 0.  1.
         22   -1    0    0    0    0 -0.00000000000E+00 -0.00000000000E+00 -0.38175854151E+03  0.38175854151E+03  0.00000000000E+00 0.  1.
         24    2    1    2    0    0 -0.36789044066E+02  0.57124171969E+01 -0.27698017099E+03  0.28988995232E+03  0.77020152290E+02 0.  0.
         25    2    1    2    0    0  0.60528726576E+02 -0.67146363595E+00 -0.41059843753E+02  0.14490232431E+03  0.12508635104E+03 0.  0.
        -24    2    1    2    0    0 -0.23739682510E+02 -0.50409535610E+01  0.32612675523E+03  0.33681154688E+03  0.80587678310E+02 0.  0.
        -11    1    3    3    0    0  0.12616453903E+02 -0.13259443320E+02 -0.16524005798E+03  0.16625060754E+03  0.00000000000E+00 0.  1.
         12    1    3    3    0    0 -0.49405497970E+02  0.18971860517E+02 -0.11174011301E+03  0.12363934477E+03  0.00000000000E+00 0. -1.
         13    1    5    5    0    0 -0.39619777278E+02  0.30521459168E+01  0.73477106115E+02  0.83533989904E+02  0.00000000000E+00 0. -1.
        -14    1    5    5    0    0  0.15880094768E+02 -0.80930994778E+01  0.25264964912E+03  0.25327755698E+03  0.00000000000E+00 0.  1.
          5    1    4    4  501    0  0.64534564374E+01  0.48762535465E+02 -0.50846322235E+02  0.70867854841E+02  0.41800000000E+01 0. -1.
         -5    1    4    4    0  501  0.54075270139E+02 -0.49433999101E+02  0.97864784822E+01  0.74034469464E+02  0.41800000000E+01 0. -1.
</event>
<event>
11    1  0.8864208E-009  0.1462849E+03  0.7561462E-02  0.1100736E+00
         22   -1    0    0    0    0  0.00000000000E+00  0.00000000000E+00  0.26733377865E+04  0.26733377865E+04  0.00000000000E+00 0. -1.
         22   -1    0    0    0    0 -0.00000000000E+00 -0.00000000000E+00 -0.59573625523E+02  0.59573625523E+02  0.00000000000E+00 0. -1.
         24    2    1    2    0    0  0.19676011582E+02 -0.72833367675E+02  0.10567401118E+02  0.11073373973E+03  0.80364458998E+02 0.  0.
         25    2    1    2    0    0 -0.35500063839E+02  0.73218035862E+02  0.63357417735E+03  0.65091041967E+03  0.12508797271E+03 0.  0.
        -24    2    1    2    0    0  0.15824052257E+02 -0.38466818638E+00  0.19696225825E+04  0.19712672526E+04  0.78936145953E+02 0.  0.
        -11    1    3    3    0    0  0.26194288654E+01 -0.25215368885E+02  0.43520411758E+02  0.50365687478E+02  0.00000000000E+00 0.  1.
         12    1    3    3    0    0  0.17056582717E+02 -0.47617998791E+02 -0.32953010639E+02  0.60368052254E+02  0.00000000000E+00 0. -1.
         11    1    5    5    0    0  0.26618536878E+02 -0.10266815017E+02  0.18954486549E+04  0.18956633555E+04  0.00000000000E+00 0. -1.
        -12    1    5    5    0    0 -0.10794484620E+02  0.98821468307E+01  0.74173927526E+02  0.75603897048E+02  0.00000000000E+00 0.  1.
          5    1    4    4  501    0 -0.70586643789E+02  0.84624261023E+02  0.51431509475E+03  0.52600497044E+03  0.41800000000E+01 0. -1.
         -5    1    4    4    0  501  0.35086579950E+02 -0.11406225161E+02  0.11925908260E+03  0.12490544923E+03  0.41800000000E+01 0. -1.
</event>
<event>
11    1  0.8864208E-009  0.1883682E+03  0.7561462E-02  0.1063068E+00
         22   -1    0    0    0    0  0.00000000000E+00  0.00000000000E+00  0.67552906356E+03  0.67552906356E+03  0.00000000000E+00 0. -1.
         22   -1    0    0    0    0 -0.00000000000E+00 -0.00000000000E+00 -0.16012739382E+04  0.16012739382E+04  0.00000000000E+00 0. -1.
        -24    2    1    2    0    0  0.49469363452E+02  0.12292166129E+03 -0.14133571720E+04  0.14218504277E+04  0.80766269472E+02 0.  0.
         25    2    1    2    0    0 -0.15784019993E+03 -0.20176747713E+03 -0.54920497752E+02  0.29032230974E+03  0.12508852432E+03 0.  0.
         24    2    1    2    0    0  0.10837083648E+03  0.78845815849E+02  0.54253279512E+03  0.56463026434E+03  0.80651105081E+02 0.  0.
        -13    1    5    5    0    0  0.55254213641E+02  0.45157376874E+01  0.30766615228E+03  0.31262098661E+03  0.00000000000E+00 0.  1.
         14    1    5    5    0    0  0.53116622840E+02  0.74330078162E+02  0.23486664284E+03  0.25200927773E+03  0.00000000000E+00 0. -1.
         11    1    3    3    0    0  0.96141282343E+01  0.10425503167E+03 -0.11584935076E+04  0.11632148341E+04  0.00000000000E+00 0. -1.
        -12    1    3    3    0    0  0.39855235218E+02  0.18666629612E+02 -0.25486366437E+03  0.25863559356E+03  0.00000000000E+00 0.  1.
          5    1    4    4  501    0 -0.11392198010E+03 -0.47044084063E+02 -0.35061088821E+02  0.12821121537E+03  0.41800000000E+01 0.  1.
         -5    1    4    4    0  501 -0.43918219829E+02 -0.15472339307E+03 -0.19859408931E+02  0.16211109438E+03  0.41800000000E+01 0.  1.
</event>
<event>
11    1  0.8864208E-009  0.1362324E+03  0.7561462E-02  0.1111840E+00
         22   -1    0    0    0    0  0.00000000000E+00  0.00000000000E+00  0.48736647537E+03  0.48736647537E+03  0.00000000000E+00 0. -1.
         22   -1    0    0    0    0 -0.00000000000E+00 -0.00000000000E+00 -0.30615862318E+03  0.30615862318E+03  0.00000000000E+00 0. -1.
        -24    2    1    2    0    0  0.22339979506E+02  0.10921402705E+02 -0.17707215208E+03  0.19586418158E+03  0.79936717849E+02 0.  0.
         25    2    1    2    0    0 -0.30791776166E+02 -0.63553501706E+02 -0.69106019516E+02  0.15940482509E+03  0.12508826991E+03 0.  0.
         24    2    1    2    0    0  0.84517966601E+01  0.52632099001E+02  0.42738602378E+03  0.43825609188E+03  0.81043309625E+02 0.  0.
        -13    1    5    5    0    0 -0.23668460831E+02  0.36016152540E+02  0.10016845283E+03  0.10904622059E+03  0.00000000000E+00 0.  1.
         14    1    5    5    0    0  0.32120257491E+02  0.16615946461E+02  0.32721757095E+03  0.32920987130E+03  0.00000000000E+00 0. -1.
         13    1    3    3    0    0 -0.11195790908E+02  0.37511325150E+02 -0.10477229104E+03  0.11184667281E+03  0.00000000000E+00 0. -1.
        -14    1    3    3    0    0  0.33535770414E+02 -0.26589922445E+02 -0.72299861039E+02  0.84017508765E+02  0.00000000000E+00 0.  1.
          5    1    4    4  501    0  0.27534967464E+02 -0.12551599854E+02 -0.75601880113E+02  0.81540381216E+02  0.41800000000E+01 0.  1.
         -5    1    4    4    0  501 -0.58326743629E+02 -0.51001901853E+02  0.64958605969E+01  0.77864443875E+02  0.41800000000E+01 0.  1.
</event>
<event>
11    1  0.8864208E-009  0.1373125E+03  0.7561462E-02  0.1110597E+00
         22   -1    0    0    0    0  0.00000000000E+00  0.00000000000E+00  0.12209181600E+04  0.12209181600E+04  0.00000000000E+00 0.  1.
         22   -1    0    0    0    0 -0.00000000000E+00 -0.00000000000E+00 -0.55083677241E+02  0.55083677241E+02  0.00000000000E+00 0.  1.
         24    2    1    2    0    0 -0.29043187304E+02  0.21791798511E+02  0.37248803734E+02  0.95835262739E+02  0.80489347081E+02 0.  0.
         25    2    1    2    0    0 -0.28105109071E+02 -0.35943720663E+02  0.16794774919E+03  0.21432678708E+03  0.12509067507E+03 0.  0.
        -24    2    1    2    0    0  0.57148296375E+02  0.14151922152E+02  0.96063792985E+03  0.96583978744E+03  0.80963313025E+02 0.  0.
        -13    1    3    3    0    0  0.11986128989E+02  0.34638279189E+02 -0.32159821651E+01  0.36794295952E+02  0.00000000000E+00 0.  1.
         14    1    3    3    0    0 -0.41029316294E+02 -0.12846480678E+02  0.40464785899E+02  0.59040966787E+02  0.00000000000E+00 0. -1.
         13    1    5    5    0    0 -0.62541473189E+01 -0.14621364011E+02  0.48336439890E+02  0.50885263735E+02  0.00000000000E+00 0. -1.
        -14    1    5    5    0    0  0.63402443694E+02  0.28773286163E+02  0.91230148996E+03  0.91495452371E+03  0.00000000000E+00 0.  1.
          5    1    4    4  501    0  0.41111487333E+02 -0.19221181834E+02  0.19383558509E+02  0.49525780784E+02  0.41800000000E+01 0.  1.
         -5    1    4    4    0  501 -0.69216596403E+02 -0.16722538829E+02  0.14856419068E+03  0.16480100629E+03  0.41800000000E+01 0.  1.
</event>
<event>
11    1  0.8864208E-009  0.1385856E+03  0.7561462E-02  0.1109148E+00
         22   -1    0    0    0    0  0.00000000000E+00  0.00000000000E+00  0.84133775935E+03  0.84133775935E+03  0.00000000000E+00 0. -1.
         22   -1    0    0    0    0 -0.00000000000E+00 -0.00000000000E+00 -0.51324097431E+03  0.51324097431E+03  0.00000000000E+00 0. -1.
         24    2    1    2    0    0 -0.29683197710E+02 -0.29845433817E+01 -0.43536504235E+03  0.44624519128E+03  0.93284783930E+02 0.  0.
         25    2    1    2    0    0 -0.31284690946E+02  0.30697192516E+01 -0.89605061882E+01  0.12930755212E+03  0.12510794259E+03 0.  0.
        -24    2    1    2    0    0  0.60967888656E+02 -0.85175869831E-01  0.77242233358E+03  0.77902599026E+03  0.80796914471E+02 0.  0.
        -13    1    3    3    0    0 -0.51902342745E+02 -0.28606660541E+02 -0.20490806787E+03  0.21330614264E+03  0.00000000000E+00 0.  1.
         14    1    3    3    0    0  0.22219145036E+02  0.25622117159E+02 -0.23045697449E+03  0.23293904864E+03  0.00000000000E+00 0. -1.
         13    1    5    5    0    0  0.12440521026E+02 -0.31067839634E+02  0.46880417365E+03  0.46999716005E+03  0.00000000000E+00 0. -1.
        -14    1    5    5    0    0  0.48527367630E+02  0.30982663764E+02  0.30361815993E+03  0.30902883021E+03  0.00000000000E+00 0.  1.
          5    1    4    4  501    0 -0.49310540489E+02  0.54330912388E+02 -0.13111575347E+02  0.74650942742E+02  0.41800000000E+01 0. -1.
         -5    1    4    4    0  501  0.18025849543E+02 -0.51261193136E+02  0.41510691589E+01  0.54656609378E+02  0.41800000000E+01 0. -1.
</event>
<event>
11    1  0.8864208E-009  0.5281067E+03  0.7561462E-02  0.9332820E-01
         22   -1    0    0    0    0  0.00000000000E+00  0.00000000000E+00  0.25225018829E+03  0.25225018829E+03  0.00000000000E+00 0. -1.
         22   -1    0    0    0    0 -0.00000000000E+00 -0.00000000000E+00 -0.22164802482E+04  0.22164802482E+04  0.00000000000E+00 0. -1.
         24    2    1    2    0    0  0.64169853954E+02  0.98027656119E+02 -0.24675133512E+03  0.28463022698E+03  0.80005957308E+02 0.  0.
         25    2    1    2    0    0 -0.15243315318E+03 -0.58321521485E+03 -0.15323347910E+04  0.16513855475E+04  0.12509381075E+03 0.  0.
        -24    2    1    2    0    0  0.88263299230E+02  0.48518755873E+03 -0.18514393379E+03  0.53271466210E+03  0.79430836963E+02 0.  0.
        -11    1    3    3    0    0  0.11570839570E+01 -0.10361935755E+02 -0.35501083617E+01  0.11014164755E+02  0.00000000000E+00 0.  1.
         12    1    3    3    0    0  0.63012769997E+02  0.10838959187E+03 -0.24320122676E+03  0.27361606222E+03  0.00000000000E+00 0. -1.
         11    1    5    5    0    0  0.99496695766E+02  0.39533569716E+03 -0.16597652957E+03  0.44015692007E+03  0.00000000000E+00 0. -1.
        -12    1    5    5    0    0 -0.11233396536E+02  0.89851861570E+02 -0.19167404218E+02  0.92557742031E+02  0.00000000000E+00 0.  1.
          5    1    4    4  501    0 -0.15147503092E+00 -0.21866579612E+03 -0.48611735702E+03  0.53305000754E+03  0.41800000000E+01 0. -1.
         -5    1    4    4    0  501 -0.15228167815E+03 -0.36454941873E+03 -0.10462174340E+04  0.11183355399E+04  0.41800000000E+01 0. -1.
</event>
<event>
11    1  0.8864208E-009  0.1842803E+03  0.7561462E-02  0.1066232E+00
         22   -1    0    0    0    0  0.00000000000E+00  0.00000000000E+00  0.10775904645E+04  0.10775904645E+04  0.00000000000E+00 0.  1.
         22   -1    0    0    0    0 -0.00000000000E+00 -0.00000000000E+00 -0.17619089874E+03  0.17619089874E+03  0.00000000000E+00 0. -1.
         24    2    1    2    0    0  0.75352890913E+02 -0.10491885049E+03 -0.81708534620E+02  0.17311245671E+03  0.81274932685E+02 0.  0.
         25    2    1    2    0    0 -0.62060670671E+02  0.16221863373E+03  0.20542589099E+03  0.29667176562E+03  0.12509167779E+03 0.  0.
        -24    2    1    2    0    0 -0.13292220242E+02 -0.57299783243E+02  0.77768220936E+03  0.78399714088E+03  0.80012185823E+02 0.  0.
        -11    1    3    3    0    0  0.81801807066E+01  0.70661069216E+01  0.90389741301E+01  0.14090715977E+02  0.00000000000E+00 0.  1.
         12    1    3    3    0    0  0.67172710207E+02 -0.11198495741E+03 -0.90747508750E+02  0.15902174074E+03  0.00000000000E+00 0. -1.
         11    1    5    5    0    0 -0.33738744061E+02 -0.59813740643E+02  0.40780820202E+03  0.41354989549E+03  0.00000000000E+00 0. -1.
        -12    1    5    5    0    0  0.20446523819E+02  0.25139573999E+01  0.36987400733E+03  0.37044724539E+03  0.00000000000E+00 0.  1.
          5    1    4    4  501    0 -0.12867734724E+01  0.12333067199E+03  0.66775383465E+02  0.14031583901E+03  0.41800000000E+01 0. -1.
         -5    1    4    4    0  501 -0.60773897199E+02  0.38887961737E+02  0.13865050752E+03  0.15635592661E+03  0.41800000000E+01 0. -1.
</event>
<event>
11    1  0.8864208E-009  0.1443838E+03  0.7561462E-02  0.1102760E+00
         22   -1    0    0    0    0  0.00000000000E+00  0.00000000000E+00  0.50097652281E+03  0.50097652281E+03  0.00000000000E+00 0.  1.
         22   -1    0    0    0    0 -0.00000000000E+00 -0.00000000000E+00 -0.55181221935E+03  0.55181221935E+03  0.00000000000E+00 0. -1.
         24    2    1    2    0    0 -0.36813307482E+01  0.42991131117E+02 -0.32317464590E+03  0.33489622031E+03  0.76497301097E+02 0.  0.
         25    2    1    2    0    0 -0.52032359526E+02 -0.87666911312E+02 -0.18623486258E+03  0.24641856429E+03  0.12508329629E+03 0.  0.
        -24    2    1    2    0    0  0.55713690274E+02  0.44675780195E+02  0.45857381194E+03  0.47147395756E+03  0.83053061631E+02 0.  0.
        -11    1    3    3    0    0  0.10097656249E+02 -0.37818937168E+01 -0.32281990532E+01  0.11255516467E+02  0.00000000000E+00 0.  1.
         12    1    3    3    0    0 -0.13778986997E+02  0.46773024834E+02 -0.31994644685E+03  0.32364070384E+03  0.00000000000E+00 0. -1.
         13    1    5    5    0    0 -0.16109189489E+02  0.17338339085E+02  0.20901104077E+03  0.21034671176E+03  0.00000000000E+00 0. -1.
        -14    1    5    5    0    0  0.71822879763E+02  0.27337441110E+02  0.24956277117E+03  0.26112724580E+03  0.00000000000E+00 0.  1.
          5    1    4    4  501    0 -0.29171123081E+01  0.17345199702E+02 -0.10064453117E+03  0.10225536441E+03  0.41800000000E+01 0.  1.
         -5    1    4    4    0  501 -0.49115247218E+02 -0.10501211101E+03 -0.85590331409E+02  0.14416319988E+03  0.41800000000E+01 0.  1.
</event>
<event>
11    1  0.8864208E-009  0.1444140E+03  0.7561462E-02  0.1102727E+00
         22   -1    0    0    0    0  0.00000000000E+00  0.00000000000E+00  0.10102553252E+04  0.10102553252E+04  0.00000000000E+00 0. -1.
         22   -1    0    0    0    0 -0.00000000000E+00 -0.00000000000E+00 -0.74641936017E+02  0.74641936017E+02  0.00000000000E+00 0.  1.
         24    2    1    2    0    0 -0.15439443538E+02  0.21806412147E+02  0.14205890049E+02  0.84262946184E+02  0.78641851200E+02 0.  0.
         25    2    1    2    0    0  0.85646629735E+02 -0.21735161124E+02  0.13414552334E+03  0.20359546545E+03  0.12509328402E+03 0.  0.
        -24    2    1    2    0    0 -0.70207186197E+02 -0.71251023065E-01  0.78726197575E+03  0.79703884953E+03  0.10276407512E+03 0.  0.
        -13    1    3    3    0    0  0.30643389762E+02  0.13188483477E+02 -0.47433025928E+01  0.33696473881E+02  0.00000000000E+00 0.  1.
         14    1    3    3    0    0 -0.46082833300E+02  0.86179286692E+01  0.18949192642E+02  0.50566472304E+02  0.00000000000E+00 0. -1.
         11    1    5    5    0    0 -0.79787891435E+02  0.23902491125E+02  0.38293998960E+03  0.39189344513E+03  0.00000000000E+00 0. -1.
        -12    1    5    5    0    0  0.95807052386E+01 -0.23973742148E+02  0.40432198615E+03  0.40514540440E+03  0.00000000000E+00 0.  1.
          5    1    4    4  501    0  0.56809668697E+02 -0.71783029963E+02  0.60083310645E+02  0.10957927937E+03  0.41800000000E+01 0.  1.
         -5    1    4    4    0  501  0.28836961038E+02  0.50047868840E+02  0.74062212695E+02  0.94016186088E+02  0.41800000000E+01 0.  1.
</event>
<event>
11    1  0.8864208E-009  0.1513329E+03  0.7561462E-02  0.1095525E+00
         22   -1    0    0    0    0  0.00000000000E+00  0.00000000000E+00  0.43967396796E+02  0.43967396796E+02  0.00000000000E+00 0.  1.
         22   -1    0    0    0    0 -0.00000000000E+00 -0.00000000000E+00 -0.27925719012E+04  0.27925719012E+04  0.00000000000E+00 0.  1.
        -24    2    1    2    0    0 -0.55349196503E+02 -0.58882692070E+02 -0.23137588913E+04  0.23170909203E+04  0.94336742996E+02 0.  0.
         25    2    1    2    0    0  0.92387107870E+02 -0.25918475864E+02 -0.26493534841E+03  0.30829492005E+03  0.12509146174E+03 0.  0.
         24    2    1    2    0    0 -0.37037911367E+02  0.84801167933E+02 -0.16991026468E+03  0.21115345759E+03  0.84576826897E+02 0.  0.
        -11    1    5    5    0    0 -0.54491733246E+02  0.34979841017E+02 -0.56015623438E+02  0.85619439024E+02  0.00000000000E+00 0.  1.
         12    1    5    5    0    0  0.17453821879E+02  0.49821326917E+02 -0.11389464124E+03  0.12553401857E+03  0.00000000000E+00 0. -1.
         11    1    3    3    0    0 -0.74571838525E+01  0.24782179962E+02 -0.67802647380E+03  0.67852020251E+03  0.00000000000E+00 0. -1.
        -12    1    3    3    0    0 -0.47892012651E+02 -0.83664872032E+02 -0.16357324175E+04  0.16385707178E+04  0.00000000000E+00 0.  1.
          5    1    4    4  501    0  0.31016353469E+02  0.47542177582E+02 -0.63771248819E+02  0.85478169187E+02  0.41800000000E+01 0. -1.
         -5    1    4    4    0  501  0.61370754401E+02 -0.73460653446E+02 -0.20116409959E+03  0.22281675086E+03  0.41800000000E+01 0. -1.
</event>
<event>
11    1  0.8864208E-009  0.2767562E+03  0.7561462E-02  0.1010538E+00
         22   -1    0    0    0    0  0.00000000000E+00  0.00000000000E+00  0.23864137227E+04  0.23864137227E+04  0.00000000000E+00 0.  1.
         22   -1    0    0    0    0 -0.00000000000E+00 -0.00000000000E+00 -0.14253443882E+03  0.14253443882E+03  0.00000000000E+00 0.  1.
        -24    2    1    2    0    0 -0.24315382935E+03  0.21882530842E+02  0.78569316831E+02  0.26829780665E+03  0.78790517336E+02 0.  0.
         25    2    1    2    0    0  0.24773113364E+03 -0.66285088054E+02  0.39115892833E+03  0.48416662431E+03  0.12509030900E+03 0.  0.
         24    2    1    2    0    0 -0.45773042918E+01  0.44402557212E+02  0.17741510387E+04  0.17764837306E+04  0.79309507250E+02 0.  0.
        -11    1    5    5    0    0  0.21214895781E+02  0.34419948779E+02  0.15637681716E+04  0.15642907975E+04  0.00000000000E+00 0.  1.
         12    1    5    5    0    0 -0.25792200073E+02  0.99826084327E+01  0.21038286711E+03  0.21219293303E+03  0.00000000000E+00 0. -1.
         13    1    3    3    0    0 -0.15370998298E+03  0.90563435208E+00  0.85985833039E+02  0.17612819912E+03  0.00000000000E+00 0. -1.
        -14    1    3    3    0    0 -0.89443846369E+02  0.20976896490E+02 -0.74165162077E+01  0.92169607530E+02  0.00000000000E+00 0.  1.
          5    1    4    4  501    0  0.14872425196E+03 -0.91762789414E+02  0.29958354298E+03  0.34685311627E+03  0.41800000000E+01 0.  1.
         -5    1    4    4    0  501  0.99006881687E+02  0.25477701360E+02  0.91575385349E+02  0.13731350804E+03  0.41800000000E+01 0.  1.
</event>
<event>
11    1  0.8864208E-009  0.1915424E+03  0.7561462E-02  0.1060671E+00
         22   -1    0    0    0    0  0.00000000000E+00  0.00000000000E+00  0.18709608082E+04  0.18709608082E+04  0.00000000000E+00 0. -1.
         22   -1    0    0    0    0 -0.00000000000E+00 -0.00000000000E+00 -0.97181768490E+02  0.97181768490E+02  0.00000000000E+00 0. -1.
         24    2    1    2    0    0  0.12214249230E+03 -0.83446375313E+02  0.66554777413E+01  0.16627772454E+03  0.75643243681E+02 0.  0.
         25    2    1    2    0    0 -0.72102183055E+02  0.11603770731E+03  0.54446580794E+03  0.57511463677E+03  0.12510137928E+03 0.  0.
        -24    2    1    2    0    0 -0.50040309246E+02 -0.32591331993E+02  0.12226577540E+04  0.12267502153E+04  0.80360935646E+02 0.  0.
        -13    1    3    3    0    0 -0.89169149689E+00 -0.31161856504E+02 -0.68378441387E+01  0.31915709721E+02  0.00000000000E+00 0.  1.
         14    1    3    3    0    0  0.12303418380E+03 -0.52284518809E+02  0.13493321880E+02  0.13436201482E+03  0.00000000000E+00 0. -1.
         11    1    5    5    0    0  0.10788397508E+02 -0.37479340440E+02  0.50297499334E+03  0.50448482079E+03  0.00000000000E+00 0. -1.
        -12    1    5    5    0    0 -0.60828706754E+02  0.48880084465E+01  0.71968276064E+03  0.72226539455E+03  0.00000000000E+00 0.  1.
          5    1    4    4  501    0 -0.10092576021E+03  0.51773735993E+02  0.30348124425E+03  0.32401368308E+03  0.41800000000E+01 0. -1.
         -5    1    4    4    0  501  0.28823577153E+02  0.64263971313E+02  0.24098456369E+03  0.25110095369E+03  0.41800000000E+01 0. -1.
</event>
<event>
11    1  0.8864208E-009  0.1495994E+03  0.7561462E-02  0.1097289E+00
         22   -1    0    0    0    0  0.00000000000E+00  0.00000000000E+00  0.17309934886E+04  0.17309934886E+04  0.00000000000E+00 0.  1.
         22   -1    0    0    0    0 -0.00000000000E+00 -0.00000000000E+00 -0.58820494998E+03  0.58820494998E+03  0.00000000000E+00 0.  1.
        -24    2    1    2    0    0 -0.73717835028E+02 -0.35024263598E+02 -0.56761275736E+03  0.57884363134E+03  0.78833298719E+02 0.  0.
         25    2    1    2    0    0  0.11424554438E+03  0.68723117602E+02  0.63881904777E+03  0.66446387545E+03  0.12509018623E+03 0.  0.
         24    2    1    2    0    0 -0.40527709356E+02 -0.33698854004E+02  0.10715822482E+04  0.10758909318E+04  0.80465361808E+02 0.  0.
        -13    1    5    5    0    0  0.28596719852E+01 -0.47392300185E+02  0.68436554613E+03  0.68601050180E+03  0.00000000000E+00 0.  1.
         14    1    5    5    0    0 -0.43387381342E+02  0.13693446181E+02  0.38721670211E+03  0.38988043003E+03  0.00000000000E+00 0. -1.
         13    1    3    3    0    0 -0.14792415544E+02 -0.29581710415E+02 -0.66723981867E+02  0.74471356271E+02  0.00000000000E+00 0. -1.
        -14    1    3    3    0    0 -0.58925419485E+02 -0.54425531830E+01 -0.50088877549E+03  0.50437227507E+03  0.00000000000E+00 0.  1.
          5    1    4    4  501    0  0.13824072480E+02 -0.17998281393E+02  0.17076935818E+02  0.28707790754E+02  0.41800000000E+01 0. -1.
         -5    1    4    4    0  501  0.10042147190E+03  0.86721398995E+02  0.62174211195E+03  0.63575608470E+03  0.41800000000E+01 0. -1.
</event>
<event>
11    1  0.8864208E-009  0.1325118E+03  0.7561462E-02  0.1116221E+00
         22   -1    0    0    0    0  0.00000000000E+00  0.00000000000E+00  0.99054410177E+03  0.99054410177E+03  0.00000000000E+00 0.  1.
         22   -1    0    0    0    0 -0.00000000000E+00 -0.00000000000E+00 -0.38031353919E+03  0.38031353919E+03  0.00000000000E+00 0.  1.
        -24    2    1    2    0    0  0.23206950051E+02 -0.37872105020E+02 -0.33640652512E+03  0.34883519521E+03  0.80893661088E+02 0.  0.
         25    2    1    2    0    0 -0.36900432971E+02  0.10802801648E+02  0.85276674744E+02  0.15621784942E+03  0.12511419882E+03 0.  0.
         24    2    1    2    0    0  0.13693482920E+02  0.27069303372E+02  0.86136041296E+03  0.86580459633E+03  0.82192331450E+02 0.  0.
        -11    1    5    5    0    0  0.11776247438E+02  0.38624469590E+02  0.84337619406E+03  0.84434230876E+03  0.00000000000E+00 0.  1.
         12    1    5    5    0    0  0.19172354819E+01 -0.11555166218E+02  0.17984218898E+02  0.21462287566E+02  0.00000000000E+00 0. -1.
         11    1    3    3    0    0  0.25781509424E+02  0.19930515813E+02 -0.89738300446E+02  0.95471850594E+02  0.00000000000E+00 0. -1.
        -12    1    3    3    0    0 -0.25745593737E+01 -0.57802620834E+02 -0.24666822467E+03  0.25336334461E+03  0.00000000000E+00 0.  1.
          5    1    4    4  501    0 -0.44013838352E+02 -0.20846669066E+02 -0.14687334664E+02  0.51039120067E+02  0.41800000000E+01 0.  1.
         -5    1    4    4    0  501  0.71134053811E+01  0.31649470715E+02  0.99964009407E+02  0.10517872936E+03  0.41800000000E+01 0.  1.
</event>
<event>
11    1  0.8864208E-009  0.1487742E+03  0.7561462E-02  0.1098138E+00
         22   -1    0    0    0    0  0.00000000000E+00  0.00000000000E+00  0.12033406287E+03  0.12033406287E+03  0.00000000000E+00 0. -1.
         22   -1    0    0    0    0 -0.00000000000E+00 -0.00000000000E+00 -0.11996355363E+04  0.11996355363E+04  0.00000000000E+00 0. -1.
         24    2    1    2    0    0 -0.35088206917E+02 -0.58116315889E+02 -0.66189197376E+03  0.67037415372E+03  0.81803622232E+02 0.  0.
         25    2    1    2    0    0  0.45037573605E+02  0.13428307998E+03 -0.48388208294E+03  0.51947030442E+03  0.12508876197E+03 0.  0.
        -24    2    1    2    0    0 -0.99493666887E+01 -0.76166764087E+02  0.66472583236E+02  0.13012514107E+03  0.81323933544E+02 0.  0.
        -13    1    3    3    0    0 -0.44893005936E+02 -0.16281337607E+02 -0.16913519751E+03  0.17574748639E+03  0.00000000000E+00 0.  1.
         14    1    3    3    0    0  0.98047990189E+01 -0.41834978282E+02 -0.49275677625E+03  0.49462666733E+03  0.00000000000E+00 0. -1.
         11    1    5    5    0    0 -0.44591125835E+02 -0.51606732445E+02  0.50044199017E+02  0.84593411044E+02  0.00000000000E+00 0. -1.
        -12    1    5    5    0    0  0.34641759146E+02 -0.24560031642E+02  0.16428384220E+02  0.45531730025E+02  0.00000000000E+00 0.  1.
          5    1    4    4  501    0  0.78330458078E+02  0.11674663773E+03 -0.43775036351E+03  0.45979157369E+03  0.41800000000E+01 0.  1.
         -5    1    4    4    0  501 -0.33292884472E+02  0.17536442245E+02 -0.46131719435E+02  0.59678730726E+02  0.41800000000E+01 0.  1.
</event>
<event>
11    1  0.8864208E-009  0.2064699E+03  0.7561462E-02  0.1050040E+00
         22   -1    0    0    0    0  0.00000000000E+00  0.00000000000E+00  0.18131347614E+03  0.18131347614E+03  0.00000000000E+00 0.  1.
         22   -1    0    0    0    0 -0.00000000000E+00 -0.00000000000E+00 -0.65188240739E+03  0.65188240739E+03  0.00000000000E+00 0. -1.
        -24    2    1    2    0    0 -0.24069933089E+02  0.61298394813E+02 -0.21412687775E+03  0.23637771110E+03  0.75413842551E+02 0.  0.
         25    2    1    2    0    0  0.92682455319E+02  0.94948782672E+02 -0.34411522885E+03  0.38944585137E+03  0.12508985398E+03 0.  0.
         24    2    1    2    0    0 -0.68612522229E+02 -0.15624717749E+03  0.87673175353E+02  0.20737232105E+03  0.78713627672E+02 0.  0.
        -13    1    5    5    0    0 -0.82165400769E+02 -0.15329266319E+03  0.79112644108E+02  0.19107224845E+03  0.00000000000E+00 0.  1.
         14    1    5    5    0    0  0.13552878540E+02 -0.29545142989E+01  0.85605312451E+01  0.16300072596E+02  0.00000000000E+00 0. -1.
         13    1    3    3    0    0  0.24420449182E+02  0.27347623573E+02 -0.11723803688E+03  0.12283732391E+03  0.00000000000E+00 0. -1.
        -14    1    3    3    0    0 -0.48490382271E+02  0.33950771240E+02 -0.96888840867E+02  0.11354038720E+03  0.00000000000E+00 0.  1.
          5    1    4    4  501    0  0.91577187600E+02  0.30524824605E+02 -0.28842436797E+03  0.30417796541E+03  0.41800000000E+01 0. -1.
         -5    1    4    4    0  501  0.11052677189E+01  0.64423958067E+02 -0.55690860888E+02  0.85267885961E+02  0.41800000000E+01 0. -1.
</event>
<event>
11    1  0.8864208E-009  0.1368892E+03  0.7561462E-02  0.1111083E+00
         22   -1    0    0    0    0  0.00000000000E+00  0.00000000000E+00  0.15477370489E+04  0.15477370489E+04  0.00000000000E+00 0. -1.
         22   -1    0    0    0    0 -0.00000000000E+00 -0.00000000000E+00 -0.22612406560E+03  0.22612406560E+03  0.00000000000E+00 0.  1.
        -24    2    1    2    0    0 -0.10031621585E+02 -0.12796406977E+02 -0.19234418635E+03  0.20915542238E+03  0.80531504535E+02 0.  0.
         25    2    1    2    0    0  0.40543458897E+02 -0.34080665794E+02  0.17129142310E+03  0.21861981625E+03  0.12509439871E+03 0.  0.
         24    2    1    2    0    0 -0.30511837313E+02  0.46877072771E+02  0.13426657466E+04  0.13460858759E+04  0.77893812889E+02 0.  0.
        -11    1    5    5    0    0 -0.50934115629E+02  0.24116262346E+02  0.56129454252E+03  0.56411651430E+03  0.00000000000E+00 0.  1.
         12    1    5    5    0    0  0.20422278316E+02  0.22760810425E+02  0.78137120408E+03  0.78196936162E+03  0.00000000000E+00 0. -1.
         13    1    3    3    0    0 -0.33655946693E+00  0.26985435398E+02 -0.24703896257E+02  0.36587012534E+02  0.00000000000E+00 0. -1.
        -14    1    3    3    0    0 -0.96950621177E+01 -0.39781842374E+02 -0.16764029009E+03  0.17256840984E+03  0.00000000000E+00 0.  1.
          5    1    4    4  501    0 -0.35573714533E+02 -0.94899301522E+01  0.97586937138E+01  0.38317782334E+02  0.41800000000E+01 0.  1.
         -5    1    4    4    0  501  0.76117173430E+02 -0.24590735642E+02  0.16153272939E+03  0.18030203392E+03  0.41800000000E+01 0.  1.
</event>
<event>
11    1  0.8864208E-009  0.1515344E+03  0.7561462E-02  0.1095321E+00
         22   -1    0    0    0    0  0.00000000000E+00  0.00000000000E+00  0.50753126701E+03  0.50753126701E+03  0.00000000000E+00 0.  1.
         22   -1    0    0    0    0 -0.00000000000E+00 -0.00000000000E+00 -0.13086823495E+03  0.13086823495E+03  0.00000000000E+00 0. -1.
        -24    2    1    2    0    0  0.37494825772E+02 -0.39288934731E+02  0.29159055071E+02  0.11634429256E+03  0.98672496506E+02 0.  0.
         25    2    1    2    0    0 -0.96823474077E+02  0.87958830087E+02  0.27384450501E+02  0.18305348101E+03  0.12508848012E+03 0.  0.
         24    2    1    2    0    0  0.59328648304E+02 -0.48669895356E+02  0.32011952648E+03  0.33900172839E+03  0.80975387545E+02 0.  0.
        -13    1    5    5    0    0  0.45997260416E+02 -0.33685643591E+02  0.31232190151E+03  0.31748297705E+03  0.00000000000E+00 0.  1.
         14    1    5    5    0    0  0.13331387888E+02 -0.14984251764E+02  0.77976249716E+01  0.21518751338E+02  0.00000000000E+00 0. -1.
         13    1    3    3    0    0  0.15139553968E+02  0.18555639697E+02 -0.24556649371E+02  0.34300829250E+02  0.00000000000E+00 0. -1.
        -14    1    3    3    0    0  0.22355271805E+02 -0.57844574428E+02  0.53715704442E+02  0.82043463310E+02  0.00000000000E+00 0.  1.
          5    1    4    4  501    0 -0.84742734316E+00 -0.18019446104E+02 -0.24661550323E+02  0.30839634164E+02  0.41800000000E+01 0.  1.
         -5    1    4    4    0  501 -0.95976046733E+02  0.10597827619E+03  0.52046000825E+02  0.15221384685E+03  0.41800000000E+01 0.  1.
</event>
<event>
11    1  0.8864208E-009  0.1505620E+03  0.7561462E-02  0.1096306E+00
         22   -1    0    0    0    0  0.00000000000E+00  0.00000000000E+00  0.32589734982E+04  0.32589734982E+04  0.00000000000E+00 0.  1.
         22   -1    0    0    0    0 -0.00000000000E+00 -0.00000000000E+00 -0.29716786663E+03  0.29716786663E+03  0.00000000000E+00 0.  1.
         24    2    1    2    0    0 -0.46526649420E+02  0.67847633773E+02 -0.26500578082E+03  0.28912412747E+03  0.81219866441E+02 0.  0.
         25    2    1    2    0    0  0.63996353120E+02 -0.13236660175E+03  0.46764556473E+03  0.50592108266E+03  0.12508923691E+03 0.  0.
        -24    2    1    2    0    0 -0.17469703700E+02  0.64518967975E+02  0.27591658477E+04  0.27610961548E+04  0.78663288144E+02 0.  0.
        -13    1    3    3    0    0 -0.68390730664E+02  0.40451844867E+02 -0.20125705846E+03  0.21637478452E+03  0.00000000000E+00 0.  1.
         14    1    3    3    0    0  0.21864081243E+02  0.27395788905E+02 -0.63748722352E+02  0.72749342951E+02  0.00000000000E+00 0. -1.
         11    1    5    5    0    0  0.12318123072E+02 -0.13992641724E+02  0.39540675651E+03  0.39584597165E+03  0.00000000000E+00 0. -1.
        -12    1    5    5    0    0 -0.29787826772E+02  0.78511609699E+02  0.23637590912E+04  0.23652501831E+04  0.00000000000E+00 0.  1.
          5    1    4    4  501    0  0.39122069897E+02 -0.11444357270E+03  0.45768626884E+03  0.47341531531E+03  0.41800000000E+01 0. -1.
         -5    1    4    4    0  501  0.24874283223E+02 -0.17923029051E+02  0.99592958962E+01  0.32505767349E+02  0.41800000000E+01 0. -1.
</event>
<event>
11    1  0.8864208E-009  0.1810935E+03  0.7561462E-02  0.1068762E+00
         22   -1    0    0    0    0  0.00000000000E+00  0.00000000000E+00  0.55918662201E+03  0.55918662201E+03  0.00000000000E+00 0. -1.
         22   -1    0    0    0    0 -0.00000000000E+00 -0.00000000000E+00 -0.10315008743E+04  0.10315008743E+04  0.00000000000E+00 0. -1.
         24    2    1    2    0    0  0.13045421678E+03  0.52666860726E+01 -0.98645131524E+03  0.99828123313E+03  0.80207122044E+02 0.  0.
         25    2    1    2    0    0 -0.15269750762E+03 -0.45031401778E+02  0.36063878964E+03  0.41359328986E+03  0.12511881092E+03 0.  0.
        -24    2    1    2    0    0  0.22243290840E+02  0.39764715705E+02  0.15349827335E+03  0.17881297327E+03  0.79601274386E+02 0.  0.
        -11    1    3    3    0    0  0.23447462429E+02 -0.30398045029E+02 -0.18587329969E+03  0.18979649147E+03  0.00000000000E+00 0.  1.
         12    1    3    3    0    0  0.10700675435E+03  0.35664731101E+02 -0.80057801554E+03  0.80848474166E+03  0.00000000000E+00 0. -1.
         11    1    5    5    0    0  0.48210794953E+02  0.11354686537E+02  0.11056863730E+03  0.12115540933E+03  0.00000000000E+00 0. -1.
        -12    1    5    5    0    0 -0.25967504113E+02  0.28410029168E+02  0.42929636053E+02  0.57657563934E+02  0.00000000000E+00 0.  1.
          5    1    4    4  501    0  0.43165257251E+01 -0.45007340335E+02  0.79559563620E+02  0.91605074323E+02  0.41800000000E+01 0.  1.
         -5    1    4    4    0  501 -0.15701403334E+03 -0.24061443007E-01  0.28107922602E+03  0.32198821554E+03  0.41800000000E+01 0.  1.
</event>
<event>
11    1  0.8864208E-009  0.2134898E+03  0.7561462E-02  0.1045374E+00
         22   -1    0    0    0    0  0.00000000000E+00  0.00000000000E+00  0.18155808798E+03  0.18155808798E+03  0.00000000000E+00 0. -1.
         22   -1    0    0    0    0 -0.00000000000E+00 -0.00000000000E+00 -0.23450919143E+04  0.23450919143E+04  0.00000000000E+00 0.  1.
        -24    2    1    2    0    0  0.66358158769E+02 -0.16304944808E+03 -0.22299189643E+04  0.22383696079E+04  0.82288434081E+02 0.  0.
         25    2    1    2    0    0 -0.58009012376E+02  0.94857016401E+02  0.87456155785E+01  0.16759031500E+03  0.12508848393E+03 0.  0.
         24    2    1    2    0    0 -0.83491463927E+01  0.68192431679E+02  0.57639522452E+02  0.12069007935E+03  0.80770444600E+02 0.  0.
        -11    1    5    5    0    0  0.26636089758E+02  0.13183343657E+02 -0.51670427198E+01  0.30165877379E+02  0.00000000000E+00 0.  1.
         12    1    5    5    0    0 -0.34985236151E+02  0.55009088022E+02  0.62806565172E+02  0.90524201970E+02  0.00000000000E+00 0. -1.
         13    1    3    3    0    0 -0.19562435715E+02 -0.25557166915E+02 -0.36450853136E+03  0.36592666903E+03  0.00000000000E+00 0. -1.
        -14    1    3    3    0    0  0.85920594483E+02 -0.13749228116E+03 -0.18654104329E+04  0.18724429389E+04  0.00000000000E+00 0.  1.
          5    1    4    4  501    0 -0.87100820686E+02  0.93498552995E+02 -0.16384379809E+02  0.12889706233E+03  0.41800000000E+01 0.  1.
         -5    1    4    4    0  501  0.29091808310E+02  0.13584634060E+01  0.25129995387E+02  0.38693252664E+02  0.41800000000E+01 0.  1.
</event>
<event>
11    1  0.8864208E-009  0.2366495E+03  0.7561462E-02  0.1031262E+00
         22   -1    0    0    0    0  0.00000000000E+00  0.00000000000E+00  0.66803352219E+03  0.66803352219E+03  0.00000000000E+00 0.  1.
         22   -1    0    0    0    0 -0.00000000000E+00 -0.00000000000E+00 -0.67957378622E+03  0.67957378622E+03  0.00000000000E+00 0. -1.
         24    2    1    2    0    0  0.19377364346E+03  0.63532266273E+02 -0.59358565617E+03  0.63276979784E+03  0.80430790646E+02 0.  0.
         25    2    1    2    0    0 -0.17578457469E+03 -0.12501636182E+02  0.12951978713E+03  0.25194904265E+03  0.12508571953E+03 0.  0.
        -24    2    1    2    0    0 -0.17989068772E+02 -0.51030630090E+02  0.45252560501E+03  0.46288846792E+03  0.80985052568E+02 0.  0.
        -13    1    3    3    0    0  0.12263570513E+03  0.18645310913E+02 -0.25060098582E+03  0.27962120428E+03  0.00000000000E+00 0.  1.
         14    1    3    3    0    0  0.71137938330E+02  0.44886955359E+02 -0.34298467036E+03  0.35314859356E+03  0.00000000000E+00 0. -1.
         13    1    5    5    0    0  0.97603423226E+01  0.10774763282E+02  0.18118677294E+02  0.23230287836E+02  0.00000000000E+00 0. -1.
        -14    1    5    5    0    0 -0.27749411095E+02 -0.61805393372E+02  0.43440692772E+03  0.43965818008E+03  0.00000000000E+00 0.  1.
          5    1    4    4  501    0  0.13641087372E+00 -0.46826310735E+01 -0.19962022933E+02  0.20926069895E+02  0.41800000000E+01 0. -1.
         -5    1    4    4    0  501 -0.17592098556E+03 -0.78190051090E+01  0.14948181007E+03  0.23102297276E+03  0.41800000000E+01 0. -1.
</event>
<event>
11    1  0.8993381E-009  0.2221288E+03  0.7561462E-02  0.1039892E+00
         22   -1    0    0    0    0  0.00000000000E+00  0.00000000000E+00  0.39250180590E+03  0.39250180590E+03  0.00000000000E+00 0.  1.
         22   -1    0    0    0    0 -0.00000000000E+00 -0.00000000000E+00 -0.54010166592E+03  0.54010166592E+03  0.00000000000E+00 0.  1.
        -24    2    1    2    0    0  0.14514665039E+02  0.24404367747E+02 -0.19059382190E+03  0.20877343125E+03  0.80337363534E+02 0.  0.
         25    2    1    2    0    0 -0.61345045453E+01 -0.20573770651E+03 -0.26472952150E+03  0.35790339441E+03  0.12508990428E+03 0.  0.
         24    2    1    2    0    0 -0.83801604933E+01  0.18133333876E+03  0.30772348338E+03  0.36592664616E+03  0.79098428001E+02 0.  0.
        -13    1    5    5    0    0 -0.37968172809E+02  0.90937371910E+02  0.19460751088E+03  0.21813590041E+03  0.00000000000E+00 0.  1.
         14    1    5    5    0    0  0.29588012316E+02  0.90395966853E+02  0.11311597250E+03  0.14779074575E+03  0.00000000000E+00 0. -1.
         13    1    3    3    0    0  0.21818020700E+02 -0.25235931505E+02 -0.56680500577E+02  0.65768969977E+02  0.00000000000E+00 0. -1.
        -14    1    3    3    0    0 -0.73033556618E+01  0.49640299252E+02 -0.13391332133E+03  0.14300446127E+03  0.00000000000E+00 0.  1.
          5    1    4    4  501    0 -0.50012537943E+02 -0.14689434463E+03 -0.12231088575E+03  0.19762749710E+03  0.41800000000E+01 0. -1.
         -5    1    4    4    0  501  0.43878033398E+02 -0.58843361881E+02 -0.14241863575E+03  0.16027589732E+03  0.41800000000E+01 0. -1.
</event>
<event>
11    1  0.8864208E-009  0.2017411E+03  0.7561462E-02  0.1053299E+00
         22   -1    0    0    0    0  0.00000000000E+00  0.00000000000E+00  0.36753550660E+03  0.36753550660E+03  0.00000000000E+00 0. -1.
         22   -1    0    0    0    0 -0.00000000000E+00 -0.00000000000E+00 -0.53455648781E+03  0.53455648781E+03  0.00000000000E+00 0. -1.
        -24    2    1    2    0    0  0.16657349525E+01  0.94711181668E+02 -0.36040309465E+03  0.38226231052E+03  0.85212093060E+02 0.  0.
         25    2    1    2    0    0 -0.75392584328E+01  0.79519642801E+02 -0.94894940159E+02  0.17615980122E+03  0.12508801657E+03 0.  0.
         24    2    1    2    0    0  0.58735234804E+01 -0.17423082447E+03  0.28827705360E+03  0.34366988267E+03  0.67929744239E+02 0.  0.
        -11    1    5    5    0    0 -0.11195341254E+02  0.27966672829E+00  0.24404875647E+02  0.26851663536E+02  0.00000000000E+00 0.  1.
         12    1    5    5    0    0  0.17068864734E+02 -0.17451049120E+03  0.26387217795E+03  0.31681821914E+03  0.00000000000E+00 0. -1.
         13    1    3    3    0    0  0.22632092890E+02 -0.41499867205E+01 -0.38328587699E+02  0.44704749785E+02  0.00000000000E+00 0. -1.
        -14    1    3    3    0    0 -0.20966357938E+02  0.98861168388E+02 -0.32207450695E+03  0.33755756073E+03  0.00000000000E+00 0.  1.
          5    1    4    4  501    0  0.41001803326E+02  0.80972219902E+02 -0.88786691390E+02  0.12703620444E+03  0.41800000000E+01 0. -1.
         -5    1    4    4    0  501 -0.48541061759E+02 -0.14525771015E+01 -0.61082487693E+01  0.49123596773E+02  0.41800000000E+01 0. -1.
</event>
<event>
11    1  0.8864208E-009  0.2976705E+03  0.7561462E-02  0.1001182E+00
         22   -1    0    0    0    0  0.00000000000E+00  0.00000000000E+00  0.15938718852E+04  0.15938718852E+04  0.00000000000E+00 0.  1.
         22   -1    0    0    0    0 -0.00000000000E+00 -0.00000000000E+00 -0.17965790938E+04  0.17965790938E+04  0.00000000000E+00 0.  1.
         24    2    1    2    0    0 -0.14022906474E+03 -0.16811243628E+03 -0.15486522098E+04  0.15661426376E+04  0.80951297022E+02 0.  0.
         25    2    1    2    0    0  0.40118343183E+03  0.18230607579E+03  0.73945681561E+01  0.45813261776E+03  0.12508862685E+03 0.  0.
        -24    2    1    2    0    0 -0.26095436709E+03 -0.14193639511E+02  0.13385504330E+04  0.13661757238E+04  0.80126183666E+02 0.  0.
        -13    1    3    3    0    0 -0.24582829886E+02 -0.41148146829E+02 -0.61215369473E+03  0.61402738659E+03  0.00000000000E+00 0.  1.
         14    1    3    3    0    0 -0.11564623486E+03 -0.12696428945E+03 -0.93649851505E+03  0.95211525097E+03  0.00000000000E+00 0. -1.
         11    1    5    5    0    0 -0.97418176576E+02 -0.38809606781E+02  0.42267520884E+03  0.43548917194E+03  0.00000000000E+00 0. -1.
        -12    1    5    5    0    0 -0.16353619052E+03  0.24615967271E+02  0.91587522419E+03  0.93068655182E+03  0.00000000000E+00 0.  1.
          5    1    4    4  501    0  0.23360407820E+03  0.12083768292E+03  0.64212095840E+02  0.27076424546E+03  0.41800000000E+01 0. -1.
         -5    1    4    4    0  501  0.16757935363E+03  0.61468392866E+02 -0.56817527684E+02  0.18736837230E+03  0.41800000000E+01 0. -1.
</event>
<event>
11    1  0.8864208E-009  0.1950342E+03  0.7561462E-02  0.1058092E+00
         22   -1    0    0    0    0  0.00000000000E+00  0.00000000000E+00  0.23303452773E+03  0.23303452773E+03  0.00000000000E+00 0. -1.
         22   -1    0    0    0    0 -0.00000000000E+00 -0.00000000000E+00 -0.38386792860E+03  0.38386792860E+03  0.00000000000E+00 0.  1.
         24    2    1    2    0    0  0.15657564420E+03  0.28970061772E+02 -0.25048296839E+03  0.30743716407E+03  0.80129242860E+02 0.  0.
         25    2    1    2    0    0 -0.94900336724E+02 -0.82577866088E+02  0.45696275221E+02  0.18319580209E+03  0.12508946581E+03 0.  0.
        -24    2    1    2    0    0 -0.61675307481E+02  0.53607804316E+02  0.53953292298E+02  0.12626949017E+03  0.79720675872E+02 0.  0.
        -13    1    3    3    0    0  0.13058056123E+03  0.60465018113E+00 -0.22834998658E+03  0.26305011869E+03  0.00000000000E+00 0.  1.
         14    1    3    3    0    0  0.25995082971E+02  0.28365411591E+02 -0.22132981807E+02  0.44387045374E+02  0.00000000000E+00 0. -1.
         13    1    5    5    0    0  0.81616065162E+01  0.35752081754E+02  0.37257960218E+02  0.52277899444E+02  0.00000000000E+00 0. -1.
        -14    1    5    5    0    0 -0.69836913997E+02  0.17855722561E+02  0.16695332080E+02  0.73991590725E+02  0.00000000000E+00 0.  1.
          5    1    4    4  501    0  0.11070631827E+02  0.18984259394E+02  0.27164896584E+02  0.35190410629E+02  0.41800000000E+01 0. -1.
         -5    1    4    4    0  501 -0.10597096855E+03 -0.10156212548E+03  0.18531378636E+02  0.14800539146E+03  0.41800000000E+01 0. -1.
</event>
<event>
11    1  0.8864208E-009  0.1564685E+03  0.7561462E-02  0.1090447E+00
         22   -1    0    0    0    0  0.00000000000E+00  0.00000000000E+00  0.24071275074E+04  0.24071275074E+04  0.00000000000E+00 0.  1.
         22   -1    0    0    0    0 -0.00000000000E+00 -0.00000000000E+00 -0.60054085144E+02  0.60054085144E+02  0.00000000000E+00 0.  1.
        -24    2    1    2    0    0  0.12913961061E+02 -0.89136819749E+02  0.54269798420E+02  0.13526645932E+03  0.85086197298E+02 0.  0.
         25    2    1    2    0    0  0.65617733451E+02  0.26172677638E+02  0.27716989606E+03  0.31218952848E+03  0.12509378246E+03 0.  0.
         24    2    1    2    0    0 -0.78531694512E+02  0.62964142112E+02  0.20156337278E+04  0.20197256048E+04  0.79877930001E+02 0.  0.
        -11    1    5    5    0    0 -0.57108046872E+02  0.38763349725E+01  0.60771742241E+03  0.61040709407E+03  0.00000000000E+00 0.  1.
         12    1    5    5    0    0 -0.21423647640E+02  0.59087807139E+02  0.14079163054E+04  0.14093185107E+04  0.00000000000E+00 0. -1.
         11    1    3    3    0    0 -0.62721083232E+01  0.39281372797E+01  0.38181433552E+02  0.38892048973E+02  0.00000000000E+00 0. -1.
        -12    1    3    3    0    0  0.19186069384E+02 -0.93064957029E+02  0.16088364869E+02  0.96374410345E+02  0.00000000000E+00 0.  1.
          5    1    4    4  501    0 -0.12347491425E+01 -0.18938911774E+02  0.19849518866E+03  0.19944427619E+03  0.41800000000E+01 0.  1.
         -5    1    4    4    0  501  0.66852482594E+02  0.45111589412E+02  0.78674707404E+02  0.11274525229E+03  0.41800000000E+01 0.  1.
</event>
<event>
11    1  0.8864208E-009  0.1389615E+03  0.7561462E-02  0.1108724E+00
         22   -1    0    0    0    0  0.00000000000E+00  0.00000000000E+00  0.87431948625E+03  0.87431948625E+03  0.00000000000E+00 0. -1.
         22   -1    0    0    0    0 -0.00000000000E+00 -0.00000000000E+00 -0.13247108176E+04  0.13247108176E+04  0.00000000000E+00 0. -1.
        -24    2    1    2    0    0  0.41759516750E+02  0.28157249731E+02 -0.12736967382E+04  0.12772202567E+04  0.80321324712E+02 0.  0.
         25    2    1    2    0    0  0.13146412610E+02 -0.56967156193E+02  0.57471095506E+02  0.14956213674E+03  0.12509125021E+03 0.  0.
         24    2    1    2    0    0 -0.54905929360E+02  0.28809906462E+02  0.76583431135E+03  0.77224791043E+03  0.77588471612E+02 0.  0.
        -11    1    5    5    0    0 -0.23049225064E+01 -0.91320970080E+01  0.10385841740E+02  0.14020469756E+02  0.00000000000E+00 0.  1.
         12    1    5    5    0    0 -0.52601006854E+02  0.37942003470E+02  0.75544846961E+03  0.75822744067E+03  0.00000000000E+00 0. -1.
         13    1    3    3    0    0  0.10989467379E+02  0.43860928149E+02 -0.35415679703E+03  0.35703163206E+03  0.00000000000E+00 0. -1.
        -14    1    3    3    0    0  0.30770049371E+02 -0.15703678418E+02 -0.91953994120E+03  0.92018862464E+03  0.00000000000E+00 0.  1.
          5    1    4    4  501    0 -0.28279430151E+02 -0.50689259985E+02 -0.19877105355E+02  0.61495519876E+02  0.41800000000E+01 0. -1.
         -5    1    4    4    0  501  0.41425842761E+02 -0.62778962081E+01  0.77348200861E+02  0.88066616863E+02  0.41800000000E+01 0. -1.
</event>
<event>
11    1  0.8864208E-009  0.1453651E+03  0.7561462E-02  0.1101711E+00
         22   -1    0    0    0    0  0.00000000000E+00  0.00000000000E+00  0.10486355840E+04  0.10486355840E+04  0.00000000000E+00 0.  1.
         22   -1    0    0    0    0 -0.00000000000E+00 -0.00000000000E+00 -0.16243042283E+03  0.16243042283E+03  0.00000000000E+00 0. -1.
         24    2    1    2    0    0 -0.90946966067E+02 -0.27665533985E+02 -0.57394722953E+02  0.13709261640E+03  0.80395888216E+02 0.  0.
         25    2    1    2    0    0  0.41980732794E+02 -0.25212267657E+02  0.10601999944E+02  0.13470070210E+03  0.12503534052E+03 0.  0.
        -24    2    1    2    0    0  0.48966233273E+02  0.52877801641E+02  0.93299788423E+03  0.93927268836E+03  0.80959108328E+02 0.  0.
        -11    1    3    3    0    0 -0.39465407656E+02 -0.53796917117E+02 -0.28919026006E+02  0.72718201008E+02  0.00000000000E+00 0.  1.
         12    1    3    3    0    0 -0.51481558411E+02  0.26131383132E+02 -0.28475696948E+02  0.64374415395E+02  0.00000000000E+00 0. -1.
         13    1    5    5    0    0  0.28919753737E+02  0.20136172055E+02  0.11279043941E+03  0.11816725774E+03  0.00000000000E+00 0. -1.
        -14    1    5    5    0    0  0.20046479537E+02  0.32741629586E+02  0.82020744482E+03  0.82110543062E+03  0.00000000000E+00 0.  1.
          5    1    4    4  501    0 -0.39466051518E+02  0.15294832782E+02  0.97580054786E+01  0.43637050808E+02  0.41800000000E+01 0.  1.
         -5    1    4    4    0  501  0.81446784312E+02 -0.40507100438E+02  0.84399446541E+00  0.91063651296E+02  0.41800000000E+01 0.  1.
</event>
<event>
11    1  0.8864208E-009  0.1646757E+03  0.7561462E-02  0.1082760E+00
         22   -1    0    0    0    0  0.00000000000E+00  0.00000000000E+00  0.12632498757E+04  0.12632498757E+04  0.00000000000E+00 0. -1.
         22   -1    0    0    0    0 -0.00000000000E+00 -0.00000000000E+00 -0.18623924819E+04  0.18623924819E+04  0.00000000000E+00 0.  1.
         24    2    1    2    0    0  0.68515979002E+01 -0.10720545441E+03 -0.18210383785E+04  0.18271290419E+04  0.10334314669E+03 0.  0.
         25    2    1    2    0    0 -0.90193172963E+02  0.78013496082E+02  0.17995510600E+03  0.24950532262E+03  0.12509257300E+03 0.  0.
        -24    2    1    2    0    0  0.83341575063E+02  0.29191958324E+02  0.10419406663E+04  0.10490079930E+04  0.83542975412E+02 0.  0.
        -13    1    3    3    0    0 -0.11133001390E+02 -0.12396596962E+03 -0.15111651732E+04  0.15162821921E+04  0.00000000000E+00 0.  1.
         14    1    3    3    0    0  0.17984599290E+02  0.16760515213E+02 -0.30987320532E+03  0.31084684984E+03  0.00000000000E+00 0. -1.
         13    1    5    5    0    0  0.56696472100E+02 -0.66512309654E+01  0.85104342116E+03  0.85295582156E+03  0.00000000000E+00 0. -1.
        -14    1    5    5    0    0  0.26645102963E+02  0.35843189289E+02  0.19089724516E+03  0.19605217147E+03  0.00000000000E+00 0.  1.
          5    1    4    4  501    0 -0.13902993096E+02  0.39990581447E+02 -0.78099803708E+01  0.43255150154E+02  0.41800000000E+01 0. -1.
         -5    1    4    4    0  501 -0.76290179867E+02  0.38022914635E+02  0.18776508637E+03  0.20625017246E+03  0.41800000000E+01 0. -1.
</event>
<event>
11    1  0.8864208E-009  0.1308307E+03  0.7561462E-02  0.1118252E+00
         22   -1    0    0    0    0  0.00000000000E+00  0.00000000000E+00  0.52553722501E+02  0.52553722501E+02  0.00000000000E+00 0.  1.
         22   -1    0    0    0    0 -0.00000000000E+00 -0.00000000000E+00 -0.15429754638E+04  0.15429754638E+04  0.00000000000E+00 0.  1.
        -24    2    1    2    0    0 -0.38099201224E+02 -0.13811449579E+02 -0.92261435033E+03  0.92704591227E+03  0.80960352988E+02 0.  0.
         25    2    1    2    0    0  0.33480189988E+02 -0.27819217146E+01 -0.57225192673E+03  0.58672731229E+03  0.12509200270E+03 0.  0.
         24    2    1    2    0    0  0.46190112362E+01  0.16593371293E+02  0.44445357301E+01  0.81755961760E+02  0.79797294126E+02 0.  0.
        -13    1    5    5    0    0 -0.21245788961E+01 -0.78287993230E+01  0.38479946509E+02  0.39325694116E+02  0.00000000000E+00 0.  1.
         14    1    5    5    0    0  0.67435901323E+01  0.24422170616E+02 -0.34035410779E+02  0.42430267645E+02  0.00000000000E+00 0. -1.
         11    1    3    3    0    0  0.21719672926E+02 -0.20974814315E+02 -0.28819246045E+03  0.28976987643E+03  0.00000000000E+00 0. -1.
        -12    1    3    3    0    0 -0.59818874150E+02  0.71633647363E+01 -0.63442188988E+03  0.63727603584E+03  0.00000000000E+00 0.  1.
          5    1    4    4  501    0 -0.64786624466E+01  0.12742792295E+02 -0.22057470015E+01  0.15056212751E+02  0.41800000000E+01 0.  1.
         -5    1    4    4    0  501  0.39958852435E+02 -0.15524714010E+02 -0.57004617973E+03  0.57167109954E+03  0.41800000000E+01 0.  1.
</event>
<event>
11    1  0.8864208E-009  0.1472144E+03  0.7561462E-02  0.1099760E+00
         22   -1    0    0    0    0  0.00000000000E+00  0.00000000000E+00  0.28193561339E+03  0.28193561339E+03  0.00000000000E+00 0. -1.
         22   -1    0    0    0    0 -0.00000000000E+00 -0.00000000000E+00 -0.33065383166E+03  0.33065383166E+03  0.00000000000E+00 0.  1.
         24    2    1    2    0    0  0.34625920304E+02 -0.65517737833E+02 -0.24094948787E+03  0.26098594328E+03  0.67568325101E+02 0.  0.
         25    2    1    2    0    0 -0.28542848151E+02  0.12084414117E+03  0.59388421755E+02  0.18599029638E+03  0.12508958819E+03 0.  0.
        -24    2    1    2    0    0 -0.60830721531E+01 -0.55326403340E+02  0.13284284785E+03  0.16561320538E+03  0.81746540593E+02 0.  0.
        -11    1    3    3    0    0 -0.10521372805E+02 -0.51337241309E+01 -0.10397605036E+03  0.10463304190E+03  0.00000000000E+00 0.  1.
         12    1    3    3    0    0  0.45147293108E+02 -0.60384013702E+02 -0.13697343751E+03  0.15635290138E+03  0.00000000000E+00 0. -1.
         13    1    5    5    0    0  0.16400351447E+02 -0.57267397709E+02  0.12983271809E+03  0.14284628471E+03  0.00000000000E+00 0. -1.
        -14    1    5    5    0    0 -0.22483423600E+02  0.19409943686E+01  0.30101297606E+01  0.22766920677E+02  0.00000000000E+00 0.  1.
          5    1    4    4  501    0  0.37043311710E+02  0.15063488551E+02  0.45445973414E+02  0.60678863942E+02  0.41800000000E+01 0.  1.
         -5    1    4    4    0  501 -0.65586159861E+02  0.10578065262E+03  0.13942448341E+02  0.12531143244E+03  0.41800000000E+01 0.  1.
</event>
<event>
11    1  0.1798705E-008  0.1653284E+03  0.7561462E-02  0.1082170E+00
         22   -1    0    0    0    0  0.00000000000E+00  0.00000000000E+00  0.59166364759E+03  0.59166364759E+03  0.00000000000E+00 0.  1.
         22   -1    0    0    0    0 -0.00000000000E+00 -0.00000000000E+00 -0.10407831853E+04  0.10407831853E+04  0.00000000000E+00 0. -1.
        -24    2    1    2    0    0  0.91954917240E+01 -0.56800971512E+01 -0.72320867920E+03  0.72775366555E+03  0.80484678543E+02 0.  0.
         25    2    1    2    0    0  0.59335035575E+02  0.89327857433E+02 -0.28521525127E+03  0.32938693777E+03  0.12509157707E+03 0.  0.
         24    2    1    2    0    0 -0.68530527298E+02 -0.83647760281E+02  0.55930439279E+03  0.57530622955E+03  0.80389507918E+02 0.  0.
        -13    1    5    5    0    0 -0.28726883163E+02 -0.71695779631E+02  0.47583690449E+03  0.48206459972E+03  0.00000000000E+00 0.  1.
         14    1    5    5    0    0 -0.39803644136E+02 -0.11951980651E+02  0.83467488309E+02  0.93241629826E+02  0.00000000000E+00 0. -1.
         13    1    3    3    0    0 -0.10581661642E+02 -0.69406244902E+01 -0.68107106276E+03  0.68118862025E+03  0.00000000000E+00 0. -1.
        -14    1    3    3    0    0  0.19777153366E+02  0.12605273390E+01 -0.42137616442E+02  0.46565045301E+02  0.00000000000E+00 0.  1.
          5    1    4    4  501    0 -0.24893859298E+02  0.47613935921E+02 -0.41120884836E+02  0.67787835887E+02  0.41800000000E+01 0. -1.
         -5    1    4    4    0  501  0.84228894872E+02  0.41713921512E+02 -0.24409436643E+03  0.26159910188E+03  0.41800000000E+01 0. -1.
</event>
<event>
11    1  0.8864208E-009  0.1530874E+03  0.7561462E-02  0.1093765E+00
         22   -1    0    0    0    0  0.00000000000E+00  0.00000000000E+00  0.64529126099E+03  0.64529126099E+03  0.00000000000E+00 0.  1.
         22   -1    0    0    0    0 -0.00000000000E+00 -0.00000000000E+00 -0.16800492815E+04  0.16800492815E+04  0.00000000000E+00 0. -1.
        -24    2    1    2    0    0 -0.70686299130E+02  0.43633323764E+02 -0.13557794063E+04  0.13606627781E+04  0.79780808041E+02 0.  0.
         25    2    1    2    0    0  0.14014521184E+03 -0.66701790306E+02 -0.28581028792E+03  0.34846682177E+03  0.12510713795E+03 0.  0.
         24    2    1    2    0    0 -0.69458912713E+02  0.23068466543E+02  0.60683167377E+03  0.61621094255E+03  0.78195592746E+02 0.  0.
        -11    1    5    5    0    0 -0.57380506315E+02  0.33097531641E+02  0.23803345034E+03  0.24707871738E+03  0.00000000000E+00 0.  1.
         12    1    5    5    0    0 -0.12078406398E+02 -0.10029065098E+02  0.36879822343E+03  0.36913222517E+03  0.00000000000E+00 0. -1.
         11    1    3    3    0    0 -0.70024501183E+02  0.23249933690E+02 -0.12818573291E+04  0.12839790506E+04  0.00000000000E+00 0. -1.
        -12    1    3    3    0    0 -0.66179794669E+00  0.20383390074E+02 -0.73922077193E+02  0.76683727504E+02  0.00000000000E+00 0.  1.
          5    1    4    4  501    0 -0.31998543454E+01  0.14779046644E+02 -0.94843363324E+02  0.96132175957E+02  0.41800000000E+01 0.  1.
         -5    1    4    4    0  501  0.14334506619E+03 -0.81480836951E+02 -0.19096692459E+03  0.25233464582E+03  0.41800000000E+01 0.  1.
</event>
<event>
11    1  0.8864208E-009  0.1912990E+03  0.7561462E-02  0.1060853E+00
         22   -1    0    0    0    0  0.00000000000E+00  0.00000000000E+00  0.21066733958E+03  0.21066733958E+03  0.00000000000E+00 0.  1.
         22   -1    0    0    0    0 -0.00000000000E+00 -0.00000000000E+00 -0.13753523155E+04  0.13753523155E+04  0.00000000000E+00 0.  1.
         24    2    1    2    0    0  0.11718029520E+03  0.77014371312E+02 -0.10708976344E+04  0.10830480215E+04  0.80677373288E+02 0.  0.
         25    2    1    2    0    0 -0.14957470782E+03 -0.89975408768E+02 -0.24674522659E+03  0.32711471420E+03  0.12511059907E+03 0.  0.
        -24    2    1    2    0    0  0.32394412613E+02  0.12961037455E+02  0.15295788508E+03  0.17585691936E+03  0.79449071862E+02 0.  0.
        -11    1    3    3    0    0  0.12596876122E+03  0.74838105421E+02 -0.89474207751E+03  0.90665994513E+03  0.00000000000E+00 0.  1.
         12    1    3    3    0    0 -0.87884660121E+01  0.21762658912E+01 -0.17615555686E+03  0.17638807635E+03  0.00000000000E+00 0. -1.
         11    1    5    5    0    0  0.14427351823E+02 -0.30615967846E+02  0.34332915638E+02  0.48210321135E+02  0.00000000000E+00 0. -1.
        -12    1    5    5    0    0  0.17967060790E+02  0.43577005301E+02  0.11862496944E+03  0.12764659823E+03  0.00000000000E+00 0.  1.
          5    1    4    4  501    0 -0.11920146314E+03 -0.34308193591E+02 -0.77475079000E+02  0.14630755698E+03  0.41800000000E+01 0.  1.
         -5    1    4    4    0  501 -0.30373244676E+02 -0.55667215177E+02 -0.16927014759E+03  0.18080715722E+03  0.41800000000E+01 0.  1.
</event>
<event>
11    1  0.8864208E-009  0.1648439E+03  0.7561462E-02  0.1082608E+00
         22   -1    0    0    0    0  0.00000000000E+00  0.00000000000E+00  0.26157480863E+03  0.26157480863E+03  0.00000000000E+00 0.  1.
         22   -1    0    0    0    0 -0.00000000000E+00 -0.00000000000E+00 -0.97221214630E+03  0.97221214630E+03  0.00000000000E+00 0.  1.
        -24    2    1    2    0    0  0.42294090109E+02 -0.32087233148E+02 -0.87824511537E+03  0.88358173736E+03  0.81140762404E+02 0.  0.
         25    2    1    2    0    0 -0.10543051517E+03  0.93290035551E+02  0.96010845780E+02  0.21138644614E+03  0.12509005892E+03 0.  0.
         24    2    1    2    0    0  0.63136425061E+02 -0.61202802403E+02  0.71596931921E+02  0.13881877143E+03  0.80078333212E+02 0.  0.
        -11    1    5    5    0    0  0.22267367210E+02 -0.22990393465E+01  0.62698968093E+02  0.66575384523E+02  0.00000000000E+00 0.  1.
         12    1    5    5    0    0  0.40869057852E+02 -0.58903763057E+02  0.88979638275E+01  0.72243386910E+02  0.00000000000E+00 0. -1.
         11    1    3    3    0    0  0.10250463476E+02 -0.35005707816E+02 -0.14121958109E+03  0.14585417946E+03  0.00000000000E+00 0. -1.
        -12    1    3    3    0    0  0.32043626633E+02  0.29184746678E+01 -0.73702553428E+03  0.73772755790E+03  0.00000000000E+00 0.  1.
          5    1    4    4  501    0 -0.52767972805E+01 -0.26868390694E+02  0.31990667705E+02  0.42315838976E+02  0.41800000000E+01 0. -1.
         -5    1    4    4    0  501 -0.10015371789E+03  0.12015842625E+03  0.64020178076E+02  0.16907060716E+03  0.41800000000E+01 0. -1.
</event>
<event>
11    1  0.8864208E-009  0.1546768E+03  0.7561462E-02  0.1092194E+00
         22   -1    0    0    0    0  0.00000000000E+00  0.00000000000E+00  0.22880929633E+03  0.22880929633E+03  0.00000000000E+00 0. -1.
         22   -1    0    0    0    0 -0.00000000000E+00 -0.00000000000E+00 -0.48065743365E+03  0.48065743365E+03  0.00000000000E+00 0. -1.
         24    2    1    2    0    0 -0.79654220258E+02  0.35322242169E+02 -0.30560400940E+03  0.32724519052E+03  0.78122650713E+02 0.  0.
         25    2    1    2    0    0  0.72463100978E+02 -0.97503877343E+02 -0.97017732434E+02  0.19954405410E+03  0.12508989576E+03 0.  0.
        -24    2    1    2    0    0  0.71911192799E+01  0.62181635175E+02  0.15077360452E+03  0.18267748536E+03  0.81976312974E+02 0.  0.
        -11    1    3    3    0    0 -0.53933377155E+02  0.23728705638E+02 -0.77258910469E+02  0.97163778691E+02  0.00000000000E+00 0.  1.
         12    1    3    3    0    0 -0.25720843103E+02  0.11593536530E+02 -0.22834509894E+03  0.23008141182E+03  0.00000000000E+00 0. -1.
         11    1    5    5    0    0  0.20667305851E+02  0.19755108088E+02  0.13079701516E+03  0.13388525312E+03  0.00000000000E+00 0. -1.
        -12    1    5    5    0    0 -0.13476186571E+02  0.42426527086E+02  0.19976589356E+02  0.48792232244E+02  0.00000000000E+00 0.  1.
          5    1    4    4  501    0  0.64335694536E+01 -0.10581285305E+03 -0.46238284020E+02  0.11572900240E+03  0.41800000000E+01 0. -1.
         -5    1    4    4    0  501  0.66029531524E+02  0.83089757114E+01 -0.50779448414E+02  0.83815051702E+02  0.41800000000E+01 0. -1.
</event>
<event>
11    1  0.8864208E-009  0.1632538E+03  0.7561462E-02  0.1084056E+00
         22   -1    0    0    0    0  0.00000000000E+00  0.00000000000E+00  0.30134543478E+04  0.30134543478E+04  0.00000000000E+00 0. -1.
         22   -1    0    0    0    0 -0.00000000000E+00 -0.00000000000E+00 -0.19136275116E+03  0.19136275116E+03  0.00000000000E+00 0.  1.
        -24    2    1    2    0    0 -0.43820917988E+01 -0.10582842603E+03 -0.15404215033E+03  0.20455394406E+03  0.83032966169E+02 0.  0.
         25    2    1    2    0    0  0.61058547021E+02  0.78318735065E+02  0.57057238860E+03  0.59250533859E+03  0.12509098768E+03 0.  0.
         24    2    1    2    0    0 -0.56676455222E+02  0.27509690960E+02  0.24055613584E+04  0.24077578163E+04  0.81260380389E+02 0.  0.
        -11    1    5    5    0    0 -0.37987481710E+01  0.45359959614E+02  0.88074328357E+03  0.88191875362E+03  0.00000000000E+00 0.  1.
         12    1    5    5    0    0 -0.52877707051E+02 -0.17850268654E+02  0.15248180748E+04  0.15258390627E+04  0.00000000000E+00 0. -1.
         13    1    3    3    0    0 -0.15609333945E+02 -0.76014081416E+02 -0.42344068574E+02  0.88401425459E+02  0.00000000000E+00 0. -1.
        -14    1    3    3    0    0  0.11227242146E+02 -0.29814344609E+02 -0.11169808176E+03  0.11615251861E+03  0.00000000000E+00 0.  1.
          5    1    4    4  501    0  0.90667302210E+02  0.19165412962E+02  0.35914189283E+03  0.37092889390E+03  0.41800000000E+01 0. -1.
         -5    1    4    4    0  501 -0.29608755189E+02  0.59153322104E+02  0.21143049577E+03  0.22157644469E+03  0.41800000000E+01 0. -1.
</event>
<event>
11    1  0.8864208E-009  0.2716961E+03  0.7561462E-02  0.1012937E+00
         22   -1    0    0    0    0  0.00000000000E+00  0.00000000000E+00  0.49789354330E+03  0.49789354330E+03  0.00000000000E+00 0.  1.
         22   -1    0    0    0    0 -0.00000000000E+00 -0.00000000000E+00 -0.21971586739E+03  0.21971586739E+03  0.00000000000E+00 0.  1.
         24    2    1    2    0    0  0.66680339266E+01 -0.51786107867E+02  0.15791077524E+02  0.96174135634E+02  0.79207591751E+02 0.  0.
         25    2    1    2    0    0 -0.24170660380E+03  0.79928485802E+02  0.38457075853E+02  0.28624634128E+03  0.12508947219E+03 0.  0.
        -24    2    1    2    0    0  0.23503856987E+03 -0.28142377935E+02  0.22392952253E+03  0.33518893377E+03  0.78562506948E+02 0.  0.
        -11    1    3    3    0    0  0.25061555501E+02 -0.52137364013E+02 -0.15488548706E+02  0.59885569475E+02  0.00000000000E+00 0.  1.
         12    1    3    3    0    0 -0.18393521574E+02  0.35125614556E+00  0.31279626230E+02  0.36288566159E+02  0.00000000000E+00 0. -1.
         13    1    5    5    0    0  0.69043994675E+02 -0.45096888251E+02  0.78295588751E+02  0.11371456261E+03  0.00000000000E+00 0. -1.
        -14    1    5    5    0    0  0.16599457519E+03  0.16954510316E+02  0.14563393378E+03  0.22147437117E+03  0.00000000000E+00 0.  1.
          5    1    4    4  501    0 -0.84850210083E+02  0.44562829496E+02  0.74436194765E+02  0.12142332319E+03  0.41800000000E+01 0. -1.
         -5    1    4    4    0  501 -0.15685639371E+03  0.35365656306E+02 -0.35979118912E+02  0.16482301809E+03  0.41800000000E+01 0. -1.
</event>
<event>
11    1  0.8864208E-009  0.2100437E+03  0.7561462E-02  0.1047640E+00
         22   -1    0    0    0    0  0.00000000000E+00  0.00000000000E+00  0.59772492845E+03  0.59772492845E+03  0.00000000000E+00 0.  1.
         22   -1    0    0    0    0 -0.00000000000E+00 -0.00000000000E+00 -0.22207519399E+03  0.22207519399E+03  0.00000000000E+00 0. -1.
        -24    2    1    2    0    0 -0.74720136379E+02 -0.15105851285E+03 -0.12833633856E+03  0.22758584969E+03  0.83206550804E+02 0.  0.
         25    2    1    2    0    0  0.67433793318E+02  0.15615571519E+03  0.23348426154E+03  0.31478945914E+03  0.12508229022E+03 0.  0.
         24    2    1    2    0    0  0.72863430613E+01 -0.50972023396E+01  0.27050181149E+03  0.27742481362E+03  0.60944441313E+02 0.  0.
        -13    1    5    5    0    0 -0.18117149236E+02 -0.13558375328E+02  0.21058643750E+03  0.21179874480E+03  0.00000000000E+00 0.  1.
         14    1    5    5    0    0  0.25403492297E+02  0.84611729886E+01  0.59915373985E+02  0.65626068822E+02  0.00000000000E+00 0. -1.
         13    1    3    3    0    0 -0.14228199457E+02 -0.11817051975E+03 -0.84316470558E+02  0.14586288289E+03  0.00000000000E+00 0. -1.
        -14    1    3    3    0    0 -0.60491936922E+02 -0.32887993100E+02 -0.44019868007E+02  0.81722966796E+02  0.00000000000E+00 0.  1.
          5    1    4    4  501    0  0.38854587249E+02  0.81436135542E+01  0.11881261714E+03  0.12533917098E+03  0.41800000000E+01 0. -1.
         -5    1    4    4    0  501  0.28579206069E+02  0.14801210164E+03  0.11467164440E+03  0.18945028815E+03  0.41800000000E+01 0. -1.
</event>
<event>
11    1  0.8864208E-009  0.1842361E+03  0.7561462E-02  0.1066267E+00
         22   -1    0    0    0    0  0.00000000000E+00  0.00000000000E+00  0.77880515368E+03  0.77880515368E+03  0.00000000000E+00 0. -1.
         22   -1    0    0    0    0 -0.00000000000E+00 -0.00000000000E+00 -0.14306919112E+03  0.14306919112E+03  0.00000000000E+00 0.  1.
         24    2    1    2    0    0 -0.81709747675E+01  0.16522388985E+01 -0.45885689962E+02  0.92870982432E+02  0.80312067042E+02 0.  0.
         25    2    1    2    0    0  0.64627117811E+02  0.12098209458E+03  0.71161380318E+02  0.19880441308E+03  0.12508365620E+03 0.  0.
        -24    2    1    2    0    0 -0.56456143043E+02 -0.12263433348E+03  0.61046027221E+03  0.63019894929E+03  0.79135933069E+02 0.  0.
        -11    1    3    3    0    0 -0.24790983483E+02 -0.30725341101E+02 -0.39637589403E+02  0.55944418323E+02  0.00000000000E+00 0.  1.
         12    1    3    3    0    0  0.16620008716E+02  0.32377579999E+02 -0.62481005584E+01  0.36926564109E+02  0.00000000000E+00 0. -1.
         11    1    5    5    0    0 -0.30072645667E+02 -0.86618450708E+02  0.53270043250E+03  0.54053387572E+03  0.00000000000E+00 0. -1.
        -12    1    5    5    0    0 -0.26383497377E+02 -0.36015882768E+02  0.77759839709E+02  0.89665073563E+02  0.00000000000E+00 0.  1.
          5    1    4    4  501    0 -0.28189618759E+02  0.69927364595E+02  0.50373303910E+02  0.90771322959E+02  0.41800000000E+01 0.  1.
         -5    1    4    4    0  501  0.92816736570E+02  0.51054729982E+02  0.20788076408E+02  0.10803309012E+03  0.41800000000E+01 0.  1.
</event>
<event>
11    1  0.8864208E-009  0.2093837E+03  0.7561462E-02  0.1048079E+00
         22   -1    0    0    0    0  0.00000000000E+00  0.00000000000E+00  0.36669202917E+03  0.36669202917E+03  0.00000000000E+00 0.  1.
         22   -1    0    0    0    0 -0.00000000000E+00 -0.00000000000E+00 -0.36653490495E+04  0.36653490495E+04  0.00000000000E+00 0.  1.
         24    2    1    2    0    0  0.72305276971E+01  0.16606480923E+03 -0.33700292431E+04  0.33750695922E+04  0.79798822366E+02 0.  0.
         25    2    1    2    0    0 -0.55091491646E+02 -0.19994352726E+03 -0.23321624505E+03  0.33622815540E+03  0.12508824479E+03 0.  0.
        -24    2    1    2    0    0  0.47860963949E+02  0.33878718029E+02  0.30458846773E+03  0.32074333107E+03  0.81631552393E+02 0.  0.
        -13    1    3    3    0    0  0.85146956757E+01  0.17457619219E+03 -0.31196599752E+04  0.31245524012E+04  0.00000000000E+00 0.  1.
         14    1    3    3    0    0 -0.12841679786E+01 -0.85113829563E+01 -0.25036926784E+03  0.25051719104E+03  0.00000000000E+00 0. -1.
         11    1    5    5    0    0  0.31623154147E+02 -0.22572037491E+02  0.85436491423E+02  0.93855819326E+02  0.00000000000E+00 0. -1.
        -12    1    5    5    0    0  0.16237809802E+02  0.56450755520E+02  0.21915197630E+03  0.22688751174E+03  0.00000000000E+00 0.  1.
          5    1    4    4  501    0 -0.18828983880E+02 -0.70937599407E+02 -0.77615694755E+01  0.73921498932E+02  0.41800000000E+01 0. -1.
         -5    1    4    4    0  501 -0.36262507766E+02 -0.12900592785E+03 -0.22545467557E+03  0.26230665647E+03  0.41800000000E+01 0. -1.
</event>
<event>
11    1  0.8864208E-009  0.1564771E+03  0.7561462E-02  0.1090438E+00
         22   -1    0    0    0    0  0.00000000000E+00  0.00000000000E+00  0.80451195809E+03  0.80451195809E+03  0.00000000000E+00 0.  1.
         22   -1    0    0    0    0 -0.00000000000E+00 -0.00000000000E+00 -0.44035486318E+03  0.44035486318E+03  0.00000000000E+00 0.  1.
        -24    2    1    2    0    0 -0.84928312814E+02  0.34968322567E+02 -0.26583063228E+03  0.29274439427E+03  0.81226556084E+02 0.  0.
         25    2    1    2    0    0  0.10990903116E+03  0.10741199376E+02 -0.11400364077E+03  0.20210953015E+03  0.12512419260E+03 0.  0.
         24    2    1    2    0    0 -0.24980718344E+02 -0.45709521943E+02  0.74399136795E+03  0.75001289686E+03  0.79264072408E+02 0.  0.
        -11    1    5    5    0    0  0.28512401563E+02 -0.10617180603E+02  0.27503170450E+03  0.27670945060E+03  0.00000000000E+00 0.  1.
         12    1    5    5    0    0 -0.53493119907E+02 -0.35092341340E+02  0.46895966345E+03  0.47330344626E+03  0.00000000000E+00 0. -1.
         13    1    3    3    0    0 -0.84177317220E+02  0.25166287634E+02 -0.13207754372E+03  0.15863051511E+03  0.00000000000E+00 0. -1.
        -14    1    3    3    0    0 -0.75099559385E+00  0.98020349322E+01 -0.13375308856E+03  0.13411387916E+03  0.00000000000E+00 0.  1.
          5    1    4    4  501    0  0.52664475118E+02  0.16964176338E+02 -0.13071663279E+03  0.14200577702E+03  0.41800000000E+01 0.  1.
         -5    1    4    4    0  501  0.57244556039E+02 -0.62229769623E+01  0.16712992020E+02  0.60103753133E+02  0.41800000000E+01 0.  1.
</event>
<event>
11    1  0.8864208E-009  0.1276385E+03  0.7561462E-02  0.1122205E+00
         22   -1    0    0    0    0  0.00000000000E+00  0.00000000000E+00  0.26458420014E+03  0.26458420014E+03  0.00000000000E+00 0.  1.
         22   -1    0    0    0    0 -0.00000000000E+00 -0.00000000000E+00 -0.23452116655E+03  0.23452116655E+03  0.00000000000E+00 0.  1.
        -24    2    1    2    0    0  0.16182802405E+02  0.10217108070E+02 -0.13189370714E+03  0.15519398288E+03  0.79516978998E+02 0.  0.
         25    2    1    2    0    0 -0.27456531939E+02  0.12657045209E+02 -0.31732298103E+02  0.13254724808E+03  0.12509105600E+03 0.  0.
         24    2    1    2    0    0  0.11273729533E+02 -0.22874153279E+02  0.19368903884E+03  0.21136413572E+03  0.80678561198E+02 0.  0.
        -11    1    5    5    0    0  0.21235683553E+02 -0.49170402826E+02  0.15126018033E+03  0.16046284593E+03  0.00000000000E+00 0.  1.
         12    1    5    5    0    0 -0.99619540196E+01  0.26296249547E+02  0.42428858504E+02  0.50901289788E+02  0.00000000000E+00 0. -1.
         13    1    3    3    0    0  0.16584422226E+02 -0.33569027923E+02 -0.69881992016E+02  0.79280612412E+02  0.00000000000E+00 0. -1.
        -14    1    3    3    0    0 -0.40161982071E+00  0.43786135993E+02 -0.62011715124E+02  0.75913370472E+02  0.00000000000E+00 0.  1.
          5    1    4    4  501    0 -0.49379647135E+02 -0.44901028557E+02 -0.14067198872E+02  0.68336011010E+02  0.41800000000E+01 0. -1.
         -5    1    4    4    0  501  0.21923115196E+02  0.57558073766E+02 -0.17665099231E+02  0.64211237073E+02  0.41800000000E+01 0. -1.
</event>
<event>
11    1  0.8864208E-009  0.1459852E+03  0.7561462E-02  0.1101053E+00
         22   -1    0    0    0    0  0.00000000000E+00  0.00000000000E+00  0.50350490456E+02  0.50350490456E+02  0.00000000000E+00 0. -1.
         22   -1    0    0    0    0 -0.00000000000E+00 -0.00000000000E+00 -0.18530604942E+04  0.18530604942E+04  0.00000000000E+00 0. -1.
        -24    2    1    2    0    0  0.78072381167E+01 -0.76495313954E+02 -0.14421430450E+04  0.14463777007E+04  0.79494684422E+02 0.  0.
         25    2    1    2    0    0 -0.36698154457E+02  0.59795618733E+02 -0.33770556877E+03  0.36689935816E+03  0.12509123584E+03 0.  0.
         24    2    1    2    0    0  0.28890916340E+02  0.16699695221E+02 -0.22861389942E+02  0.90133925747E+02  0.80547604266E+02 0.  0.
        -11    1    5    5    0    0 -0.19329667621E+02  0.25427026266E+02 -0.25775708640E+02  0.41043353554E+02  0.00000000000E+00 0.  1.
         12    1    5    5    0    0  0.48220583961E+02 -0.87273310451E+01  0.29143186976E+01  0.49090572192E+02  0.00000000000E+00 0. -1.
         11    1    3    3    0    0  0.36614297385E+02 -0.24441929736E+02 -0.87879585197E+03  0.87989781460E+03  0.00000000000E+00 0. -1.
        -12    1    3    3    0    0 -0.28807059268E+02 -0.52053384218E+02 -0.56334719305E+03  0.56647988613E+03  0.00000000000E+00 0.  1.
          5    1    4    4  501    0 -0.18829963312E+02  0.70617457318E+02 -0.33775332318E+03  0.34559538845E+03  0.41800000000E+01 0.  1.
         -5    1    4    4    0  501 -0.17868191144E+02 -0.10821838585E+02  0.47754414226E-01  0.21303969715E+02  0.41800000000E+01 0.  1.
</event>
<event>
11    1  0.8864208E-009  0.1598055E+03  0.7561462E-02  0.1087260E+00
         22   -1    0    0    0    0  0.00000000000E+00  0.00000000000E+00  0.11981642629E+04  0.11981642629E+04  0.00000000000E+00 0. -1.
         22   -1    0    0    0    0 -0.00000000000E+00 -0.00000000000E+00 -0.17171966121E+03  0.17171966121E+03  0.00000000000E+00 0.  1.
        -24    2    1    2    0    0  0.54304912082E+02  0.32237664249E+02 -0.11445467982E+03  0.15368814774E+03  0.80820062798E+02 0.  0.
         25    2    1    2    0    0 -0.13974775950E+03  0.10379398408E+02  0.23008756050E+03  0.29702579328E+03  0.12508744214E+03 0.  0.
         24    2    1    2    0    0  0.85442847415E+02 -0.42617062657E+02  0.91081172105E+03  0.91916998313E+03  0.78605168268E+02 0.  0.
        -11    1    5    5    0    0  0.37332138917E+02 -0.17511809144E+02  0.12796813900E+03  0.13444774693E+03  0.00000000000E+00 0.  1.
         12    1    5    5    0    0  0.48110708498E+02 -0.25105253513E+02  0.78284358205E+03  0.78472223620E+03  0.00000000000E+00 0. -1.
         13    1    3    3    0    0  0.64094201970E+01 -0.14417568462E+02  0.52052423354E+01  0.16614496543E+02  0.00000000000E+00 0. -1.
        -14    1    3    3    0    0  0.47895491885E+02  0.46655232711E+02 -0.11965992216E+03  0.13707365120E+03  0.00000000000E+00 0.  1.
          5    1    4    4  501    0 -0.51354327313E+02  0.40948841162E+02  0.22930482624E+02  0.69694719740E+02  0.41800000000E+01 0. -1.
         -5    1    4    4    0  501 -0.88393432184E+02 -0.30569442754E+02  0.20715707787E+03  0.22733107354E+03  0.41800000000E+01 0. -1.
</event>
<event>
11    1  0.8864208E-009  0.1602484E+03  0.7561462E-02  0.1086844E+00
         22   -1    0    0    0    0  0.00000000000E+00  0.00000000000E+00  0.15381739249E+04  0.15381739249E+04  0.00000000000E+00 0.  1.
         22   -1    0    0    0    0 -0.00000000000E+00 -0.00000000000E+00 -0.67653345775E+02  0.67653345775E+02  0.00000000000E+00 0.  1.
         24    2    1    2    0    0  0.73022701863E+01 -0.17473936555E+02 -0.22241813298E+02  0.83764777390E+02  0.78505911011E+02 0.  0.
         25    2    1    2    0    0  0.94983696532E+02  0.19269561743E+02  0.62812756985E+03  0.64775363615E+03  0.12508921028E+03 0.  0.
        -24    2    1    2    0    0 -0.10228596672E+03 -0.17956251874E+01  0.86463482262E+03  0.87430885718E+03  0.79730533664E+02 0.  0.
        -13    1    3    3    0    0 -0.82222167073E+01 -0.37357840281E+02  0.13021154309E+02  0.40407468834E+02  0.00000000000E+00 0.  1.
         14    1    3    3    0    0  0.15524486894E+02  0.19883903726E+02 -0.35262967607E+02  0.43357308555E+02  0.00000000000E+00 0. -1.
         13    1    5    5    0    0 -0.58432388382E+02  0.24495954476E+02  0.26379077591E+03  0.27129314266E+03  0.00000000000E+00 0. -1.
        -14    1    5    5    0    0 -0.43853578337E+02 -0.26291579664E+02  0.60084404671E+03  0.60301571452E+03  0.00000000000E+00 0.  1.
          5    1    4    4  501    0  0.94682386311E+01 -0.20705216121E+02  0.40216093618E+03  0.40282656877E+03  0.41800000000E+01 0.  1.
         -5    1    4    4    0  501  0.85515457901E+02  0.39974777863E+02  0.22596663367E+03  0.24492706738E+03  0.41800000000E+01 0.  1.
</event>
<event>
11    1  0.8864208E-009  0.1565727E+03  0.7561462E-02  0.1090346E+00
         22   -1    0    0    0    0  0.00000000000E+00  0.00000000000E+00  0.12031969033E+04  0.12031969033E+04  0.00000000000E+00 0.  1.
         22   -1    0    0    0    0 -0.00000000000E+00 -0.00000000000E+00 -0.44712411863E+03  0.44712411863E+03  0.00000000000E+00 0.  1.
        -24    2    1    2    0    0 -0.12585305037E+02 -0.32458504566E+02 -0.42223449144E+03  0.43115929886E+03  0.80027687795E+02 0.  0.
         25    2    1    2    0    0  0.85063891663E+02 -0.31546000215E+02  0.36680014125E+03  0.39802115223E+03  0.12508988053E+03 0.  0.
         24    2    1    2    0    0 -0.72478586627E+02  0.64004504781E+02  0.81150713482E+03  0.82114057080E+03  0.79864165911E+02 0.  0.
        -11    1    5    5    0    0 -0.35847862195E+02  0.73733230713E+02  0.65493137923E+03  0.66004300620E+03  0.00000000000E+00 0.  1.
         12    1    5    5    0    0 -0.36630724432E+02 -0.97287259320E+01  0.15657575559E+03  0.16109756460E+03  0.00000000000E+00 0. -1.
         13    1    3    3    0    0 -0.64616510335E+01  0.26483639629E+02 -0.16064810025E+03  0.16294461702E+03  0.00000000000E+00 0. -1.
        -14    1    3    3    0    0 -0.61236540032E+01 -0.58942144195E+02 -0.26158639119E+03  0.26821468185E+03  0.00000000000E+00 0.  1.
          5    1    4    4  501    0  0.14369447760E+02 -0.58766660395E+02  0.74634520481E+02  0.96165406724E+02  0.41800000000E+01 0. -1.
         -5    1    4    4    0  501  0.70694443904E+02  0.27220660180E+02  0.29216562077E+03  0.30185574551E+03  0.41800000000E+01 0. -1.
</event>
<event>
11    1  0.8864208E-009  0.2380388E+03  0.7561462E-02  0.1030471E+00
         22   -1    0    0    0    0  0.00000000000E+00  0.00000000000E+00  0.15518680642E+03  0.15518680642E+03  0.00000000000E+00 0.  1.
         22   -1    0    0    0    0 -0.00000000000E+00 -0.00000000000E+00 -0.23917894143E+04  0.23917894143E+04  0.00000000000E+00 0. -1.
        -24    2    1    2    0    0 -0.77409015401E+02 -0.18326833530E+03 -0.21055815605E+04  0.21169952996E+04  0.92822153772E+02 0.  0.
         25    2    1    2    0    0  0.80140799118E+02  0.25905298432E+03 -0.99764868933E+02  0.31485130471E+03  0.12508924270E+03 0.  0.
         24    2    1    2    0    0 -0.27317837163E+01 -0.75784649018E+02 -0.31256178420E+02  0.11512961639E+03  0.80790495797E+02 0.  0.
        -13    1    5    5    0    0  0.88394436154E+01 -0.46159805417E+02  0.22934068159E+02  0.52295648786E+02  0.00000000000E+00 0.  1.
         14    1    5    5    0    0 -0.11571227332E+02 -0.29624843601E+02 -0.54190246579E+02  0.62833967602E+02  0.00000000000E+00 0. -1.
         11    1    3    3    0    0 -0.66214151751E+02 -0.18936580134E+03 -0.20573574984E+04  0.20671148001E+04  0.00000000000E+00 0. -1.
        -12    1    3    3    0    0 -0.11194863650E+02  0.60974660418E+01 -0.48224062128E+02  0.49880499521E+02  0.00000000000E+00 0.  1.
          5    1    4    4  501    0  0.25096570197E+02  0.24729789177E+02 -0.61627547158E+02  0.71111372347E+02  0.41800000000E+01 0. -1.
         -5    1    4    4    0  501  0.55044228920E+02  0.23432319514E+03 -0.38137321775E+02  0.24373993237E+03  0.41800000000E+01 0. -1.
</event>
<event>
11    1  0.8864208E-009  0.1402079E+03  0.7561462E-02  0.1107327E+00
         22   -1    0    0    0    0  0.00000000000E+00  0.00000000000E+00  0.11981546059E+03  0.11981546059E+03  0.00000000000E+00 0.  1.
         22   -1    0    0    0    0 -0.00000000000E+00 -0.00000000000E+00 -0.15220785736E+04  0.15220785736E+04  0.00000000000E+00 0. -1.
        -24    2    1    2    0    0  0.58506607223E+02  0.12082830524E+02 -0.11999946008E+04  0.12038568084E+04  0.75598647628E+02 0.  0.
         25    2    1    2    0    0 -0.11704976182E+03 -0.11954523230E+02 -0.26893939484E+03  0.31909261094E+03  0.12509252133E+03 0.  0.
         24    2    1    2    0    0  0.58543154595E+02 -0.12830729421E+00  0.66670882572E+02  0.11894461481E+03  0.79218037068E+02 0.  0.
        -13    1    5    5    0    0  0.36301032999E+02  0.54336240737E+01  0.83028771765E+02  0.90780318396E+02  0.00000000000E+00 0.  1.
         14    1    5    5    0    0  0.22242121596E+02 -0.55619313679E+01 -0.16357889193E+02  0.28164296414E+02  0.00000000000E+00 0. -1.
         13    1    3    3    0    0 -0.54713548619E+01  0.88012933097E+00 -0.65241663084E+03  0.65244016626E+03  0.00000000000E+00 0. -1.
        -14    1    3    3    0    0  0.63977962085E+02  0.11202701193E+02 -0.54757796991E+03  0.55141664218E+03  0.00000000000E+00 0.  1.
          5    1    4    4  501    0  0.11989316434E+02  0.14170745836E+02  0.65570146174E+00  0.19038279610E+02  0.41800000000E+01 0.  1.
         -5    1    4    4    0  501 -0.12903907825E+03 -0.26125269066E+02 -0.26959509630E+03  0.30005433133E+03  0.41800000000E+01 0.  1.
</event>
<event>
11    1  0.8864208E-009  0.1500818E+03  0.7561462E-02  0.1096795E+00
         22   -1    0    0    0    0  0.00000000000E+00  0.00000000000E+00  0.59116049574E+03  0.59116049574E+03  0.00000000000E+00 0.  1.
         22   -1    0    0    0    0 -0.00000000000E+00 -0.00000000000E+00 -0.42246645143E+03  0.42246645143E+03  0.00000000000E+00 0. -1.
         24    2    1    2    0    0  0.71401641863E+02  0.51021469039E+02 -0.29334880762E+03  0.31620627664E+03  0.78939861246E+02 0.  0.
         25    2    1    2    0    0 -0.28583952454E+02 -0.66467923791E+02 -0.67755877344E+02  0.15959689983E+03  0.12508111084E+03 0.  0.
        -24    2    1    2    0    0 -0.42817689409E+02  0.15446454751E+02  0.52979872927E+03  0.53782377071E+03  0.80596323140E+02 0.  0.
        -11    1    3    3    0    0  0.65231957000E+02  0.34418176995E+02 -0.11268575926E+03  0.13467701906E+03  0.00000000000E+00 0.  1.
         12    1    3    3    0    0  0.61696848629E+01  0.16603292044E+02 -0.18066304836E+03  0.18152925759E+03  0.00000000000E+00 0. -1.
         11    1    5    5    0    0 -0.33035493805E+02  0.21141872669E+02  0.93692960507E+02  0.10157112523E+03  0.00000000000E+00 0. -1.
        -12    1    5    5    0    0 -0.97821956042E+01 -0.56954179178E+01  0.43610576877E+03  0.43625264548E+03  0.00000000000E+00 0.  1.
          5    1    4    4  501    0 -0.55474711609E+02 -0.50067309788E+02 -0.92742366845E+02  0.11917549306E+03  0.41800000000E+01 0.  1.
         -5    1    4    4    0  501  0.26890759155E+02 -0.16400614003E+02  0.24986489501E+02  0.40421406769E+02  0.41800000000E+01 0.  1.
</event>
<event>
11    1  0.8864208E-009  0.1685701E+03  0.7561462E-02  0.1079283E+00
         22   -1    0    0    0    0  0.00000000000E+00  0.00000000000E+00  0.17269024149E+03  0.17269024149E+03  0.00000000000E+00 0.  1.
         22   -1    0    0    0    0 -0.00000000000E+00 -0.00000000000E+00 -0.13992988045E+04  0.13992988045E+04  0.00000000000E+00 0.  1.
        -24    2    1    2    0    0  0.53889456288E+01  0.10765002513E+03 -0.77726069813E+03  0.78877152672E+03  0.80054730385E+02 0.  0.
         25    2    1    2    0    0 -0.40425369215E+02 -0.20935339968E+03 -0.55784835313E+03  0.61016736958E+03  0.12508548027E+03 0.  0.
         24    2    1    2    0    0  0.35036423586E+02  0.10170337455E+03  0.10850048821E+03  0.17305014974E+03  0.81258051964E+02 0.  0.
        -13    1    5    5    0    0  0.58786763493E+02  0.89879810978E+02  0.94488466193E+02  0.14304661557E+03  0.00000000000E+00 0.  1.
         14    1    5    5    0    0 -0.23750339906E+02  0.11823563567E+02  0.14012022022E+02  0.30003534162E+02  0.00000000000E+00 0. -1.
         11    1    3    3    0    0 -0.16803858159E+02 -0.22954811901E+01 -0.47403024239E+02  0.50345661084E+02  0.00000000000E+00 0. -1.
        -12    1    3    3    0    0  0.22192803787E+02  0.10994550632E+03 -0.72985767389E+03  0.73842586564E+03  0.00000000000E+00 0.  1.
          5    1    4    4  501    0  0.28043309661E+02 -0.17164582855E+02 -0.15591266443E+03  0.15939661681E+03  0.41800000000E+01 0.  1.
         -5    1    4    4    0  501 -0.68468678876E+02 -0.19218881682E+03 -0.40193568870E+03  0.45077075277E+03  0.41800000000E+01 0.  1.
</event>
<event>
11    1  0.8864208E-009  0.1401756E+03  0.7561462E-02  0.1107363E+00
         22   -1    0    0    0    0  0.00000000000E+00  0.00000000000E+00  0.95320974192E+03  0.95320974192E+03  0.00000000000E+00 0. -1.
         22   -1    0    0    0    0 -0.00000000000E+00 -0.00000000000E+00 -0.35585073050E+03  0.35585073050E+03  0.00000000000E+00 0.  1.
        -24    2    1    2    0    0 -0.62617137023E+02 -0.75672626213E+01 -0.29308329734E+03  0.31009366958E+03  0.79259670851E+02 0.  0.
         25    2    1    2    0    0  0.67110002783E+02 -0.13184121903E+02  0.45174297215E+02  0.14955409420E+03  0.12509251144E+03 0.  0.
         24    2    1    2    0    0 -0.44928657607E+01  0.20751384524E+02  0.84526801155E+03  0.84941270864E+03  0.81074857027E+02 0.  0.
        -11    1    5    5    0    0  0.24392696490E+02  0.12247379882E+02  0.10364835601E+03  0.10718201183E+03  0.00000000000E+00 0.  1.
         12    1    5    5    0    0 -0.28885562251E+02  0.85040046418E+01  0.74161965554E+03  0.74223069681E+03  0.00000000000E+00 0. -1.
         11    1    3    3    0    0 -0.61564014974E+02  0.22040527636E+02 -0.14480890036E+03  0.15888842129E+03  0.00000000000E+00 0. -1.
        -12    1    3    3    0    0 -0.10531220483E+01 -0.29607790257E+02 -0.14827439698E+03  0.15120524829E+03  0.00000000000E+00 0.  1.
          5    1    4    4  501    0  0.29272046189E+02 -0.68712873334E+02  0.29620949770E+02  0.80456104275E+02  0.41800000000E+01 0.  1.
         -5    1    4    4    0  501  0.37837956594E+02  0.55528751431E+02  0.15553347445E+02  0.69097989924E+02  0.41800000000E+01 0.  1.
</event>
<event>
11    1  0.8864208E-009  0.1520094E+03  0.7561462E-02  0.1094843E+00
         22   -1    0    0    0    0  0.00000000000E+00  0.00000000000E+00  0.92993589869E+03  0.92993589869E+03  0.00000000000E+00 0.  1.
         22   -1    0    0    0    0 -0.00000000000E+00 -0.00000000000E+00 -0.84835946713E+02  0.84835946713E+02  0.00000000000E+00 0. -1.
         24    2    1    2    0    0 -0.36634868586E+02  0.43403899214E+02 -0.10839436436E+02  0.10069814871E+03  0.82441565414E+02 0.  0.
         25    2    1    2    0    0 -0.25970205740E+02 -0.10109199050E+03  0.26152491085E+03  0.30812056873E+03  0.12509581827E+03 0.  0.
        -24    2    1    2    0    0  0.62605074326E+02  0.57688091283E+02  0.59441447756E+03  0.60595312797E+03  0.81260758981E+02 0.  0.
        -11    1    3    3    0    0  0.32546956537E+01 -0.22372428952E+02 -0.70363093266E+01  0.23677590037E+02  0.00000000000E+00 0.  1.
         12    1    3    3    0    0 -0.39889564240E+02  0.65776328167E+02 -0.38031271095E+01  0.77020558672E+02  0.00000000000E+00 0. -1.
         13    1    5    5    0    0 -0.11545870100E+02 -0.63854511588E+01  0.26037482435E+02  0.29189580237E+02  0.00000000000E+00 0. -1.
        -14    1    5    5    0    0  0.74150944426E+02  0.64073542442E+02  0.56837699513E+03  0.57676354773E+03  0.00000000000E+00 0.  1.
          5    1    4    4  501    0  0.18981366721E+02  0.22327240643E+02  0.68318880637E+02  0.74456294621E+02  0.41800000000E+01 0. -1.
         -5    1    4    4    0  501 -0.44951572460E+02 -0.12341923114E+03  0.19320603022E+03  0.23366427411E+03  0.41800000000E+01 0. -1.
</event>
<event>
11    1  0.8864208E-009  0.1843552E+03  0.7561462E-02  0.1066173E+00
         22   -1    0    0    0    0  0.00000000000E+00  0.00000000000E+00  0.94134046643E+03  0.94134046643E+03  0.00000000000E+00 0. -1.
         22   -1    0    0    0    0 -0.00000000000E+00 -0.00000000000E+00 -0.53812231116E+03  0.53812231116E+03  0.00000000000E+00 0.  1.
        -24    2    1    2    0    0  0.26597560218E+02 -0.13032722465E+03 -0.46225237302E+03  0.48757217365E+03  0.79729244684E+02 0.  0.
         25    2    1    2    0    0 -0.39915187049E+02  0.16579745441E+03  0.12374235798E+03  0.24503665474E+03  0.12509505571E+03 0.  0.
         24    2    1    2    0    0  0.13317626830E+02 -0.35470229763E+02  0.74172817032E+03  0.74685394920E+03  0.78706076106E+02 0.  0.
        -11    1    5    5    0    0  0.75766798741E+01  0.22373983348E+02  0.11289578587E+03  0.11534062457E+03  0.00000000000E+00 0.  1.
         12    1    5    5    0    0  0.57409469561E+01 -0.57844213111E+02  0.62883238445E+03  0.63151332463E+03  0.00000000000E+00 0. -1.
         13    1    3    3    0    0  0.24241459772E+02 -0.12965525067E+03 -0.33123036183E+03  0.35652725701E+03  0.00000000000E+00 0. -1.
        -14    1    3    3    0    0  0.23561004468E+01 -0.67197398038E+00 -0.13102201119E+03  0.13104491664E+03  0.00000000000E+00 0.  1.
          5    1    4    4  501    0  0.31764037327E+02  0.12407899506E+03  0.68599836070E+02  0.14535460430E+03  0.41800000000E+01 0.  1.
         -5    1    4    4    0  501 -0.71679224376E+02  0.41718459347E+02  0.55142521909E+02  0.99682050440E+02  0.41800000000E+01 0.  1.
</event>
<event>
11    1  0.8864208E-009  0.1460177E+03  0.7561462E-02  0.1101019E+00
         22   -1    0    0    0    0  0.00000000000E+00  0.00000000000E+00  0.15495244598E+04  0.15495244598E+04  0.00000000000E+00 0.  1.
         22   -1    0    0    0    0 -0.00000000000E+00 -0.00000000000E+00 -0.46363698419E+03  0.46363698419E+03  0.00000000000E+00 0.  1.
        -24    2    1    2    0    0 -0.39295577518E+02 -0.65666545011E+02 -0.43407668363E+03  0.44805613545E+03  0.80470464763E+02 0.  0.
         25    2    1    2    0    0  0.58354298431E+02  0.59117693882E+01  0.21123779090E+03  0.25240640298E+03  0.12508962706E+03 0.  0.
         24    2    1    2    0    0 -0.19058720913E+02  0.59754775622E+02  0.13087263683E+04  0.13126989055E+04  0.80497462264E+02 0.  0.
        -11    1    5    5    0    0 -0.46397229747E+02  0.47945232394E+02  0.10773460033E+04  0.10794099588E+04  0.00000000000E+00 0.  1.
         12    1    5    5    0    0  0.27338508834E+02  0.11809543229E+02  0.23138036495E+03  0.23328894672E+03  0.00000000000E+00 0. -1.
         11    1    3    3    0    0 -0.17032139669E+02 -0.82840817077E+01 -0.14148298568E+02  0.23640942110E+02  0.00000000000E+00 0. -1.
        -12    1    3    3    0    0 -0.22263437849E+02 -0.57382463303E+02 -0.41992838506E+03  0.42441519334E+03  0.00000000000E+00 0.  1.
          5    1    4    4  501    0  0.95520532698E+02  0.63726640590E+01  0.17896613570E+03  0.20300525398E+03  0.41800000000E+01 0.  1.
         -5    1    4    4    0  501 -0.37166234266E+02 -0.46089467076E+00  0.32271655194E+02  0.49401148999E+02  0.41800000000E+01 0.  1.
</event>
<event>
11    1  0.8864208E-009  0.1699818E+03  0.7561462E-02  0.1078047E+00
         22   -1    0    0    0    0  0.00000000000E+00  0.00000000000E+00  0.50201434028E+03  0.50201434028E+03  0.00000000000E+00 0. -1.
         22   -1    0    0    0    0 -0.00000000000E+00 -0.00000000000E+00 -0.31478390750E+03  0.31478390750E+03  0.00000000000E+00 0. -1.
         24    2    1    2    0    0 -0.45671296495E+02  0.95470344680E+02 -0.13087541261E+03  0.18785218902E+03  0.83424320552E+02 0.  0.
         25    2    1    2    0    0  0.29807895412E+02 -0.13215562159E+03 -0.94492852280E+02  0.20719610015E+03  0.12509079039E+03 0.  0.
        -24    2    1    2    0    0  0.15863401083E+02  0.36685276906E+02  0.41259869767E+03  0.42174995862E+03  0.77703830290E+02 0.  0.
        -13    1    3    3    0    0  0.23847567403E+02  0.15836146303E+02 -0.22023934955E+02  0.36118467737E+02  0.00000000000E+00 0.  1.
         14    1    3    3    0    0 -0.69518863899E+02  0.79634198377E+02 -0.10885147765E+03  0.15173372129E+03  0.00000000000E+00 0. -1.
         13    1    5    5    0    0  0.47288662887E+02  0.23280637183E+02  0.27199264268E+03  0.27705270866E+03  0.00000000000E+00 0. -1.
        -14    1    5    5    0    0 -0.31425261803E+02  0.13404639722E+02  0.14060605499E+03  0.14469724995E+03  0.00000000000E+00 0.  1.
          5    1    4    4  501    0  0.43160966900E+02 -0.11353008542E+02 -0.70034284098E+02  0.83150665757E+02  0.41800000000E+01 0.  1.
         -5    1    4    4    0  501 -0.13353071488E+02 -0.12080261304E+03 -0.24458568182E+02  0.12404543439E+03  0.41800000000E+01 0.  1.
</event>
<event>
11    1  0.8864208E-009  0.1427079E+03  0.7561462E-02  0.1104572E+00
         22   -1    0    0    0    0  0.00000000000E+00  0.00000000000E+00  0.68589515405E+03  0.68589515405E+03  0.00000000000E+00 0. -1.
         22   -1    0    0    0    0 -0.00000000000E+00 -0.00000000000E+00 -0.15151092690E+04  0.15151092690E+04  0.00000000000E+00 0.  1.
         24    2    1    2    0    0 -0.72582284209E+02 -0.68709061714E+01 -0.14504122221E+04  0.14545418671E+04  0.81737578798E+02 0.  0.
         25    2    1    2    0    0 -0.17647501356E+01  0.11497254494E+02  0.10927940066E+02  0.12610026395E+03  0.12508619224E+03 0.  0.
        -24    2    1    2    0    0  0.74347034345E+02 -0.46263483229E+01  0.61027016703E+03  0.62036229206E+03  0.82890361503E+02 0.  0.
        -13    1    3    3    0    0 -0.72168525794E+02  0.25634270263E+02 -0.95665904015E+03  0.95971971483E+03  0.00000000000E+00 0.  1.
         14    1    3    3    0    0 -0.41375841521E+00 -0.32505176434E+02 -0.49375318194E+03  0.49482215226E+03  0.00000000000E+00 0. -1.
         11    1    5    5    0    0  0.73961182736E+02  0.17773637068E+02  0.56226162725E+03  0.56738372924E+03  0.00000000000E+00 0. -1.
        -12    1    5    5    0    0  0.38585160883E+00 -0.22399985391E+02  0.48008539776E+02  0.52978562819E+02  0.00000000000E+00 0.  1.
          5    1    4    4  501    0 -0.10169597833E+02 -0.31543572312E+02 -0.44282189746E+02  0.55468931871E+02  0.41800000000E+01 0.  1.
         -5    1    4    4    0  501  0.84048476971E+01  0.43040826806E+02  0.55210129812E+02  0.70631332076E+02  0.41800000000E+01 0.  1.
</event>
<event>
11    1  0.8864208E-009  0.2266693E+03  0.7561462E-02  0.1037118E+00
         22   -1    0    0    0    0  0.00000000000E+00  0.00000000000E+00  0.45054364805E+03  0.45054364805E+03  0.00000000000E+00 0.  1.
         22   -1    0    0    0    0 -0.00000000000E+00 -0.00000000000E+00 -0.18541249042E+04  0.18541249042E+04  0.00000000000E+00 0.  1.
        -24    2    1    2    0    0  0.33250621550E+02 -0.25819030297E+02 -0.16424824263E+04  0.16449094556E+04  0.78780518780E+02 0.  0.
         25    2    1    2    0    0  0.15231376212E+03  0.76264480003E+02 -0.12172706719E+03  0.24388661215E+03  0.12508975841E+03 0.  0.
         24    2    1    2    0    0 -0.18556438367E+03 -0.50445449706E+02  0.36062823734E+03  0.41587248454E+03  0.76930578771E+02 0.  0.
        -13    1    5    5    0    0 -0.13806025278E+03 -0.30722388187E+02  0.32153020958E+03  0.35126368187E+03  0.00000000000E+00 0.  1.
         14    1    5    5    0    0 -0.47504130890E+02 -0.19723061519E+02  0.39098027764E+02  0.64608802670E+02  0.00000000000E+00 0. -1.
         11    1    3    3    0    0  0.27271977100E+02 -0.36471027276E+02 -0.43724921478E+03  0.43961434507E+03  0.00000000000E+00 0. -1.
        -12    1    3    3    0    0  0.59786444500E+01  0.10651996979E+02 -0.12052332115E+04  0.12052951105E+04  0.00000000000E+00 0.  1.
          5    1    4    4  501    0  0.84772979423E+02  0.35676147796E+02  0.76050866044E+01  0.92382656944E+02  0.41800000000E+01 0. -1.
         -5    1    4    4    0  501  0.67540782697E+02  0.40588332207E+02 -0.12933215380E+03  0.15150395521E+03  0.41800000000E+01 0. -1.
</event>
<event>
11    1  0.8864208E-009  0.2020662E+03  0.7561462E-02  0.1053072E+00
         22   -1    0    0    0    0  0.00000000000E+00  0.00000000000E+00  0.13519604449E+04  0.13519604449E+04  0.00000000000E+00 0. -1.
         22   -1    0    0    0    0 -0.00000000000E+00 -0.00000000000E+00 -0.74424153290E+03  0.74424153290E+03  0.00000000000E+00 0.  1.
        -24    2    1    2    0    0  0.49899873369E+02 -0.66985520467E+02 -0.65324285542E+03  0.66328489236E+03  0.79016219683E+02 0.  0.
         25    2    1    2    0    0  0.39345220783E+02  0.19557011024E+03  0.95382694663E+02  0.25404920357E+03  0.12508966774E+03 0.  0.
         24    2    1    2    0    0 -0.89245094152E+02 -0.12858458978E+03  0.11655790728E+04  0.11788678819E+04  0.81585688053E+02 0.  0.
        -13    1    5    5    0    0 -0.49817351235E+02 -0.10690074556E+02  0.40579381952E+03  0.40898003635E+03  0.00000000000E+00 0.  1.
         14    1    5    5    0    0 -0.39427742917E+02 -0.11789451522E+03  0.75978525327E+03  0.76988784555E+03  0.00000000000E+00 0. -1.
         11    1    3    3    0    0  0.54952935428E+00 -0.93159688023E+01 -0.49498613433E+01  0.10563635007E+02  0.00000000000E+00 0. -1.
        -12    1    3    3    0    0  0.49350344015E+02 -0.57669551665E+02 -0.64829299407E+03  0.65272125736E+03  0.00000000000E+00 0.  1.
          5    1    4    4  501    0  0.37172492401E+02  0.25084870206E+02  0.67631298010E+02  0.81255829175E+02  0.41800000000E+01 0. -1.
         -5    1    4    4    0  501  0.21727283824E+01  0.17048524004E+03  0.27751396653E+02  0.17279337440E+03  0.41800000000E+01 0. -1.
</event>
<event>
11    1  0.8864208E-009  0.1654356E+03  0.7561462E-02  0.1082074E+00
         22   -1    0    0    0    0  0.00000000000E+00  0.00000000000E+00  0.95277618481E+03  0.95277618481E+03  0.00000000000E+00 0.  1.
         22   -1    0    0    0    0 -0.00000000000E+00 -0.00000000000E+00 -0.57691672648E+03  0.57691672648E+03  0.00000000000E+00 0.  1.
        -24    2    1    2    0    0  0.10681046862E+03  0.16758783234E+02 -0.49851567814E+03  0.51688011705E+03  0.83413674112E+02 0.  0.
         25    2    1    2    0    0 -0.12343555671E+03  0.92515625225E+02  0.92333364158E+02  0.21901783289E+03  0.12509150018E+03 0.  0.
         24    2    1    2    0    0  0.16625088087E+02 -0.10927440846E+03  0.78204177230E+03  0.79379496135E+03  0.79396581445E+02 0.  0.
        -11    1    5    5    0    0  0.22435925010E+02 -0.84125692273E+02  0.73498616084E+03  0.74012509717E+03  0.00000000000E+00 0.  1.
         12    1    5    5    0    0 -0.58108369226E+01 -0.25148716186E+02  0.47055611464E+02  0.53669864187E+02  0.00000000000E+00 0. -1.
         13    1    3    3    0    0  0.45409229374E+02 -0.14683580812E+02 -0.83549633628E+02  0.96219264897E+02  0.00000000000E+00 0. -1.
        -14    1    3    3    0    0  0.61401239247E+02  0.31442364045E+02 -0.41496604451E+03  0.42066085215E+03  0.00000000000E+00 0.  1.
          5    1    4    4  501    0  0.51334998810E+00  0.26814133613E+02  0.72325678527E+02  0.77251132445E+02  0.41800000000E+01 0. -1.
         -5    1    4    4    0  501 -0.12394890670E+03  0.65701491612E+02  0.20007685631E+02  0.14176670045E+03  0.41800000000E+01 0. -1.
</event>
<event>
11    1  0.8864208E-009  0.1420878E+03  0.7561462E-02  0.1105249E+00
         22   -1    0    0    0    0  0.00000000000E+00  0.00000000000E+00  0.17850383351E+04  0.17850383351E+04  0.00000000000E+00 0.  1.
         22   -1    0    0    0    0 -0.00000000000E+00 -0.00000000000E+00 -0.12755521394E+03  0.12755521394E+03  0.00000000000E+00 0.  1.
        -24    2    1    2    0    0  0.55964457910E+02 -0.41853495237E+02 -0.85556419821E+02  0.13575496618E+03  0.78903575697E+02 0.  0.
         25    2    1    2    0    0 -0.40085272018E+01  0.55024321871E+02  0.28812577495E+03  0.31891788501E+03  0.12509360854E+03 0.  0.
         24    2    1    2    0    0 -0.51955930708E+02 -0.13170826634E+02  0.14549137660E+04  0.14579206978E+04  0.76719001668E+02 0.  0.
        -11    1    5    5    0    0 -0.23257968624E+02 -0.12802022430E+02  0.13058100446E+04  0.13060798970E+04  0.00000000000E+00 0.  1.
         12    1    5    5    0    0 -0.28697962084E+02 -0.36880420424E+00  0.14910372142E+03  0.15184080079E+03  0.00000000000E+00 0. -1.
         11    1    3    3    0    0 -0.51198955627E+01  0.14842253252E+02  0.82725376557E+00  0.15722282307E+02  0.00000000000E+00 0. -1.
        -12    1    3    3    0    0  0.61084353472E+02 -0.56695748489E+02 -0.86383673586E+02  0.12003268387E+03  0.00000000000E+00 0.  1.
          5    1    4    4  501    0 -0.98694045335E+01  0.43767202543E+02  0.29857447463E+03  0.30195556372E+03  0.41800000000E+01 0.  1.
         -5    1    4    4    0  501  0.58608773316E+01  0.11257119329E+02 -0.10448699672E+02  0.16962321289E+02  0.41800000000E+01 0.  1.
</event>
<event>
11    1  0.8864208E-009  0.1392454E+03  0.7561462E-02  0.1108404E+00
         22   -1    0    0    0    0  0.00000000000E+00  0.00000000000E+00  0.63163311788E+03  0.63163311788E+03  0.00000000000E+00 0.  1.
         22   -1    0    0    0    0 -0.00000000000E+00 -0.00000000000E+00 -0.13893848066E+04  0.13893848066E+04  0.00000000000E+00 0.  1.
        -24    2    1    2    0    0 -0.48648748258E+02 -0.32494291438E+02 -0.11748122548E+04  0.11790019094E+04  0.80243931826E+02 0.  0.
         25    2    1    2    0    0  0.92632510655E+02  0.42624297122E+02 -0.17771614032E+03  0.24005896580E+03  0.12509063833E+03 0.  0.
         24    2    1    2    0    0 -0.43983762397E+02 -0.10130005684E+02  0.59477670646E+03  0.60195704924E+03  0.80967710961E+02 0.  0.
        -13    1    5    5    0    0 -0.14656859222E+02 -0.22886967328E+02  0.51895895061E+03  0.51967011576E+03  0.00000000000E+00 0.  1.
         14    1    5    5    0    0 -0.29326903175E+02  0.12756961644E+02  0.75817755851E+02  0.82286933486E+02  0.00000000000E+00 0. -1.
         13    1    3    3    0    0 -0.72150181528E+01  0.20773834920E+02 -0.11763612713E+03  0.11967400348E+03  0.00000000000E+00 0. -1.
        -14    1    3    3    0    0 -0.41433730106E+02 -0.53268126358E+02 -0.10571761277E+04  0.10593279059E+04  0.00000000000E+00 0.  1.
          5    1    4    4  501    0  0.50245389861E+02  0.86550276116E+02 -0.10787933345E+03  0.14721063984E+03  0.41800000000E+01 0. -1.
         -5    1    4    4    0  501  0.42387120794E+02 -0.43925978993E+02 -0.69836806870E+02  0.92848325960E+02  0.41800000000E+01 0. -1.
</event>
<event>
11    1  0.8864208E-009  0.1824804E+03  0.7561462E-02  0.1067654E+00
         22   -1    0    0    0    0  0.00000000000E+00  0.00000000000E+00  0.30933099587E+03  0.30933099587E+03  0.00000000000E+00 0. -1.
         22   -1    0    0    0    0 -0.00000000000E+00 -0.00000000000E+00 -0.43104457822E+03  0.43104457822E+03  0.00000000000E+00 0. -1.
         24    2    1    2    0    0 -0.65904068812E+01  0.16660893205E+02 -0.32840614369E+03  0.33850475273E+03  0.80086538084E+02 0.  0.
         25    2    1    2    0    0  0.73158540241E+02  0.10303639728E+03  0.67052823002E+02  0.19003163993E+03  0.12508905600E+03 0.  0.
        -24    2    1    2    0    0 -0.66568133360E+02 -0.11969729048E+03  0.13963973834E+03  0.21183918143E+03  0.81350012533E+02 0.  0.
        -11    1    3    3    0    0  0.34504338567E+01 -0.31469535025E+02 -0.10104739235E+03  0.10589056912E+03  0.00000000000E+00 0.  1.
         12    1    3    3    0    0 -0.10040840738E+02  0.48130428230E+02 -0.22735875133E+03  0.23261418360E+03  0.00000000000E+00 0. -1.
         13    1    5    5    0    0 -0.71376482121E+02 -0.92511647600E+02  0.14227459940E+03  0.18410613455E+03  0.00000000000E+00 0. -1.
        -14    1    5    5    0    0  0.48083487615E+01 -0.27185642882E+02 -0.26348610679E+01  0.27733046886E+02  0.00000000000E+00 0.  1.
          5    1    4    4  501    0  0.29152983076E+02  0.11283667660E+03  0.81763778577E+02  0.14242471659E+03  0.41800000000E+01 0. -1.
         -5    1    4    4    0  501  0.44005557165E+02 -0.98002793263E+01 -0.14710955575E+02  0.47606923343E+02  0.41800000000E+01 0. -1.
</event>
<event>
11    1  0.8864208E-009  0.1830656E+03  0.7561462E-02  0.1067190E+00
         22   -1    0    0    0    0  0.00000000000E+00  0.00000000000E+00  0.97247349493E+03  0.97247349493E+03  0.00000000000E+00 0. -1.
         22   -1    0    0    0    0 -0.00000000000E+00 -0.00000000000E+00 -0.13219474549E+03  0.13219474549E+03  0.00000000000E+00 0. -1.
        -24    2    1    2    0    0 -0.18447149260E+02 -0.33690225559E+02 -0.71614220348E+02  0.11285168841E+03  0.78304395832E+02 0.  0.
         25    2    1    2    0    0  0.14216735253E+03 -0.12828911369E+02  0.25964238428E+03  0.32161626980E+03  0.12508685061E+03 0.  0.
         24    2    1    2    0    0 -0.12372020327E+03  0.46519136928E+02  0.65225058551E+03  0.67020028222E+03  0.79163584979E+02 0.  0.
        -13    1    5    5    0    0  0.12422765505E+01  0.18870484592E+01  0.17033629136E+03  0.17035127343E+03  0.00000000000E+00 0.  1.
         14    1    5    5    0    0 -0.12496247982E+03  0.44632088469E+02  0.48191429415E+03  0.49984900879E+03  0.00000000000E+00 0. -1.
         11    1    3    3    0    0  0.59897694227E+01 -0.49292431007E+02 -0.67153249726E+02  0.83517543314E+02  0.00000000000E+00 0. -1.
        -12    1    3    3    0    0 -0.24436918683E+02  0.15602205448E+02 -0.44609706213E+01  0.29334145095E+02  0.00000000000E+00 0.  1.
          5    1    4    4  501    0  0.36014520498E+02  0.36780666543E+02  0.21049221661E+02  0.55771007258E+02  0.41800000000E+01 0.  1.
         -5    1    4    4    0  501  0.10615283204E+03 -0.49609577912E+02  0.23859316262E+03  0.26584526254E+03  0.41800000000E+01 0.  1.
</event>
<event>
11    1  0.8864208E-009  0.1298636E+03  0.7561462E-02  0.1119437E+00
         22   -1    0    0    0    0  0.00000000000E+00  0.00000000000E+00  0.17968856330E+03  0.17968856330E+03  0.00000000000E+00 0.  1.
         22   -1    0    0    0    0 -0.00000000000E+00 -0.00000000000E+00 -0.65476558072E+03  0.65476558072E+03  0.00000000000E+00 0.  1.
         24    2    1    2    0    0 -0.19595146759E+02 -0.60528688557E+01 -0.53283371334E+03  0.53967631873E+03  0.83175452666E+02 0.  0.
         25    2    1    2    0    0  0.48580816750E+02 -0.91740969645E+01 -0.56409831102E+02  0.14584314170E+03  0.12507554967E+03 0.  0.
        -24    2    1    2    0    0 -0.28985669991E+02  0.15226965820E+02  0.11416652702E+03  0.14893468359E+03  0.89863866668E+02 0.  0.
        -13    1    3    3    0    0 -0.25836836139E+02  0.66198635149E-01 -0.52979163700E+03  0.53042127136E+03  0.00000000000E+00 0.  1.
         14    1    3    3    0    0  0.62416893800E+01 -0.61190674908E+01 -0.30420763470E+01  0.92550473675E+01  0.00000000000E+00 0. -1.
         13    1    5    5    0    0  0.11005432915E+02 -0.54535677763E+00 -0.11614734976E+02  0.16009966777E+02  0.00000000000E+00 0. -1.
        -14    1    5    5    0    0 -0.39991102906E+02  0.15772322598E+02  0.12578126199E+03  0.13292471681E+03  0.00000000000E+00 0.  1.
          5    1    4    4  501    0 -0.42395655773E+02  0.13564515816E+01 -0.21540884230E+02  0.47756818181E+02  0.41800000000E+01 0.  1.
         -5    1    4    4    0  501  0.90976472523E+02 -0.10530548546E+02 -0.34868946872E+02  0.98086323519E+02  0.41800000000E+01 0.  1.
</event>
<event>
11    1  0.8864208E-009  0.1489715E+03  0.7561462E-02  0.1097934E+00
         22   -1    0    0    0    0  0.00000000000E+00  0.00000000000E+00  0.29614798153E+03  0.29614798153E+03  0.00000000000E+00 0. -1.
         22   -1    0    0    0    0 -0.00000000000E+00 -0.00000000000E+00 -0.10377784326E+04  0.10377784326E+04  0.00000000000E+00 0. -1.
         24    2    1    2    0    0  0.38495233895E+02  0.72129511956E+02 -0.96829537412E+03  0.97529295947E+03  0.83161744384E+02 0.  0.
         25    2    1    2    0    0  0.20140752638E+01 -0.67361860407E+02  0.34375546415E+02  0.14618832280E+03  0.12509065032E+03 0.  0.
        -24    2    1    2    0    0 -0.40509309159E+02 -0.47676515487E+01  0.19228937661E+03  0.21244513187E+03  0.80585327887E+02 0.  0.
        -13    1    3    3    0    0  0.26120542485E+02 -0.20932181362E+01 -0.88831671726E+02  0.92616036427E+02  0.00000000000E+00 0.  1.
         14    1    3    3    0    0  0.12374691410E+02  0.74222730092E+02 -0.87946370239E+03  0.88267692304E+03  0.00000000000E+00 0. -1.
         13    1    5    5    0    0 -0.52097489928E+02 -0.23408529523E+02  0.17621341040E+03  0.18523842398E+03  0.00000000000E+00 0. -1.
        -14    1    5    5    0    0  0.11588180769E+02  0.18640877974E+02  0.16075966203E+02  0.27206707896E+02  0.00000000000E+00 0.  1.
          5    1    4    4  501    0  0.13339407995E+02 -0.79833526883E+02 -0.24609838683E+02  0.84702115560E+02  0.41800000000E+01 0. -1.
         -5    1    4    4    0  501 -0.11325332731E+02  0.12471666476E+02  0.58985385098E+02  0.61486207245E+02  0.41800000000E+01 0. -1.
</event>
<event>
11    1  0.8864208E-009  0.1789159E+03  0.7561462E-02  0.1070523E+00
         22   -1    0    0    0    0  0.00000000000E+00  0.00000000000E+00  0.16193287423E+03  0.16193287423E+03  0.00000000000E+00 0.  1.
         22   -1    0    0    0    0 -0.00000000000E+00 -0.00000000000E+00 -0.74611880528E+03  0.74611880528E+03  0.00000000000E+00 0. -1.
         24    2    1    2    0    0  0.47155435702E+02  0.10728201787E+03 -0.47463088642E+03  0.49508014438E+03  0.78082037218E+02 0.  0.
         25    2    1    2    0    0 -0.40870604633E+02 -0.19688410853E+03 -0.14480885324E+03  0.27758007969E+03  0.12508932068E+03 0.  0.
        -24    2    1    2    0    0 -0.62848310698E+01  0.89602090660E+02  0.35253808614E+02  0.13539145545E+03  0.94973582819E+02 0.  0.
        -11    1    3    3    0    0 -0.71160525701E+01  0.31266850910E+02 -0.24639023828E+03  0.24846811403E+03  0.00000000000E+00 0.  1.
         12    1    3    3    0    0  0.54271488272E+02  0.76015166964E+02 -0.22824064814E+03  0.24661203035E+03  0.00000000000E+00 0. -1.
         13    1    5    5    0    0 -0.34031751413E+02  0.93921461726E+02  0.15580623375E+02  0.10110468289E+03  0.00000000000E+00 0. -1.
        -14    1    5    5    0    0  0.27746920344E+02 -0.43193710662E+01  0.19673185239E+02  0.34286772558E+02  0.00000000000E+00 0.  1.
          5    1    4    4  501    0 -0.17931092961E+01 -0.36366277181E+02 -0.99777807642E+02  0.10629583555E+03  0.41800000000E+01 0. -1.
         -5    1    4    4    0  501 -0.39077495336E+02 -0.16051783135E+03 -0.45031045596E+02  0.17128424414E+03  0.41800000000E+01 0. -1.
</event>
<event>
11    1  0.8864208E-009  0.1417795E+03  0.7561462E-02  0.1105587E+00
         22   -1    0    0    0    0  0.00000000000E+00  0.00000000000E+00  0.50112985365E+03  0.50112985365E+03  0.00000000000E+00 0. -1.
         22   -1    0    0    0    0 -0.00000000000E+00 -0.00000000000E+00 -0.15275782408E+03  0.15275782408E+03  0.00000000000E+00 0.  1.
         24    2    1    2    0    0 -0.34091234994E+02 -0.47898681746E+02 -0.45122497269E+02  0.11127459965E+03  0.83003016517E+02 0.  0.
         25    2    1    2    0    0  0.74175392652E+02  0.52361393867E+02  0.17603984971E+02  0.15556547803E+03  0.12508802191E+03 0.  0.
        -24    2    1    2    0    0 -0.40084157657E+02 -0.44627121207E+01  0.37589054187E+03  0.38704760005E+03  0.82978851168E+02 0.  0.
        -13    1    3    3    0    0 -0.84609221888E+01 -0.95013836711E+01 -0.61109024949E+02  0.62419359386E+02  0.00000000000E+00 0.  1.
         14    1    3    3    0    0 -0.25630312805E+02 -0.38397298075E+02  0.15986527680E+02  0.48855240264E+02  0.00000000000E+00 0. -1.
         11    1    5    5    0    0 -0.33576755404E+02  0.17712105197E+02  0.35113683015E+03  0.35318294220E+03  0.00000000000E+00 0. -1.
        -12    1    5    5    0    0 -0.65074022536E+01 -0.22174817317E+02  0.24753711718E+02  0.33864657845E+02  0.00000000000E+00 0.  1.
          5    1    4    4  501    0  0.32855963595E+02  0.67260278449E+02  0.58738902323E+02  0.95242797349E+02  0.41800000000E+01 0.  1.
         -5    1    4    4    0  501  0.41319429056E+02 -0.14898884582E+02 -0.41134917352E+02  0.60322680684E+02  0.41800000000E+01 0.  1.
</event>
<event>
11    1  0.8864208E-009  0.1379582E+03  0.7561462E-02  0.1109860E+00
         22   -1    0    0    0    0  0.00000000000E+00  0.00000000000E+00  0.10756028149E+04  0.10756028149E+04  0.00000000000E+00 0. -1.
         22   -1    0    0    0    0 -0.00000000000E+00 -0.00000000000E+00 -0.22569067999E+03  0.22569067999E+03  0.00000000000E+00 0.  1.
        -24    2    1    2    0    0 -0.55522022560E+02 -0.30795925740E+02 -0.15237243426E+03  0.18952041598E+03  0.93110393190E+02 0.  0.
         25    2    1    2    0    0  0.10106741814E+02  0.47112671028E+02  0.33121029056E+02  0.13808004087E+03  0.12508934855E+03 0.  0.
         24    2    1    2    0    0  0.45415280746E+02 -0.16316745289E+02  0.96916354007E+03  0.97369303801E+03  0.80444893909E+02 0.  0.
        -13    1    5    5    0    0  0.17635981354E+02  0.13783688186E+02  0.67799329195E+02  0.71398648009E+02  0.00000000000E+00 0.  1.
         14    1    5    5    0    0  0.27779299391E+02 -0.30100433475E+02  0.90136421088E+03  0.90229439000E+03  0.00000000000E+00 0. -1.
         11    1    3    3    0    0 -0.40934338252E+02 -0.53452783225E+02 -0.50545511023E+02  0.84188293528E+02  0.00000000000E+00 0. -1.
        -12    1    3    3    0    0 -0.14587684308E+02  0.22656857486E+02 -0.10182692323E+03  0.10533212245E+03  0.00000000000E+00 0.  1.
          5    1    4    4  501    0  0.24879474806E+02  0.17629639145E+02  0.77062840457E+02  0.82981601709E+02  0.41800000000E+01 0. -1.
         -5    1    4    4    0  501 -0.14772732992E+02  0.29483031883E+02 -0.43941811401E+02  0.55098439163E+02  0.41800000000E+01 0. -1.
</event>
<event>
11    1  0.8864208E-009  0.3921422E+03  0.7561462E-02  0.9673231E-01
         22   -1    0    0    0    0  0.00000000000E+00  0.00000000000E+00  0.19793357959E+04  0.19793357959E+04  0.00000000000E+00 0. -1.
         22   -1    0    0    0    0 -0.00000000000E+00 -0.00000000000E+00 -0.63227748327E+03  0.63227748327E+03  0.00000000000E+00 0. -1.
         24    2    1    2    0    0  0.36399088826E+03  0.47783194181E+02 -0.45150237792E+03  0.58744022677E+03  0.80368043272E+02 0.  0.
         25    2    1    2    0    0 -0.39130721624E+03 -0.74488370711E+02  0.27935693315E+03  0.50235160554E+03  0.12508790763E+03 0.  0.
        -24    2    1    2    0    0  0.27316327987E+02  0.26705176530E+02  0.15192037574E+04  0.15218214469E+04  0.80629469720E+02 0.  0.
        -11    1    3    3    0    0 -0.37411799206E+01  0.31046902629E+01 -0.28997488883E+01  0.56607483994E+01  0.00000000000E+00 0.  1.
         12    1    3    3    0    0  0.36773206818E+03  0.44678503918E+02 -0.44860262904E+03  0.58177947837E+03  0.00000000000E+00 0. -1.
         11    1    5    5    0    0  0.28394004251E+02  0.21718777074E+02  0.15143754967E+04  0.15147973692E+04  0.00000000000E+00 0. -1.
        -12    1    5    5    0    0 -0.10776762638E+01  0.49863994560E+01  0.48282607540E+01  0.70240777026E+01  0.00000000000E+00 0.  1.
          5    1    4    4  501    0 -0.22207837679E+03 -0.98502041928E+02  0.19579410063E+03  0.31204848973E+03  0.41800000000E+01 0. -1.
         -5    1    4    4    0  501 -0.16922883946E+03  0.24013671217E+02  0.83562832521E+02  0.19030311581E+03  0.41800000000E+01 0. -1.
</event>
<event>
11    1  0.8864208E-009  0.1634184E+03  0.7561462E-02  0.1083906E+00
         22   -1    0    0    0    0  0.00000000000E+00  0.00000000000E+00  0.12445864576E+04  0.12445864576E+04  0.00000000000E+00 0. -1.
         22   -1    0    0    0    0 -0.00000000000E+00 -0.00000000000E+00 -0.73571269663E+03  0.73571269663E+03  0.00000000000E+00 0.  1.
         24    2    1    2    0    0 -0.27595922654E+02 -0.10150650224E+03 -0.71764498921E+03  0.72971818351E+03  0.80057428491E+02 0.  0.
         25    2    1    2    0    0  0.27597366882E+02  0.97902961648E+02  0.86886899721E+03  0.88369983770E+03  0.12508183030E+03 0.  0.
        -24    2    1    2    0    0 -0.14442277209E-02  0.36035405921E+01  0.35764975302E+03  0.36688113307E+03  0.81703331980E+02 0.  0.
        -11    1    3    3    0    0  0.10981907148E+02 -0.88311789966E+02 -0.55210195896E+03  0.55922817134E+03  0.00000000000E+00 0.  1.
         12    1    3    3    0    0 -0.38577829803E+02 -0.13194712274E+02 -0.16554303025E+03  0.17049001217E+03  0.00000000000E+00 0. -1.
         13    1    5    5    0    0 -0.17053868545E+02 -0.31003896069E+02  0.25071210135E+03  0.25319682811E+03  0.00000000000E+00 0. -1.
        -14    1    5    5    0    0  0.17052424317E+02  0.34607436661E+02  0.10693765167E+03  0.11368430495E+03  0.00000000000E+00 0.  1.
          5    1    4    4  501    0 -0.34343938871E+02  0.79384614233E+02  0.33902304208E+03  0.34990787155E+03  0.41800000000E+01 0. -1.
         -5    1    4    4    0  501  0.61941305753E+02  0.18518347415E+02  0.52984595513E+03  0.53379196615E+03  0.41800000000E+01 0. -1.
</event>
<event>
11    1  0.8864208E-009  0.1610829E+03  0.7561462E-02  0.1086063E+00
         22   -1    0    0    0    0  0.00000000000E+00  0.00000000000E+00  0.20327011449E+04  0.20327011449E+04  0.00000000000E+00 0.  1.
         22   -1    0    0    0    0 -0.00000000000E+00 -0.00000000000E+00 -0.76519504976E+02  0.76519504976E+02  0.00000000000E+00 0.  1.
         24    2    1    2    0    0  0.70103940895E+02  0.41714450620E+02  0.81323241551E+01  0.11393246783E+03  0.79118990193E+02 0.  0.
         25    2    1    2    0    0 -0.51387316872E+02  0.63794471865E+02  0.24503321249E+03  0.28705137920E+03  0.12508728194E+03 0.  0.
        -24    2    1    2    0    0 -0.18716624022E+02 -0.10550892249E+03  0.17030161033E+04  0.17082368028E+04  0.79540441464E+02 0.  0.
        -11    1    3    3    0    0 -0.54442548577E+01  0.65844677952E+01 -0.23351792635E+02  0.24865666015E+02  0.00000000000E+00 0.  1.
         12    1    3    3    0    0  0.75548195752E+02  0.35129982825E+02  0.31484116790E+02  0.89066801810E+02  0.00000000000E+00 0. -1.
         13    1    5    5    0    0  0.29384164082E+02 -0.58950834508E+02  0.76115524268E+03  0.76399995645E+03  0.00000000000E+00 0. -1.
        -14    1    5    5    0    0 -0.48100788104E+02 -0.46558087977E+02  0.94186086060E+03  0.94423684640E+03  0.00000000000E+00 0.  1.
          5    1    4    4  501    0 -0.81472754559E+02  0.75539179713E+02  0.15084212163E+03  0.18738942197E+03  0.41800000000E+01 0. -1.
         -5    1    4    4    0  501  0.30085437687E+02 -0.11744707848E+02  0.94191090853E+02  0.99661957232E+02  0.41800000000E+01 0. -1.
</event>
<event>
11    1  0.8864208E-009  0.1833238E+03  0.7561462E-02  0.1066986E+00
         22   -1    0    0    0    0  0.00000000000E+00  0.00000000000E+00  0.14554274451E+04  0.14554274451E+04  0.00000000000E+00 0. -1.
         22   -1    0    0    0    0 -0.00000000000E+00 -0.00000000000E+00 -0.51611378826E+02  0.51611378826E+02  0.00000000000E+00 0.  1.
        -24    2    1    2    0    0  0.78214922853E+02 -0.95754887133E+01  0.74562911703E+02  0.13257993287E+03  0.76213821947E+02 0.  0.
         25    2    1    2    0    0 -0.14431235168E+03  0.86444213092E+02  0.98576116823E+03  0.10078054730E+04  0.12509250058E+03 0.  0.
         24    2    1    2    0    0  0.66097428829E+02 -0.76868724379E+02  0.34349198635E+03  0.36665341812E+03  0.78551342722E+02 0.  0.
        -13    1    5    5    0    0  0.12143441218E+01 -0.60852471828E+02  0.18080124657E+03  0.19077103742E+03  0.00000000000E+00 0.  1.
         14    1    5    5    0    0  0.64883084707E+02 -0.16016252552E+02  0.16269073978E+03  0.17588238069E+03  0.00000000000E+00 0. -1.
         13    1    3    3    0    0  0.28688683074E+01 -0.11016211381E+02  0.52981668506E+02  0.54190815793E+02  0.00000000000E+00 0. -1.
        -14    1    3    3    0    0  0.75346054546E+02  0.14407226678E+01  0.21581243197E+02  0.78389117072E+02  0.00000000000E+00 0.  1.
          5    1    4    4  501    0 -0.78694384251E+02  0.11324175235E+03  0.61169240830E+03  0.62705787242E+03  0.41800000000E+01 0. -1.
         -5    1    4    4    0  501 -0.65617967431E+02 -0.26797539254E+02  0.37406875992E+03  0.38074760053E+03  0.41800000000E+01 0. -1.
</event>
<event>
11    1  0.8864208E-009  0.1593230E+03  0.7561462E-02  0.1087716E+00
         22   -1    0    0    0    0  0.00000000000E+00  0.00000000000E+00  0.10857891483E+04  0.10857891483E+04  0.00000000000E+00 0. -1.
         22   -1    0    0    0    0 -0.00000000000E+00 -0.00000000000E+00 -0.56050865088E+03  0.56050865088E+03  0.00000000000E+00 0. -1.
        -24    2    1    2    0    0  0.79695531158E+02 -0.65481168313E+02 -0.50376656708E+03  0.52005047623E+03  0.77669702141E+02 0.  0.
         25    2    1    2    0    0 -0.71432748420E+01  0.56248662822E+02  0.58022355039E+02  0.14909335458E+03  0.12508915321E+03 0.  0.
         24    2    1    2    0    0 -0.72552256316E+02  0.92325054907E+01  0.97102470942E+03  0.97715396833E+03  0.81190039221E+02 0.  0.
        -13    1    5    5    0    0  0.14962768106E+02  0.15172850945E+02  0.21727930467E+03  0.21832177187E+03  0.00000000000E+00 0.  1.
         14    1    5    5    0    0 -0.87515024421E+02 -0.59403454542E+01  0.75374540475E+03  0.75883219646E+03  0.00000000000E+00 0. -1.
         13    1    3    3    0    0  0.72418349646E+02 -0.80189418742E+02 -0.47296615253E+03  0.48515125650E+03  0.00000000000E+00 0. -1.
        -14    1    3    3    0    0  0.72771815121E+01  0.14708250429E+02 -0.30800414548E+02  0.34899219731E+02  0.00000000000E+00 0.  1.
          5    1    4    4  501    0  0.45521862967E+02  0.48664126476E+02 -0.44629206192E+01  0.66916569503E+02  0.41800000000E+01 0.  1.
         -5    1    4    4    0  501 -0.52665137809E+02  0.75845363464E+01  0.62485275658E+02  0.82176785080E+02  0.41800000000E+01 0.  1.
</event>
<event>
11    1  0.8864208E-009  0.2291313E+03  0.7561462E-02  0.1035644E+00
         22   -1    0    0    0    0  0.00000000000E+00  0.00000000000E+00  0.22618319891E+03  0.22618319891E+03  0.00000000000E+00 0. -1.
         22   -1    0    0    0    0 -0.00000000000E+00 -0.00000000000E+00 -0.10314649226E+04  0.10314649226E+04  0.00000000000E+00 0. -1.
         24    2    1    2    0    0  0.76317118138E+02 -0.16900890977E+03 -0.76130151722E+03  0.78766406297E+03  0.80289238789E+02 0.  0.
         25    2    1    2    0    0 -0.57164834845E+02  0.22280533308E+03 -0.16854543259E+03  0.31140629589E+03  0.12512507135E+03 0.  0.
        -24    2    1    2    0    0 -0.19152283293E+02 -0.53796423313E+02  0.12456522611E+03  0.15857776267E+03  0.79809436409E+02 0.  0.
        -13    1    3    3    0    0  0.27650738712E+02 -0.43788410910E+01 -0.15585639279E+03  0.15835072711E+03  0.00000000000E+00 0.  1.
         14    1    3    3    0    0  0.48666379426E+02 -0.16463006868E+03 -0.60544512443E+03  0.62931333586E+03  0.00000000000E+00 0. -1.
         13    1    5    5    0    0  0.29885023124E+02 -0.10432590243E+02  0.51756418890E+02  0.60668611675E+02  0.00000000000E+00 0. -1.
        -14    1    5    5    0    0 -0.49037306416E+02 -0.43363833070E+02  0.72808807218E+02  0.97909150990E+02  0.00000000000E+00 0.  1.
          5    1    4    4  501    0  0.27648617366E+02  0.14167030578E+03 -0.92406409286E+02  0.17143902257E+03  0.41800000000E+01 0. -1.
         -5    1    4    4    0  501 -0.84813452211E+02  0.81135027296E+02 -0.76139023305E+02  0.13996727332E+03  0.41800000000E+01 0. -1.
</event>
<event>
11    1  0.8864208E-009  0.1278625E+03  0.7561462E-02  0.1121924E+00
         22   -1    0    0    0    0  0.00000000000E+00  0.00000000000E+00  0.11142367709E+03  0.11142367709E+03  0.00000000000E+00 0. -1.
         22   -1    0    0    0    0 -0.00000000000E+00 -0.00000000000E+00 -0.69409972382E+03  0.69409972382E+03  0.00000000000E+00 0. -1.
         24    2    1    2    0    0  0.39602198308E+01  0.42519699433E+01 -0.40875887190E+03  0.41666371880E+03  0.80567218009E+02 0.  0.
         25    2    1    2    0    0 -0.22389179940E+02  0.14789150094E+02 -0.24537301281E+03  0.27672279317E+03  0.12509034537E+03 0.  0.
        -24    2    1    2    0    0  0.18428960109E+02 -0.19041120037E+02  0.71455837975E+02  0.11213688894E+03  0.82259067934E+02 0.  0.
        -13    1    3    3    0    0 -0.10382380197E+02  0.29635788758E+02 -0.70821995336E+02  0.77471470989E+02  0.00000000000E+00 0.  1.
         14    1    3    3    0    0  0.14342600028E+02 -0.25383818814E+02 -0.33793687657E+03  0.33919224781E+03  0.00000000000E+00 0. -1.
         11    1    5    5    0    0  0.15590427864E+02 -0.35086861435E+01  0.87899182909E+02  0.89340017212E+02  0.00000000000E+00 0. -1.
        -12    1    5    5    0    0  0.28385322458E+01 -0.15532433893E+02 -0.16443344934E+02  0.22796871728E+02  0.00000000000E+00 0.  1.
          5    1    4    4  501    0  0.21899011762E+02  0.25942166299E+02 -0.22315716755E+03  0.22576349691E+03  0.41800000000E+01 0.  1.
         -5    1    4    4    0  501 -0.44288191702E+02 -0.11153016206E+02 -0.22215845260E+02  0.50959296260E+02  0.41800000000E+01 0.  1.
</event>
<event>
11    1  0.8864208E-009  0.2028708E+03  0.7561462E-02  0.1052512E+00
         22   -1    0    0    0    0  0.00000000000E+00  0.00000000000E+00  0.72842791626E+02  0.72842791626E+02  0.00000000000E+00 0.  1.
         22   -1    0    0    0    0 -0.00000000000E+00 -0.00000000000E+00 -0.24383280301E+04  0.24383280301E+04  0.00000000000E+00 0.  1.
        -24    2    1    2    0    0  0.14748958819E+03  0.13489368139E+01 -0.13411378540E+04  0.13516114945E+04  0.80298758221E+02 0.  0.
         25    2    1    2    0    0 -0.18753624608E+03 -0.24038723335E+02 -0.10396822726E+04  0.10641121292E+04  0.12509073357E+03 0.  0.
         24    2    1    2    0    0  0.40046657889E+02  0.22689786521E+02  0.15334888097E+02  0.95447198039E+02  0.82197613105E+02 0.  0.
        -13    1    5    5    0    0 -0.21099901809E+02 -0.90578646489E+01  0.13266811830E+02  0.26519032118E+02  0.00000000000E+00 0.  1.
         14    1    5    5    0    0  0.61146559698E+02  0.31747651170E+02  0.20680762667E+01  0.68928165921E+02  0.00000000000E+00 0. -1.
         11    1    3    3    0    0  0.77041870111E+02 -0.21930302234E+02 -0.42561524440E+03  0.43308743248E+03  0.00000000000E+00 0. -1.
        -12    1    3    3    0    0  0.70447718075E+02  0.23279239048E+02 -0.91552260957E+03  0.91852406206E+03  0.00000000000E+00 0.  1.
          5    1    4    4  501    0 -0.11148277007E+03  0.46202310123E+02 -0.63482419554E+03  0.64620607636E+03  0.41800000000E+01 0. -1.
         -5    1    4    4    0  501 -0.76053476004E+02 -0.70241033458E+02 -0.40485807709E+03  0.41790605281E+03  0.41800000000E+01 0. -1.
</event>
<event>
11    1  0.8864208E-009  0.1344423E+03  0.7561462E-02  0.1113928E+00
         22   -1    0    0    0    0  0.00000000000E+00  0.00000000000E+00  0.41443484137E+03  0.41443484137E+03  0.00000000000E+00 0.  1.
         22   -1    0    0    0    0 -0.00000000000E+00 -0.00000000000E+00 -0.25596742773E+03  0.25596742773E+03  0.00000000000E+00 0.  1.
        -24    2    1    2    0    0 -0.45283568197E+02 -0.23618321502E+02 -0.19921700551E+03  0.22103503565E+03  0.80997808862E+02 0.  0.
         25    2    1    2    0    0  0.24519727412E+02  0.22618259950E+02  0.64568089994E+02  0.14465935157E+03  0.12507792385E+03 0.  0.
         24    2    1    2    0    0  0.20763840785E+02  0.10000615524E+01  0.29311632915E+03  0.30470788188E+03  0.80607528548E+02 0.  0.
        -13    1    5    5    0    0 -0.33665030778E+01 -0.12145569990E+02  0.26532930393E+03  0.26562847689E+03  0.00000000000E+00 0.  1.
         14    1    5    5    0    0  0.24130343863E+02  0.13145631543E+02  0.27787025226E+02  0.39079404992E+02  0.00000000000E+00 0. -1.
         11    1    3    3    0    0  0.40770884394E+01 -0.32062377400E+02 -0.28388461501E+02  0.43017710784E+02  0.00000000000E+00 0. -1.
        -12    1    3    3    0    0 -0.49360656636E+02  0.84440558979E+01 -0.17082854401E+03  0.17801732487E+03  0.00000000000E+00 0.  1.
          5    1    4    4  501    0 -0.25507716666E+02 -0.40210747296E+02  0.14615088793E+02  0.49986208378E+02  0.41800000000E+01 0.  1.
         -5    1    4    4    0  501  0.50027444078E+02  0.62829007246E+02  0.49953001201E+02  0.94673143190E+02  0.41800000000E+01 0.  1.
</event>
<event>
11    1  0.8864208E-009  0.1966395E+03  0.7561462E-02  0.1056926E+00
         22   -1    0    0    0    0  0.00000000000E+00  0.00000000000E+00  0.47153708299E+03  0.47153708299E+03  0.00000000000E+00 0.  1.
         22   -1    0    0    0    0 -0.00000000000E+00 -0.00000000000E+00 -0.48340464515E+03  0.48340464515E+03  0.00000000000E+00 0.  1.
        -24    2    1    2    0    0  0.69605188587E+02 -0.31396091110E+01 -0.31940944888E+03  0.33594344688E+03  0.77336046210E+02 0.  0.
         25    2    1    2    0    0 -0.94643296033E+01 -0.13996358689E+03 -0.71612559555E+02  0.20113804456E+03  0.12509506423E+03 0.  0.
         24    2    1    2    0    0 -0.60140858984E+02  0.14310319600E+03  0.37915444628E+03  0.41786023670E+03  0.82180506570E+02 0.  0.
        -13    1    5    5    0    0 -0.92227161160E+01  0.54088687153E+02  0.23264035411E+03  0.23902338574E+03  0.00000000000E+00 0.  1.
         14    1    5    5    0    0 -0.50918142868E+02  0.89014508845E+02  0.14651409217E+03  0.17883685096E+03  0.00000000000E+00 0. -1.
         13    1    3    3    0    0  0.70003664218E+01  0.73686596575E+01  0.12475863197E+00  0.10164538352E+02  0.00000000000E+00 0. -1.
        -14    1    3    3    0    0  0.62604822165E+02 -0.10508268768E+02 -0.31953420751E+03  0.32577890852E+03  0.00000000000E+00 0.  1.
          5    1    4    4  501    0  0.45171841910E+02 -0.12123266827E+02 -0.59617330559E+01  0.47333746536E+02  0.41800000000E+01 0. -1.
         -5    1    4    4    0  501 -0.54636171513E+02 -0.12784032006E+03 -0.65650826499E+02  0.15380429802E+03  0.41800000000E+01 0. -1.
</event>
<event>
11    1  0.8864208E-009  0.1994139E+03  0.7561462E-02  0.1054939E+00
         22   -1    0    0    0    0  0.00000000000E+00  0.00000000000E+00  0.20186592615E+04  0.20186592615E+04  0.00000000000E+00 0.  1.
         22   -1    0    0    0    0 -0.00000000000E+00 -0.00000000000E+00 -0.81226949463E+03  0.81226949463E+03  0.00000000000E+00 0.  1.
        -24    2    1    2    0    0 -0.15156763312E+03 -0.29302342018E+02 -0.77210651628E+03  0.79220032457E+03  0.87186622338E+02 0.  0.
         25    2    1    2    0    0  0.27518632520E+03 -0.64427681611E+02  0.10958482771E+04  0.11385997838E+04  0.12509029365E+03 0.  0.
         24    2    1    2    0    0 -0.12361869208E+03  0.93730023629E+02  0.88264800599E+03  0.90012864768E+03  0.84244771515E+02 0.  0.
        -13    1    5    5    0    0 -0.10751198763E+03  0.37096094002E+02  0.48573484433E+03  0.49887201432E+03  0.00000000000E+00 0.  1.
         14    1    5    5    0    0 -0.16106704444E+02  0.56633929627E+02  0.39691316166E+03  0.40125663336E+03  0.00000000000E+00 0. -1.
         11    1    3    3    0    0 -0.19952412027E+02  0.11532810099E+02 -0.32358536873E+02  0.39726305681E+02  0.00000000000E+00 0. -1.
        -12    1    3    3    0    0 -0.13161522109E+03 -0.40835152116E+02 -0.73974797941E+03  0.75247401889E+03  0.00000000000E+00 0.  1.
          5    1    4    4  501    0  0.12563920240E+03  0.20067752509E+02  0.61337476307E+03  0.62644552536E+03  0.41800000000E+01 0.  1.
         -5    1    4    4    0  501  0.14954712279E+03 -0.84495434120E+02  0.48247351405E+03  0.51215425848E+03  0.41800000000E+01 0.  1.
</event>
<event>
11    1  0.1024562E-008  0.1607553E+03  0.7561462E-02  0.1086369E+00
         22   -1    0    0    0    0  0.00000000000E+00  0.00000000000E+00  0.12838148664E+04  0.12838148664E+04  0.00000000000E+00 0.  1.
         22   -1    0    0    0    0 -0.00000000000E+00 -0.00000000000E+00 -0.66093964976E+03  0.66093964976E+03  0.00000000000E+00 0. -1.
         24    2    1    2    0    0 -0.16139178150E+02  0.66273999483E+02 -0.43980534889E+03  0.45263309229E+03  0.82433338186E+02 0.  0.
         25    2    1    2    0    0  0.80953110851E+01  0.35444775422E+02 -0.19128052346E+03  0.23142057500E+03  0.12508148429E+03 0.  0.
        -24    2    1    2    0    0  0.80438670652E+01 -0.10171877491E+03  0.12539610890E+04  0.12607008489E+04  0.80850508272E+02 0.  0.
        -11    1    3    3    0    0 -0.15848960193E+02  0.95643800438E+01 -0.14368921799E+02  0.23433583134E+02  0.00000000000E+00 0.  1.
         12    1    3    3    0    0 -0.29021795693E+00  0.56709619439E+02 -0.42543642709E+03  0.42919950915E+03  0.00000000000E+00 0. -1.
         11    1    5    5    0    0 -0.77823221717E+01 -0.51394316391E+02  0.24959225862E+03  0.25494751589E+03  0.00000000000E+00 0. -1.
        -12    1    5    5    0    0  0.15826189237E+02 -0.50324458514E+02  0.10043688304E+04  0.10057533330E+04  0.00000000000E+00 0.  1.
          5    1    4    4  501    0  0.64521225386E+02  0.30315211009E+02 -0.85945107636E+02  0.11174092567E+03  0.41800000000E+01 0.  1.
         -5    1    4    4    0  501 -0.56425914301E+02  0.51295644127E+01 -0.10533541582E+03  0.11967964932E+03  0.41800000000E+01 0.  1.
</event>
<event>
11    1  0.8864208E-009  0.1873173E+03  0.7561462E-02  0.1063873E+00
         22   -1    0    0    0    0  0.00000000000E+00  0.00000000000E+00  0.54845227926E+03  0.54845227926E+03  0.00000000000E+00 0.  1.
         22   -1    0    0    0    0 -0.00000000000E+00 -0.00000000000E+00 -0.10828462533E+04  0.10828462533E+04  0.00000000000E+00 0.  1.
         24    2    1    2    0    0 -0.67064667634E+02 -0.69501608126E+02 -0.10059300408E+04  0.10135111756E+04  0.77340240417E+02 0.  0.
         25    2    1    2    0    0  0.97501531268E+02 -0.79114851986E+02  0.88597734144E+02  0.19814657779E+03  0.12508716717E+03 0.  0.
        -24    2    1    2    0    0 -0.30436863634E+02  0.14861646011E+03  0.38293833261E+03  0.41964077922E+03  0.80270555710E+02 0.  0.
        -13    1    3    3    0    0 -0.84410245155E+02 -0.58444938452E+02 -0.86918865270E+03  0.87523129189E+03  0.00000000000E+00 0.  1.
         14    1    3    3    0    0  0.17345577522E+02 -0.11056669673E+02 -0.13674138814E+03  0.13827988370E+03  0.00000000000E+00 0. -1.
         11    1    5    5    0    0 -0.22073921767E+02  0.84767346747E+02  0.11781846185E+03  0.14681263927E+03  0.00000000000E+00 0. -1.
        -12    1    5    5    0    0 -0.83629418673E+01  0.63849113364E+02  0.26511987076E+03  0.27282813995E+03  0.00000000000E+00 0.  1.
          5    1    4    4  501    0  0.37181661641E+02  0.32790027001E+02  0.19881008911E+02  0.53576009075E+02  0.41800000000E+01 0. -1.
         -5    1    4    4    0  501  0.60319869627E+02 -0.11190487899E+03  0.68716725233E+02  0.14457056872E+03  0.41800000000E+01 0. -1.
</event>
<event>
11    1  0.8864208E-009  0.3728196E+03  0.7561462E-02  0.9733544E-01
         22   -1    0    0    0    0  0.00000000000E+00  0.00000000000E+00  0.94180392171E+03  0.94180392171E+03  0.00000000000E+00 0. -1.
         22   -1    0    0    0    0 -0.00000000000E+00 -0.00000000000E+00 -0.51958719790E+03  0.51958719790E+03  0.00000000000E+00 0.  1.
         24    2    1    2    0    0 -0.73842457286E+02  0.68675267628E+02 -0.32417057656E+03  0.35116007714E+03  0.89765450975E+02 0.  0.
         25    2    1    2    0    0 -0.23796846159E+03 -0.24568128050E+03  0.11954160933E+03  0.38330862635E+03  0.12508807446E+03 0.  0.
        -24    2    1    2    0    0  0.31181091887E+03  0.17700601287E+03  0.62684569104E+03  0.72692241612E+03  0.83207577512E+02 0.  0.
        -11    1    3    3    0    0  0.11445770717E+02  0.39905994971E+02 -0.14234115937E+03  0.14827170921E+03  0.00000000000E+00 0.  1.
         12    1    3    3    0    0 -0.85288228003E+02  0.28769272657E+02 -0.18182941719E+03  0.20288836793E+03  0.00000000000E+00 0. -1.
         11    1    5    5    0    0  0.30991515431E+03  0.17171343296E+03  0.57939780437E+03  0.67914263718E+03  0.00000000000E+00 0. -1.
        -12    1    5    5    0    0  0.18957645624E+01  0.52925799061E+01  0.47447886672E+02  0.47779778934E+02  0.00000000000E+00 0.  1.
          5    1    4    4  501    0 -0.15271210461E+03 -0.13296694585E+03  0.13140295386E+03  0.24142370278E+03  0.41800000000E+01 0.  1.
         -5    1    4    4    0  501 -0.85256356981E+02 -0.11271433465E+03 -0.11861344529E+02  0.14188492357E+03  0.41800000000E+01 0.  1.
</event>
<event>
11    1  0.8864208E-009  0.1930778E+03  0.7561462E-02  0.1059530E+00
         22   -1    0    0    0    0  0.00000000000E+00  0.00000000000E+00  0.13836836070E+04  0.13836836070E+04  0.00000000000E+00 0. -1.
         22   -1    0    0    0    0 -0.00000000000E+00 -0.00000000000E+00 -0.16481073598E+03  0.16481073598E+03  0.00000000000E+00 0. -1.
        -24    2    1    2    0    0  0.52421217375E+02 -0.41190464256E+02 -0.10548668409E+03  0.14994462555E+03  0.83134299980E+02 0.  0.
         25    2    1    2    0    0 -0.18896577878E+03  0.17733105498E+02  0.39678524563E+03  0.45728421749E+03  0.12509115009E+03 0.  0.
         24    2    1    2    0    0  0.13654456141E+03  0.23457358757E+02  0.92757430949E+03  0.94126549997E+03  0.79949839670E+02 0.  0.
        -13    1    5    5    0    0  0.25378240887E+02 -0.26717998904E+02  0.17120945031E+03  0.17513018715E+03  0.00000000000E+00 0.  1.
         14    1    5    5    0    0  0.11116632052E+03  0.50175357661E+02  0.75636485918E+03  0.76613531281E+03  0.00000000000E+00 0. -1.
         11    1    3    3    0    0  0.39352612036E+02 -0.64876025060E+02 -0.93340542404E+02  0.12029124473E+03  0.00000000000E+00 0. -1.
        -12    1    3    3    0    0  0.13068605339E+02  0.23685560805E+02 -0.12146141685E+02  0.29653380818E+02  0.00000000000E+00 0.  1.
          5    1    4    4  501    0 -0.17811398502E+02 -0.63389258620E+01 -0.48995439742E+01  0.19972626989E+02  0.41800000000E+01 0.  1.
         -5    1    4    4    0  501 -0.17115438028E+03  0.24072031360E+02  0.40168478961E+03  0.43731159050E+03  0.41800000000E+01 0.  1.
</event>
<event>
11    1  0.8864208E-009  0.1726002E+03  0.7561462E-02  0.1075791E+00
         22   -1    0    0    0    0  0.00000000000E+00  0.00000000000E+00  0.86622702117E+03  0.86622702117E+03  0.00000000000E+00 0. -1.
         22   -1    0    0    0    0 -0.00000000000E+00 -0.00000000000E+00 -0.69754982644E+03  0.69754982644E+03  0.00000000000E+00 0. -1.
        -24    2    1    2    0    0 -0.10056902202E+03  0.73295222545E+02 -0.43795477044E+03  0.46206826783E+03  0.78844057148E+02 0.  0.
         25    2    1    2    0    0  0.39190706040E+02 -0.11436842231E+03 -0.21289084544E+03  0.27492907789E+03  0.12508972115E+03 0.  0.
         24    2    1    2    0    0  0.61378315984E+02  0.41073199769E+02  0.81952281060E+03  0.82677950188E+03  0.80575444275E+02 0.  0.
        -11    1    5    5    0    0  0.21774291359E+02  0.44180376880E+02  0.19968376003E+03  0.20566873726E+03  0.00000000000E+00 0.  1.
         12    1    5    5    0    0  0.39604024626E+02 -0.31071771117E+01  0.61983905057E+03  0.62111076462E+03  0.00000000000E+00 0. -1.
         11    1    3    3    0    0 -0.65735010235E+02  0.80594188759E+02 -0.38072348727E+03  0.39467314147E+03  0.00000000000E+00 0. -1.
        -12    1    3    3    0    0 -0.34834011790E+02 -0.72989662141E+01 -0.57231283167E+02  0.67395126367E+02  0.00000000000E+00 0.  1.
          5    1    4    4  501    0  0.30025052715E+01 -0.62751051242E+02 -0.11684021038E+02  0.64036694305E+02  0.41800000000E+01 0. -1.
         -5    1    4    4    0  501  0.36188200769E+02 -0.51617371072E+02 -0.20120682440E+03  0.21089238359E+03  0.41800000000E+01 0. -1.
</event>
<event>
11    1  0.8864208E-009  0.1356357E+03  0.7561462E-02  0.1112532E+00
         22   -1    0    0    0    0  0.00000000000E+00  0.00000000000E+00  0.36892425255E+03  0.36892425255E+03  0.00000000000E+00 0.  1.
         22   -1    0    0    0    0 -0.00000000000E+00 -0.00000000000E+00 -0.24547215868E+03  0.24547215868E+03  0.00000000000E+00 0.  1.
        -24    2    1    2    0    0  0.28843609006E+02 -0.37718065208E+02 -0.14514502524E+03  0.17229733075E+03  0.79778979754E+02 0.  0.
         25    2    1    2    0    0 -0.75737595668E+02  0.50882113877E+02 -0.19312255694E+01  0.15484211949E+03  0.12508868624E+03 0.  0.
         24    2    1    2    0    0  0.46893986662E+02 -0.13164048668E+02  0.27052834468E+03  0.28725696099E+03  0.83418452367E+02 0.  0.
        -11    1    5    5    0    0  0.25665575562E+02  0.26644889317E+02  0.20098399002E+03  0.20436055427E+03  0.00000000000E+00 0.  1.
         12    1    5    5    0    0  0.21228411100E+02 -0.39808937985E+02  0.69544354658E+02  0.82896406714E+02  0.00000000000E+00 0. -1.
         13    1    3    3    0    0  0.26198664665E+02 -0.13406063631E+02 -0.47767120610E+01  0.29814586203E+02  0.00000000000E+00 0. -1.
        -14    1    3    3    0    0  0.26449443410E+01 -0.24312001578E+02 -0.14036831317E+03  0.14248274455E+03  0.00000000000E+00 0.  1.
          5    1    4    4  501    0  0.24333179105E+02  0.42431764421E+02 -0.19465356162E+02  0.52810327851E+02  0.41800000000E+01 0. -1.
         -5    1    4    4    0  501 -0.10007077477E+03  0.84503494561E+01  0.17534130592E+02  0.10203179164E+03  0.41800000000E+01 0. -1.
</event>
<event>
11    1  0.8864208E-009  0.1319941E+03  0.7561462E-02  0.1116843E+00
         22   -1    0    0    0    0  0.00000000000E+00  0.00000000000E+00  0.33542401821E+03  0.33542401821E+03  0.00000000000E+00 0. -1.
         22   -1    0    0    0    0 -0.00000000000E+00 -0.00000000000E+00 -0.20623197610E+03  0.20623197610E+03  0.00000000000E+00 0. -1.
         24    2    1    2    0    0 -0.24358857946E+02 -0.34434882639E+02 -0.13146075670E+03  0.16034144667E+03  0.81537315793E+02 0.  0.
         25    2    1    2    0    0  0.28869607364E+01  0.47718424662E+02  0.31790673950E+02  0.13764065701E+03  0.12509564708E+03 0.  0.
        -24    2    1    2    0    0  0.21471897210E+02 -0.13283542023E+02  0.22886212485E+03  0.24367389063E+03  0.79759625887E+02 0.  0.
        -13    1    3    3    0    0 -0.11602084667E+02  0.24590628779E+02 -0.65462087811E+02  0.70884358873E+02  0.00000000000E+00 0.  1.
         14    1    3    3    0    0 -0.12756773280E+02 -0.59025511418E+02 -0.65998668887E+02  0.89457087799E+02  0.00000000000E+00 0. -1.
         13    1    5    5    0    0  0.49142023631E+02  0.21491312120E+01  0.16808235961E+03  0.17513205550E+03  0.00000000000E+00 0. -1.
        -14    1    5    5    0    0 -0.27670126421E+02 -0.15432673235E+02  0.60779765242E+02  0.68541835124E+02  0.00000000000E+00 0.  1.
          5    1    4    4  501    0  0.49119238310E+01  0.84697759582E+02 -0.52367477089E+01  0.85104250191E+02  0.41800000000E+01 0.  1.
         -5    1    4    4    0  501 -0.20249630946E+01 -0.36979334920E+02  0.37027421659E+02  0.52536406819E+02  0.41800000000E+01 0.  1.
</event>
<event>
11    1  0.8864208E-009  0.2229705E+03  0.7561462E-02  0.1039372E+00
         22   -1    0    0    0    0  0.00000000000E+00  0.00000000000E+00  0.37089175351E+03  0.37089175351E+03  0.00000000000E+00 0. -1.
         22   -1    0    0    0    0 -0.00000000000E+00 -0.00000000000E+00 -0.32508718562E+04  0.32508718562E+04  0.00000000000E+00 0.  1.
         24    2    1    2    0    0 -0.12403114891E+02 -0.52246852939E+02 -0.28785639569E+04  0.28802083013E+04  0.81153151929E+02 0.  0.
         25    2    1    2    0    0  0.16767140650E+03  0.14613995243E+03 -0.29313325071E+03  0.38864444852E+03  0.12508724331E+03 0.  0.
        -24    2    1    2    0    0 -0.15526829161E+03 -0.93893099490E+02  0.29171710494E+03  0.35291085986E+03  0.80765395966E+02 0.  0.
        -13    1    3    3    0    0 -0.35975567631E+02 -0.37435066505E+02 -0.25305592162E+04  0.25310917748E+04  0.00000000000E+00 0.  1.
         14    1    3    3    0    0  0.23572452740E+02 -0.14811786434E+02 -0.34800474070E+03  0.34911652653E+03  0.00000000000E+00 0. -1.
         13    1    5    5    0    0 -0.10645954901E+03 -0.20904606564E+02  0.18759823571E+03  0.21671118151E+03  0.00000000000E+00 0. -1.
        -14    1    5    5    0    0 -0.48808742592E+02 -0.72988492926E+02  0.10411886923E+03  0.13619967835E+03  0.00000000000E+00 0.  1.
          5    1    4    4  501    0  0.83521993156E+02  0.14493204827E+03 -0.22432227476E+03  0.27985563655E+03  0.41800000000E+01 0.  1.
         -5    1    4    4    0  501  0.84149413340E+02  0.12079041612E+01 -0.68810975947E+02  0.10878881196E+03  0.41800000000E+01 0.  1.
</event>
<event>
11    1  0.8864208E-009  0.1278087E+03  0.7561462E-02  0.1121991E+00
         22   -1    0    0    0    0  0.00000000000E+00  0.00000000000E+00  0.13302605654E+04  0.13302605654E+04  0.00000000000E+00 0. -1.
         22   -1    0    0    0    0 -0.00000000000E+00 -0.00000000000E+00 -0.17449963258E+03  0.17449963258E+03  0.00000000000E+00 0. -1.
         24    2    1    2    0    0 -0.11439476104E+02  0.11086324087E+01 -0.13165477922E+03  0.15534272304E+03  0.81647351632E+02 0.  0.
         25    2    1    2    0    0  0.35753562823E+02  0.72503778852E+01  0.11465166282E+03  0.17355905534E+03  0.12508739613E+03 0.  0.
        -24    2    1    2    0    0 -0.24314086719E+02 -0.83590102939E+01  0.11727640492E+04  0.11758584196E+04  0.81280132451E+02 0.  0.
        -11    1    3    3    0    0 -0.20518037378E+02 -0.34599244767E+02 -0.95931790877E+02  0.10402406499E+03  0.00000000000E+00 0.  1.
         12    1    3    3    0    0  0.90785612736E+01  0.35707877175E+02 -0.35722988345E+02  0.51318658045E+02  0.00000000000E+00 0. -1.
         11    1    5    5    0    0 -0.23015226196E+02  0.32466485549E+02  0.77019411248E+03  0.77122159216E+03  0.00000000000E+00 0. -1.
        -12    1    5    5    0    0 -0.12988605232E+01 -0.40825495843E+02  0.40256993676E+03  0.40463682745E+03  0.00000000000E+00 0.  1.
          5    1    4    4  501    0  0.29818288781E+02 -0.23316226808E+02 -0.14418535376E+02  0.40720306246E+02  0.41800000000E+01 0. -1.
         -5    1    4    4    0  501  0.59352740422E+01  0.30566604694E+02  0.12907019819E+03  0.13283874910E+03  0.41800000000E+01 0. -1.
</event>
<event>
11    1  0.8864208E-009  0.1408660E+03  0.7561462E-02  0.1106595E+00
         22   -1    0    0    0    0  0.00000000000E+00  0.00000000000E+00  0.77055463658E+03  0.77055463658E+03  0.00000000000E+00 0. -1.
         22   -1    0    0    0    0 -0.00000000000E+00 -0.00000000000E+00 -0.38501402674E+03  0.38501402674E+03  0.00000000000E+00 0.  1.
        -24    2    1    2    0    0 -0.21085472148E+02 -0.58564533524E+02 -0.22408146025E+03  0.24594354697E+03  0.80008285481E+02 0.  0.
         25    2    1    2    0    0  0.49259362737E+02  0.58757887320E+02 -0.11105235408E+03  0.18400831867E+03  0.12508981515E+03 0.  0.
         24    2    1    2    0    0 -0.28173890589E+02 -0.19335379620E+00  0.72067442418E+03  0.72561679767E+03  0.79713900283E+02 0.  0.
        -11    1    5    5    0    0  0.11629541331E+02  0.30672611227E+02  0.35041962899E+03  0.35195166102E+03  0.00000000000E+00 0.  1.
         12    1    5    5    0    0 -0.39803431920E+02 -0.30865965023E+02  0.37025479519E+03  0.37366513666E+03  0.00000000000E+00 0. -1.
         13    1    3    3    0    0 -0.12764576980E+02  0.18525991452E+02 -0.68699348121E+02  0.72289329897E+02  0.00000000000E+00 0. -1.
        -14    1    3    3    0    0 -0.83208951681E+01 -0.77090524975E+02 -0.15538211213E+03  0.17365421708E+03  0.00000000000E+00 0.  1.
          5    1    4    4  501    0 -0.15221855066E+02  0.77517578540E+02 -0.53883430187E+02  0.95716123527E+02  0.41800000000E+01 0.  1.
         -5    1    4    4    0  501  0.64481217803E+02 -0.18759691220E+02 -0.57168923894E+02  0.88292195143E+02  0.41800000000E+01 0.  1.
</event>
<event>
11    1  0.8864208E-009  0.1430780E+03  0.7561462E-02  0.1104169E+00
         22   -1    0    0    0    0  0.00000000000E+00  0.00000000000E+00  0.13329105019E+03  0.13329105019E+03  0.00000000000E+00 0.  1.
         22   -1    0    0    0    0 -0.00000000000E+00 -0.00000000000E+00 -0.58116851446E+03  0.58116851446E+03  0.00000000000E+00 0. -1.
        -24    2    1    2    0    0 -0.34006243168E+02  0.33969469039E+02 -0.31776777037E+03  0.32968430920E+03  0.73518966573E+02 0.  0.
         25    2    1    2    0    0  0.99308449204E+02 -0.22111234096E+02 -0.20153705560E+03  0.25810444823E+03  0.12509854779E+03 0.  0.
         24    2    1    2    0    0 -0.65302206036E+02 -0.11858234943E+02  0.71427361704E+02  0.12667080721E+03  0.80861792901E+02 0.  0.
        -11    1    5    5    0    0 -0.71071885586E+02 -0.86958011696E+01  0.19337652784E+02  0.74167207673E+02  0.00000000000E+00 0.  1.
         12    1    5    5    0    0  0.57696795502E+01 -0.31624337733E+01  0.52089708920E+02  0.52503599541E+02  0.00000000000E+00 0. -1.
         11    1    3    3    0    0 -0.52139054427E+02  0.30270518664E+02 -0.29075805797E+03  0.29694281195E+03  0.00000000000E+00 0. -1.
        -12    1    3    3    0    0  0.18132811259E+02  0.36989503744E+01 -0.27009712404E+02  0.32741497250E+02  0.00000000000E+00 0.  1.
          5    1    4    4  501    0  0.10215196949E+03 -0.55111658728E+02 -0.19017797474E+03  0.22283952584E+03  0.41800000000E+01 0. -1.
         -5    1    4    4    0  501 -0.28435202826E+01  0.33000424632E+02 -0.11359080858E+02  0.35264922394E+02  0.41800000000E+01 0. -1.
</event>
<event>
11    1  0.8864208E-009  0.6884226E+03  0.7561462E-02  0.9049542E-01
         22   -1    0    0    0    0  0.00000000000E+00  0.00000000000E+00  0.90429465605E+03  0.90429465605E+03  0.00000000000E+00 0. -1.
         22   -1    0    0    0    0 -0.00000000000E+00 -0.00000000000E+00 -0.11927152967E+04  0.11927152967E+04  0.00000000000E+00 0. -1.
         24    2    1    2    0    0  0.20847447643E+03 -0.39164033487E+03 -0.33850413840E+03  0.56442064282E+03  0.84509473490E+02 0.  0.
         25    2    1    2    0    0 -0.77374921566E+03  0.50951350802E+03 -0.71449398787E+02  0.93757824129E+03  0.12512425171E+03 0.  0.
        -24    2    1    2    0    0  0.56527473923E+03 -0.11787317315E+03  0.12153289651E+03  0.59501106867E+03  0.76408841991E+02 0.  0.
        -11    1    3    3    0    0  0.17689220119E+03 -0.33729195251E+03 -0.32370961968E+03  0.49984460580E+03  0.00000000000E+00 0.  1.
         12    1    3    3    0    0  0.31582275231E+02 -0.54348382353E+02 -0.14794518728E+02  0.64576037022E+02  0.00000000000E+00 0. -1.
         11    1    5    5    0    0  0.11908652185E+03 -0.54830814794E+01  0.50361247232E+02  0.12941375155E+03  0.00000000000E+00 0. -1.
        -12    1    5    5    0    0  0.44618821739E+03 -0.11239009167E+03  0.71171649281E+02  0.46559731711E+03  0.00000000000E+00 0.  1.
          5    1    4    4  501    0 -0.30058374833E+03  0.23747377703E+03 -0.81532070074E+02  0.39167503799E+03  0.41800000000E+01 0.  1.
         -5    1    4    4    0  501 -0.47316546733E+03  0.27203973099E+03  0.10082671287E+02  0.54590320330E+03  0.41800000000E+01 0.  1.
</event>
<event>
11    1  0.8864208E-009  0.1650949E+03  0.7561462E-02  0.1082381E+00
         22   -1    0    0    0    0  0.00000000000E+00  0.00000000000E+00  0.22414653144E+03  0.22414653144E+03  0.00000000000E+00 0.  1.
         22   -1    0    0    0    0 -0.00000000000E+00 -0.00000000000E+00 -0.30967268784E+03  0.30967268784E+03  0.00000000000E+00 0. -1.
         24    2    1    2    0    0 -0.40077846334E+01 -0.11269224518E+03 -0.20345102586E+03  0.24980585978E+03  0.91077127744E+02 0.  0.
         25    2    1    2    0    0 -0.15487481119E+02  0.88698438300E+02  0.22664733210E+02  0.15578311469E+03  0.12508962252E+03 0.  0.
        -24    2    1    2    0    0  0.19495265752E+02  0.23993806878E+02  0.95260136252E+02  0.12823024481E+03  0.80079547766E+02 0.  0.
        -11    1    3    3    0    0  0.46240608212E+01 -0.56323581767E+01  0.91000062145E+01  0.11658280757E+02  0.00000000000E+00 0.  1.
         12    1    3    3    0    0 -0.86318454545E+01 -0.10705988700E+03 -0.21255103207E+03  0.23814757902E+03  0.00000000000E+00 0. -1.
         11    1    5    5    0    0  0.15435889192E+02  0.22550519474E+02 -0.50816858648E+01  0.27795973358E+02  0.00000000000E+00 0. -1.
        -12    1    5    5    0    0  0.40593765606E+01  0.14432874038E+01  0.10034182212E+03  0.10043427145E+03  0.00000000000E+00 0.  1.
          5    1    4    4  501    0  0.34758425305E+02  0.46206306549E+02  0.57122159360E+02  0.81385406459E+02  0.41800000000E+01 0. -1.
         -5    1    4    4    0  501 -0.50245906424E+02  0.42492131750E+02 -0.34457426150E+02  0.74397708231E+02  0.41800000000E+01 0. -1.
</event>
<event>
11    1  0.8864208E-009  0.1689099E+03  0.7561462E-02  0.1078984E+00
         22   -1    0    0    0    0  0.00000000000E+00  0.00000000000E+00  0.24661730887E+03  0.24661730887E+03  0.00000000000E+00 0. -1.
         22   -1    0    0    0    0 -0.00000000000E+00 -0.00000000000E+00 -0.17285051521E+04  0.17285051521E+04  0.00000000000E+00 0.  1.
         24    2    1    2    0    0 -0.35116996045E+00  0.67576951836E+02 -0.61210130437E+03  0.62125173008E+03  0.81969125741E+02 0.  0.
         25    2    1    2    0    0 -0.91007068656E+02 -0.13368829412E+03 -0.10816291958E+04  0.11007833390E+04  0.12508955034E+03 0.  0.
        -24    2    1    2    0    0  0.91358238616E+02  0.66111342280E+02  0.21184265697E+03  0.25308739189E+03  0.80367152984E+02 0.  0.
        -11    1    3    3    0    0 -0.22808972010E+02  0.69171201435E+02 -0.55679225000E+03  0.56153585280E+03  0.00000000000E+00 0.  1.
         12    1    3    3    0    0  0.22457802050E+02 -0.15942495992E+01 -0.55309054369E+02  0.59715877284E+02  0.00000000000E+00 0. -1.
         11    1    5    5    0    0  0.99231705801E+02  0.70419279879E+02  0.16289569952E+03  0.20332440910E+03  0.00000000000E+00 0. -1.
        -12    1    5    5    0    0 -0.78734671851E+01 -0.43079375986E+01  0.48946957455E+02  0.49762982788E+02  0.00000000000E+00 0.  1.
          5    1    4    4  501    0 -0.37876655079E+02 -0.10152755755E+02 -0.70820576100E+02  0.81060137235E+02  0.41800000000E+01 0. -1.
         -5    1    4    4    0  501 -0.53130413577E+02 -0.12353553836E+03 -0.10108086197E+04  0.10197232017E+04  0.41800000000E+01 0. -1.
</event>
<event>
11    1  0.8864208E-009  0.1303385E+03  0.7561462E-02  0.1118854E+00
         22   -1    0    0    0    0  0.00000000000E+00  0.00000000000E+00  0.76665692230E+03  0.76665692230E+03  0.00000000000E+00 0.  1.
         22   -1    0    0    0    0 -0.00000000000E+00 -0.00000000000E+00 -0.14298250743E+03  0.14298250743E+03  0.00000000000E+00 0.  1.
         24    2    1    2    0    0 -0.12246940502E+02 -0.33734294631E+02 -0.92539118295E+02  0.12675695887E+03  0.78840649548E+02 0.  0.
         25    2    1    2    0    0  0.21531593694E+01  0.44238599482E+02  0.11267046543E+03  0.17408288572E+03  0.12509407477E+03 0.  0.
        -24    2    1    2    0    0  0.10093781132E+02 -0.10504304851E+02  0.60354306774E+03  0.60879958514E+03  0.78488696019E+02 0.  0.
        -13    1    3    3    0    0 -0.11881649613E+02 -0.27964803465E+02 -0.10697510182E+03  0.11120645772E+03  0.00000000000E+00 0.  1.
         14    1    3    3    0    0 -0.36529088839E+00 -0.57694911666E+01  0.14435983521E+02  0.15550501149E+02  0.00000000000E+00 0. -1.
         13    1    5    5    0    0 -0.11647660563E+02  0.11304826938E+02  0.27493053083E+02  0.31927027368E+02  0.00000000000E+00 0. -1.
        -14    1    5    5    0    0  0.21741441695E+02 -0.21809131788E+02  0.57605001466E+03  0.57687255777E+03  0.00000000000E+00 0.  1.
          5    1    4    4  501    0 -0.41172662068E+02  0.70354826062E+02  0.75270250199E+02  0.11103185406E+03  0.41800000000E+01 0.  1.
         -5    1    4    4    0  501  0.43325821437E+02 -0.26116226580E+02  0.37400215227E+02  0.63051031657E+02  0.41800000000E+01 0.  1.
</event>
<event>
11    1  0.8864208E-009  0.1400676E+03  0.7561462E-02  0.1107483E+00
         22   -1    0    0    0    0  0.00000000000E+00  0.00000000000E+00  0.56023198906E+03  0.56023198906E+03  0.00000000000E+00 0. -1.
         22   -1    0    0    0    0 -0.00000000000E+00 -0.00000000000E+00 -0.54603771451E+03  0.54603771451E+03  0.00000000000E+00 0. -1.
        -24    2    1    2    0    0 -0.35473578738E+02  0.84354458592E+01 -0.49215330987E+03  0.49975928220E+03  0.78834815871E+02 0.  0.
         25    2    1    2    0    0  0.94176714562E+02 -0.96202855379E+01  0.95665185929E+02  0.18374098198E+03  0.12508843752E+03 0.  0.
         24    2    1    2    0    0 -0.58703135823E+02  0.11848396787E+01  0.41068239849E+03  0.42276943938E+03  0.81403344218E+02 0.  0.
        -11    1    5    5    0    0 -0.36224316544E+02  0.21106463661E+02  0.76457964232E+02  0.87198074588E+02  0.00000000000E+00 0.  1.
         12    1    5    5    0    0 -0.22478819280E+02 -0.19921623983E+02  0.33422443426E+03  0.33557136480E+03  0.00000000000E+00 0. -1.
         13    1    3    3    0    0 -0.23142844651E+02  0.66785964249E+01 -0.48458835811E+03  0.48518663597E+03  0.00000000000E+00 0. -1.
        -14    1    3    3    0    0 -0.12330734087E+02  0.17568494343E+01 -0.75649517660E+01  0.14572646235E+02  0.00000000000E+00 0.  1.
          5    1    4    4  501    0  0.33522252684E+02  0.31300469112E+02  0.10023841130E+03  0.11031170514E+03  0.41800000000E+01 0.  1.
         -5    1    4    4    0  501  0.60654461878E+02 -0.40920754650E+02 -0.45732253696E+01  0.73429276839E+02  0.41800000000E+01 0.  1.
</event>
<event>
11    1  0.8864208E-009  0.1428843E+03  0.7561462E-02  0.1104380E+00
         22   -1    0    0    0    0  0.00000000000E+00  0.00000000000E+00  0.93352102814E+03  0.93352102814E+03  0.00000000000E+00 0.  1.
         22   -1    0    0    0    0 -0.00000000000E+00 -0.00000000000E+00 -0.20084794325E+04  0.20084794325E+04  0.00000000000E+00 0. -1.
         24    2    1    2    0    0 -0.43747894318E+02  0.12702626752E+02 -0.19731454061E+04  0.19752609223E+04  0.79231827394E+02 0.  0.
         25    2    1    2    0    0 -0.75365703447E+01 -0.62425099567E+02  0.13041918144E+03  0.19133658864E+03  0.12508730678E+03 0.  0.
        -24    2    1    2    0    0  0.51284464663E+02  0.49722472815E+02  0.76776782029E+03  0.77540294973E+03  0.81730581565E+02 0.  0.
        -13    1    3    3    0    0 -0.52740318291E+02 -0.49298442783E+01 -0.71485090172E+03  0.71681075342E+03  0.00000000000E+00 0.  1.
         14    1    3    3    0    0  0.89924239726E+01  0.17632471031E+02 -0.12582945044E+04  0.12584501688E+04  0.00000000000E+00 0. -1.
         11    1    5    5    0    0  0.24432587932E+01 -0.14559457109E+02  0.32258022446E+02  0.35475728561E+02  0.00000000000E+00 0. -1.
        -12    1    5    5    0    0  0.48841205870E+02  0.64281929924E+02  0.73550979784E+03  0.73992722117E+03  0.00000000000E+00 0.  1.
          5    1    4    4  501    0 -0.35382107901E+02 -0.61639476217E+02  0.14356707530E+03  0.16025072886E+03  0.41800000000E+01 0.  1.
         -5    1    4    4    0  501  0.27845537556E+02 -0.78562335038E+00 -0.13147893859E+02  0.31085859788E+02  0.41800000000E+01 0.  1.
</event>
<event>
11    1  0.8864208E-009  0.2082182E+03  0.7561462E-02  0.1048860E+00
         22   -1    0    0    0    0  0.00000000000E+00  0.00000000000E+00  0.17542249185E+03  0.17542249185E+03  0.00000000000E+00 0. -1.
         22   -1    0    0    0    0 -0.00000000000E+00 -0.00000000000E+00 -0.21356185069E+04  0.21356185069E+04  0.00000000000E+00 0. -1.
        -24    2    1    2    0    0  0.58658423347E+02  0.14297685868E+03 -0.12852898537E+04  0.12970522267E+04  0.80568468164E+02 0.  0.
         25    2    1    2    0    0 -0.14603210295E+02 -0.21044014483E+03 -0.80490833694E+03  0.84144077605E+03  0.12508733121E+03 0.  0.
         24    2    1    2    0    0 -0.44055213052E+02  0.67463286148E+02  0.13000217563E+03  0.17254799593E+03  0.79875455904E+02 0.  0.
        -13    1    5    5    0    0  0.12205231862E+02 -0.79180291029E+01  0.35986249350E+01  0.14987093484E+02  0.00000000000E+00 0.  1.
         14    1    5    5    0    0 -0.56260444915E+02  0.75381315251E+02  0.12640355070E+03  0.15756090245E+03  0.00000000000E+00 0. -1.
         11    1    3    3    0    0  0.37882485916E+02  0.84038226376E+02 -0.10342854096E+04  0.10383851958E+04  0.00000000000E+00 0. -1.
        -12    1    3    3    0    0  0.20775937431E+02  0.58938632308E+02 -0.25100444410E+03  0.25866703097E+03  0.00000000000E+00 0.  1.
          5    1    4    4  501    0 -0.39132147465E+02 -0.14533775672E+03 -0.34702062712E+03  0.37827923091E+03  0.41800000000E+01 0. -1.
         -5    1    4    4    0  501  0.24528937170E+02 -0.65102388114E+02 -0.45788770982E+03  0.46316154515E+03  0.41800000000E+01 0. -1.
</event>
<event>
11    1  0.8864208E-009  0.1779057E+03  0.7561462E-02  0.1071350E+00
         22   -1    0    0    0    0  0.00000000000E+00  0.00000000000E+00  0.43720210905E+03  0.43720210905E+03  0.00000000000E+00 0.  1.
         22   -1    0    0    0    0 -0.00000000000E+00 -0.00000000000E+00 -0.36297903825E+03  0.36297903825E+03  0.00000000000E+00 0.  1.
         24    2    1    2    0    0 -0.10328239059E+03  0.13446840035E+02 -0.27419649545E+03  0.30409458517E+03  0.80260381849E+02 0.  0.
         25    2    1    2    0    0 -0.55683157659E+02 -0.29516165083E+02  0.49800883475E+02  0.14865946009E+03  0.12509072320E+03 0.  0.
        -24    2    1    2    0    0  0.15896554825E+03  0.16069325048E+02  0.29861868278E+03  0.34742710206E+03  0.77486804031E+02 0.  0.
        -13    1    3    3    0    0 -0.23868265465E+02 -0.61041249554E+01 -0.16929856802E+03  0.17108173360E+03  0.00000000000E+00 0.  1.
         14    1    3    3    0    0 -0.79414125130E+02  0.19550964990E+02 -0.10489792744E+03  0.13301285157E+03  0.00000000000E+00 0. -1.
         13    1    5    5    0    0  0.45362660268E+02 -0.28249116463E+02  0.67313432074E+02  0.85946970076E+02  0.00000000000E+00 0. -1.
        -14    1    5    5    0    0  0.11360288799E+03  0.44318441511E+02  0.23130525070E+03  0.26148013198E+03  0.00000000000E+00 0.  1.
          5    1    4    4  501    0 -0.77360996292E+02 -0.28805015610E+02  0.77449313916E+02  0.11327100820E+03  0.41800000000E+01 0.  1.
         -5    1    4    4    0  501  0.21677838633E+02 -0.71114947260E+00 -0.27648430441E+02  0.35388451891E+02  0.41800000000E+01 0.  1.
</event>
<event>
11    1  0.8864208E-009  0.1771173E+03  0.7561462E-02  0.1071999E+00
         22   -1    0    0    0    0  0.00000000000E+00  0.00000000000E+00  0.17783658649E+04  0.17783658649E+04  0.00000000000E+00 0.  1.
         22   -1    0    0    0    0 -0.00000000000E+00 -0.00000000000E+00 -0.26905361497E+03  0.26905361497E+03  0.00000000000E+00 0.  1.
         24    2    1    2    0    0  0.74984182729E+02 -0.11269207969E+02 -0.22482991555E+03  0.25067551757E+03  0.80870893857E+02 0.  0.
         25    2    1    2    0    0 -0.19095462639E+03  0.14467836444E+02  0.44990647815E+03  0.50471436953E+03  0.12509103925E+03 0.  0.
        -24    2    1    2    0    0  0.11597044366E+03 -0.31986284754E+01  0.12842356873E+04  0.12920295927E+04  0.81362109841E+02 0.  0.
        -11    1    3    3    0    0  0.68391724970E+02 -0.18465039179E+02 -0.22926195933E+03  0.23995714558E+03  0.00000000000E+00 0.  1.
         12    1    3    3    0    0  0.65924577596E+01  0.71958312107E+01  0.44320437790E+01  0.10718371993E+02  0.00000000000E+00 0. -1.
         11    1    5    5    0    0 -0.10409405236E+02  0.97172649502E+01  0.16267879377E+03  0.16330086007E+03  0.00000000000E+00 0. -1.
        -12    1    5    5    0    0  0.12637984889E+03 -0.12915893426E+02  0.11215568935E+04  0.11287287327E+04  0.00000000000E+00 0.  1.
          5    1    4    4  501    0 -0.16816694632E+03  0.56678392924E+02  0.31644512439E+03  0.36283267660E+03  0.41800000000E+01 0.  1.
         -5    1    4    4    0  501 -0.22787680064E+02 -0.42210556480E+02  0.13346135376E+03  0.14188169293E+03  0.41800000000E+01 0.  1.
</event>
<event>
11    1  0.8864208E-009  0.1715668E+03  0.7561462E-02  0.1076676E+00
         22   -1    0    0    0    0  0.00000000000E+00  0.00000000000E+00  0.22370072511E+04  0.22370072511E+04  0.00000000000E+00 0.  1.
         22   -1    0    0    0    0 -0.00000000000E+00 -0.00000000000E+00 -0.50891865872E+02  0.50891865872E+02  0.00000000000E+00 0. -1.
         24    2    1    2    0    0 -0.11371105464E+02 -0.11481024257E+03  0.75898763378E+02  0.15906031603E+03  0.78923177923E+02 0.  0.
         25    2    1    2    0    0 -0.18883936457E+02  0.14432033341E+03  0.14133727862E+04  0.14263437214E+04  0.12509523162E+03 0.  0.
        -24    2    1    2    0    0  0.30255041921E+02 -0.29510090833E+02  0.69684383560E+03  0.70249507954E+03  0.78241884852E+02 0.  0.
        -11    1    3    3    0    0 -0.14283120667E+02  0.37106848721E+00  0.33271436437E+02  0.36209580367E+02  0.00000000000E+00 0.  1.
         12    1    3    3    0    0  0.29120152032E+01 -0.11518131106E+03  0.42627326941E+02  0.12285073566E+03  0.00000000000E+00 0. -1.
         13    1    5    5    0    0  0.34249321665E+02 -0.21076801708E+02  0.14231716209E+03  0.14788989901E+03  0.00000000000E+00 0. -1.
        -14    1    5    5    0    0 -0.39942797436E+01 -0.84332891247E+01  0.55452667351E+03  0.55460518053E+03  0.00000000000E+00 0.  1.
          5    1    4    4  501    0  0.36346828340E+02  0.12910629640E+03  0.95288705615E+03  0.96228932337E+03  0.41800000000E+01 0.  1.
         -5    1    4    4    0  501 -0.55230764797E+02  0.15214037006E+02  0.46048573008E+03  0.46405439800E+03  0.41800000000E+01 0.  1.
</event>
<event>
11    1  0.8864208E-009  0.9546158E+03  0.7561462E-02  0.8723420E-01
         22   -1    0    0    0    0  0.00000000000E+00  0.00000000000E+00  0.15108029627E+04  0.15108029627E+04  0.00000000000E+00 0. -1.
         22   -1    0    0    0    0 -0.00000000000E+00 -0.00000000000E+00 -0.96901498729E+03  0.96901498729E+03  0.00000000000E+00 0. -1.
        -24    2    1    2    0    0 -0.88814036624E+02  0.24136050101E+02 -0.14455717465E+03  0.18943860558E+03  0.80744823510E+02 0.  0.
         25    2    1    2    0    0  0.52339931723E+03 -0.84660053661E+03 -0.17675712751E+03  0.10186116083E+04  0.12508881858E+03 0.  0.
         24    2    1    2    0    0 -0.43458528060E+03  0.82246448651E+03  0.86310227762E+03  0.12717677362E+04  0.84471506867E+02 0.  0.
        -13    1    5    5    0    0 -0.65606544166E+02  0.85730389376E+02  0.12904018790E+03  0.16824175580E+03  0.00000000000E+00 0.  1.
         14    1    5    5    0    0 -0.36897873644E+03  0.73673409713E+03  0.73406208972E+03  0.11035259804E+04  0.00000000000E+00 0. -1.
         13    1    3    3    0    0 -0.76989518125E+02 -0.93358255708E+01 -0.12935373145E+03  0.15082085857E+03  0.00000000000E+00 0. -1.
        -14    1    3    3    0    0 -0.11824518499E+02  0.33471875672E+02 -0.15203443206E+02  0.38617747009E+02  0.00000000000E+00 0.  1.
          5    1    4    4  501    0  0.34620789079E+03 -0.56326822250E+03 -0.17682482106E+03  0.68440885724E+03  0.41800000000E+01 0. -1.
         -5    1    4    4    0  501  0.17719142643E+03 -0.28333231411E+03  0.67693543328E-01  0.33420275104E+03  0.41800000000E+01 0. -1.
</event>
<event>
11    1  0.8864208E-009  0.1505172E+03  0.7561462E-02  0.1096351E+00
         22   -1    0    0    0    0  0.00000000000E+00  0.00000000000E+00  0.79037080765E+03  0.79037080765E+03  0.00000000000E+00 0. -1.
         22   -1    0    0    0    0 -0.00000000000E+00 -0.00000000000E+00 -0.48632683496E+03  0.48632683496E+03  0.00000000000E+00 0. -1.
         24    2    1    2    0    0 -0.42794861118E+02 -0.46875969141E+02 -0.40402565623E+03  0.41687489019E+03  0.80741479788E+02 0.  0.
         25    2    1    2    0    0  0.11246457609E+03  0.18530720943E+01  0.28489354847E+02  0.17062004179E+03  0.12509132891E+03 0.  0.
        -24    2    1    2    0    0 -0.69669714968E+02  0.45022897047E+02  0.67958027406E+03  0.68920271064E+03  0.79310131846E+02 0.  0.
        -13    1    3    3    0    0  0.44303869996E+00 -0.24626136217E+02 -0.31038928370E+03  0.31136497925E+03  0.00000000000E+00 0.  1.
         14    1    3    3    0    0 -0.43237899818E+02 -0.22249832925E+02 -0.93636372526E+02  0.10550991094E+03  0.00000000000E+00 0. -1.
         13    1    5    5    0    0 -0.15866274089E+02  0.37818825958E+02  0.49789826371E+03  0.49958451062E+03  0.00000000000E+00 0. -1.
        -14    1    5    5    0    0 -0.53803440879E+02  0.72040710889E+01  0.18168201035E+03  0.18961820001E+03  0.00000000000E+00 0.  1.
          5    1    4    4  501    0 -0.10453748444E+02 -0.36925011833E+02  0.23840449447E+00  0.38603971196E+02  0.41800000000E+01 0. -1.
         -5    1    4    4    0  501  0.12291832453E+03  0.38778083927E+02  0.28250950352E+02  0.13201607059E+03  0.41800000000E+01 0. -1.
</event>
<event>
11    1  0.8864208E-009  0.2109642E+03  0.7561462E-02  0.1047030E+00
         22   -1    0    0    0    0  0.00000000000E+00  0.00000000000E+00  0.38831733702E+03  0.38831733702E+03  0.00000000000E+00 0.  1.
         22   -1    0    0    0    0 -0.00000000000E+00 -0.00000000000E+00 -0.85357441956E+03  0.85357441956E+03  0.00000000000E+00 0.  1.
         24    2    1    2    0    0  0.22542656124E+01 -0.64800660443E+01 -0.57888296334E+03  0.58494823553E+03  0.83736969308E+02 0.  0.
         25    2    1    2    0    0  0.15059288128E+02 -0.16316223657E+03 -0.20219153984E+03  0.28875035321E+03  0.12508657039E+03 0.  0.
        -24    2    1    2    0    0 -0.17313553740E+02  0.16964230262E+03  0.31581742065E+03  0.36819316784E+03  0.82141924010E+02 0.  0.
        -11    1    3    3    0    0  0.23822473518E+02 -0.58314033675E+01 -0.53937000732E+03  0.53992732872E+03  0.00000000000E+00 0.  1.
         12    1    3    3    0    0 -0.21568207906E+02 -0.64866267682E+00 -0.39512956026E+02  0.45020906804E+02  0.00000000000E+00 0. -1.
         11    1    5    5    0    0 -0.12882194049E+02 -0.26117491307E+01  0.78833927733E+01  0.15327101443E+02  0.00000000000E+00 0. -1.
        -12    1    5    5    0    0 -0.44313596913E+01  0.17225405175E+03  0.30793402788E+03  0.35286606640E+03  0.00000000000E+00 0.  1.
          5    1    4    4  501    0 -0.54274711904E+02 -0.61879122353E+02 -0.68038560729E+02  0.10687136324E+03  0.41800000000E+01 0.  1.
         -5    1    4    4    0  501  0.69334000032E+02 -0.10128311422E+03 -0.13415297911E+03  0.18187898997E+03  0.41800000000E+01 0.  1.
</event>
<event>
11    1  0.8864208E-009  0.1434925E+03  0.7561462E-02  0.1103720E+00
         22   -1    0    0    0    0  0.00000000000E+00  0.00000000000E+00  0.74801662789E+03  0.74801662789E+03  0.00000000000E+00 0.  1.
         22   -1    0    0    0    0 -0.00000000000E+00 -0.00000000000E+00 -0.60291168686E+03  0.60291168686E+03  0.00000000000E+00 0.  1.
         24    2    1    2    0    0 -0.16495645020E+00  0.70034466460E+02 -0.54473716260E+03  0.55531022494E+03  0.82012291159E+02 0.  0.
         25    2    1    2    0    0  0.27037248447E+02 -0.76321035061E+02  0.61081140032E+02  0.16102819775E+03  0.12507302510E+03 0.  0.
        -24    2    1    2    0    0 -0.26872291997E+02  0.62865686010E+01  0.62876096360E+03  0.63458989206E+03  0.81254788999E+02 0.  0.
        -11    1    3    3    0    0 -0.20384010353E+02  0.62411830769E+02 -0.51130294676E+03  0.51550116185E+03  0.00000000000E+00 0.  1.
         12    1    3    3    0    0  0.20219053903E+02  0.76226356913E+01 -0.33434215843E+02  0.39809063097E+02  0.00000000000E+00 0. -1.
         11    1    5    5    0    0 -0.12289582006E-01 -0.51301134182E+01 -0.21777770619E-01  0.51301743624E+01  0.00000000000E+00 0. -1.
        -12    1    5    5    0    0 -0.26860002415E+02  0.11416682019E+02  0.62878274137E+03  0.62945971770E+03  0.00000000000E+00 0.  1.
          5    1    4    4  501    0 -0.31493712278E+02 -0.76147567106E+02  0.97839296001E+01  0.83087324951E+02  0.41800000000E+01 0.  1.
         -5    1    4    4    0  501  0.58530960725E+02 -0.17346795540E+00  0.51297210432E+02  0.77940872798E+02  0.41800000000E+01 0.  1.
</event>
<event>
11    1  0.8864208E-009  0.2016916E+03  0.7561462E-02  0.1053334E+00
         22   -1    0    0    0    0  0.00000000000E+00  0.00000000000E+00  0.75029210420E+03  0.75029210420E+03  0.00000000000E+00 0.  1.
         22   -1    0    0    0    0 -0.00000000000E+00 -0.00000000000E+00 -0.25417597083E+03  0.25417597083E+03  0.00000000000E+00 0. -1.
        -24    2    1    2    0    0  0.10902090482E+03 -0.10815967263E+03 -0.82692059575E+02  0.19834979734E+03  0.94448890498E+02 0.  0.
         25    2    1    2    0    0 -0.14534438109E+03  0.87006762102E+02 -0.83770975114E+01  0.21073881754E+03  0.12508200387E+03 0.  0.
         24    2    1    2    0    0  0.36323476270E+02  0.21152910532E+02  0.58718529045E+03  0.59537946014E+03  0.89012896167E+02 0.  0.
        -11    1    5    5    0    0  0.88475814429E+01 -0.18578343015E+02  0.43977153059E+03  0.44025269294E+03  0.00000000000E+00 0.  1.
         12    1    5    5    0    0  0.27475894827E+02  0.39731253547E+02  0.14741375986E+03  0.15512676720E+03  0.00000000000E+00 0. -1.
         13    1    3    3    0    0  0.71094439352E+02 -0.37134643993E+02 -0.86215084652E+02  0.11775585723E+03  0.00000000000E+00 0. -1.
        -14    1    3    3    0    0  0.37926465467E+02 -0.71025028641E+02  0.35230250764E+01  0.80593940107E+02  0.00000000000E+00 0.  1.
          5    1    4    4  501    0 -0.83280289373E+02  0.24198153709E+01  0.42994637164E+02  0.93848139722E+02  0.41800000000E+01 0. -1.
         -5    1    4    4    0  501 -0.62064091715E+02  0.84586946731E+02 -0.51371734675E+02  0.11689067782E+03  0.41800000000E+01 0. -1.
</event>
<event>
11    1  0.8864208E-009  0.1619498E+03  0.7561462E-02  0.1085258E+00
         22   -1    0    0    0    0  0.00000000000E+00  0.00000000000E+00  0.14458011732E+04  0.14458011732E+04  0.00000000000E+00 0.  1.
         22   -1    0    0    0    0 -0.00000000000E+00 -0.00000000000E+00 -0.10610426382E+03  0.10610426382E+03  0.00000000000E+00 0. -1.
        -24    2    1    2    0    0  0.35753806615E+01 -0.88853695921E+01 -0.71709763384E+02  0.10980870839E+03  0.82607076784E+02 0.  0.
         25    2    1    2    0    0  0.23863813324E+02 -0.93884791865E+02  0.63634413056E+03  0.65571655289E+03  0.12508600843E+03 0.  0.
         24    2    1    2    0    0 -0.27439193986E+02  0.10277016146E+03  0.77506254216E+03  0.78638017570E+03  0.79732183076E+02 0.  0.
        -11    1    5    5    0    0  0.10720415305E+02  0.81127274458E+02  0.61477901450E+03  0.62020141779E+03  0.00000000000E+00 0.  1.
         12    1    5    5    0    0 -0.38159609291E+02  0.21642886998E+02  0.16028352766E+03  0.16617875790E+03  0.00000000000E+00 0. -1.
         13    1    3    3    0    0  0.15672780751E+02 -0.44907838337E+01 -0.87745062098E+02  0.89246843746E+02  0.00000000000E+00 0. -1.
        -14    1    3    3    0    0 -0.12097400090E+02 -0.43945857584E+01  0.16035298714E+02  0.20561864648E+02  0.00000000000E+00 0.  1.
          5    1    4    4  501    0  0.37282197729E+02 -0.26407632518E+01  0.40333875799E+03  0.40508833851E+03  0.41800000000E+01 0.  1.
         -5    1    4    4    0  501 -0.13418384405E+02 -0.91244028613E+02  0.23300537256E+03  0.25062821438E+03  0.41800000000E+01 0.  1.
</event>
<event>
11    1  0.8864208E-009  0.1321318E+03  0.7561462E-02  0.1116677E+00
         22   -1    0    0    0    0  0.00000000000E+00  0.00000000000E+00  0.26080464118E+03  0.26080464118E+03  0.00000000000E+00 0.  1.
         22   -1    0    0    0    0 -0.00000000000E+00 -0.00000000000E+00 -0.40929087008E+03  0.40929087008E+03  0.00000000000E+00 0.  1.
        -24    2    1    2    0    0  0.14635727690E+02 -0.82167335812E+01 -0.35164659882E+03  0.36094862604E+03  0.79667188612E+02 0.  0.
         25    2    1    2    0    0 -0.78151702600E+01  0.48361194503E+02  0.81146613554E+02  0.15694413119E+03  0.12508719121E+03 0.  0.
         24    2    1    2    0    0 -0.68205574303E+01 -0.40144460922E+02  0.12201375637E+03  0.15220275402E+03  0.81364757983E+02 0.  0.
        -11    1    5    5    0    0  0.21568845614E+02  0.26597772770E+01  0.87891516297E+02  0.90538434674E+02  0.00000000000E+00 0.  1.
         12    1    5    5    0    0 -0.28389403044E+02 -0.42804238199E+02  0.34122240076E+02  0.61664319349E+02  0.00000000000E+00 0. -1.
         11    1    3    3    0    0  0.39115025417E+02 -0.29480023253E+02 -0.21450017528E+03  0.22002132211E+03  0.00000000000E+00 0. -1.
        -12    1    3    3    0    0 -0.24479297727E+02  0.21263289672E+02 -0.13714642354E+03  0.14092730393E+03  0.00000000000E+00 0.  1.
          5    1    4    4  501    0  0.44442946792E+02  0.47449805716E+02  0.61506461675E+01  0.65436705528E+02  0.41800000000E+01 0.  1.
         -5    1    4    4    0  501 -0.52258117052E+02  0.91138878685E+00  0.74995967387E+02  0.91507425664E+02  0.41800000000E+01 0.  1.
</event>
<event>
11    1  0.8864208E-009  0.1705229E+03  0.7561462E-02  0.1077577E+00
         22   -1    0    0    0    0  0.00000000000E+00  0.00000000000E+00  0.79469386323E+03  0.79469386323E+03  0.00000000000E+00 0.  1.
         22   -1    0    0    0    0 -0.00000000000E+00 -0.00000000000E+00 -0.79354906136E+02  0.79354906136E+02  0.00000000000E+00 0. -1.
        -24    2    1    2    0    0 -0.11685903025E+03  0.85721860624E+02  0.15136375271E+03  0.22286570238E+03  0.75854237333E+02 0.  0.
         25    2    1    2    0    0  0.97129895715E+02 -0.79764851576E+01  0.13745916728E+03  0.20985855091E+03  0.12509095797E+03 0.  0.
         24    2    1    2    0    0  0.19729134536E+02 -0.77745375467E+02  0.42651603711E+03  0.44132451608E+03  0.80111275267E+02 0.  0.
        -13    1    5    5    0    0  0.51062880436E+02 -0.48749180311E+02  0.27352398709E+03  0.28248764903E+03  0.00000000000E+00 0.  1.
         14    1    5    5    0    0 -0.31333745900E+02 -0.28996195155E+02  0.15299205002E+03  0.15883686705E+03  0.00000000000E+00 0. -1.
         13    1    3    3    0    0 -0.10204179056E+03  0.99469417150E+02  0.12435977136E+03  0.18913499069E+03  0.00000000000E+00 0. -1.
        -14    1    3    3    0    0 -0.14817239691E+02 -0.13747556526E+02  0.27003981345E+02  0.33730711688E+02  0.00000000000E+00 0.  1.
          5    1    4    4  501    0  0.18005659456E+02 -0.53286529004E+02  0.17363034284E+02  0.59013602714E+02  0.41800000000E+01 0.  1.
         -5    1    4    4    0  501  0.79124236258E+02  0.45310043846E+02  0.12009613299E+03  0.15084494820E+03  0.41800000000E+01 0.  1.
</event>
<event>
11    1  0.8864208E-009  0.1578423E+03  0.7561462E-02  0.1089124E+00
         22   -1    0    0    0    0  0.00000000000E+00  0.00000000000E+00  0.69112473717E+02  0.69112473717E+02  0.00000000000E+00 0. -1.
         22   -1    0    0    0    0 -0.00000000000E+00 -0.00000000000E+00 -0.23379660334E+04  0.23379660334E+04  0.00000000000E+00 0. -1.
        -24    2    1    2    0    0 -0.40853728536E+02 -0.99423322373E+02 -0.11700229972E+04  0.11778477903E+04  0.82568630720E+02 0.  0.
         25    2    1    2    0    0 -0.28811636429E+02  0.90031560873E+02 -0.11117302677E+04  0.11227326076E+04  0.12509407515E+03 0.  0.
         24    2    1    2    0    0  0.69665364964E+02  0.93917614999E+01  0.12899705302E+02  0.10649810924E+03  0.78955535685E+02 0.  0.
        -11    1    5    5    0    0 -0.55531180297E+01  0.21466178118E+02 -0.13396870278E+02  0.25905791941E+02  0.00000000000E+00 0.  1.
         12    1    5    5    0    0  0.75218482994E+02 -0.12074416618E+02  0.26296575580E+02  0.80592317300E+02  0.00000000000E+00 0. -1.
         11    1    3    3    0    0 -0.35251054274E+02 -0.11297277504E+03 -0.10971645838E+04  0.11035287077E+04  0.00000000000E+00 0. -1.
        -12    1    3    3    0    0 -0.56026742617E+01  0.13549452666E+02 -0.72858413464E+02  0.74319082603E+02  0.00000000000E+00 0.  1.
          5    1    4    4  501    0 -0.58767222353E+02  0.72990502976E+02 -0.42968357063E+03  0.43980295954E+03  0.41800000000E+01 0. -1.
         -5    1    4    4    0  501  0.29955585924E+02  0.17041057898E+02 -0.68204669707E+03  0.68292964804E+03  0.41800000000E+01 0. -1.
</event>
<event>
11    1  0.8864208E-009  0.1663571E+03  0.7561462E-02  0.1081246E+00
         22   -1    0    0    0    0  0.00000000000E+00  0.00000000000E+00  0.23689624201E+03  0.23689624201E+03  0.00000000000E+00 0. -1.
         22   -1    0    0    0    0 -0.00000000000E+00 -0.00000000000E+00 -0.30405589597E+04  0.30405589597E+04  0.00000000000E+00 0. -1.
         24    2    1    2    0    0 -0.40093752504E+02  0.10216753991E+03 -0.29507098298E+04  0.29538374921E+04  0.80135603650E+02 0.  0.
         25    2    1    2    0    0  0.25869471347E+01 -0.11120327829E+03  0.19160139874E+02  0.16848616122E+03  0.12509042395E+03 0.  0.
        -24    2    1    2    0    0  0.37506805369E+02  0.90357383750E+01  0.12788697227E+03  0.15513154834E+03  0.78881649316E+02 0.  0.
        -13    1    3    3    0    0 -0.55349048246E+02  0.46400190800E+02 -0.11986772387E+04  0.12008512054E+04  0.00000000000E+00 0.  1.
         14    1    3    3    0    0  0.15255295742E+02  0.55767349114E+02 -0.17520325911E+04  0.17529862868E+04  0.00000000000E+00 0. -1.
         11    1    5    5    0    0 -0.12984083383E+02  0.30212324331E+02  0.52785141477E+02  0.62190370022E+02  0.00000000000E+00 0. -1.
        -12    1    5    5    0    0  0.50490888752E+02 -0.21176585956E+02  0.75101830789E+02  0.92941178321E+02  0.00000000000E+00 0.  1.
          5    1    4    4  501    0  0.54808454825E+02 -0.74080400300E+02 -0.18451104944E+02  0.94073312382E+02  0.41800000000E+01 0. -1.
         -5    1    4    4    0  501 -0.52221507690E+02 -0.37122877989E+02  0.37611244817E+02  0.74412848839E+02  0.41800000000E+01 0. -1.
</event>
<event>
11    1  0.1348259E-008  0.1763882E+03  0.7561462E-02  0.1072602E+00
         22   -1    0    0    0    0  0.00000000000E+00  0.00000000000E+00  0.73783084255E+03  0.73783084255E+03  0.00000000000E+00 0. -1.
         22   -1    0    0    0    0 -0.00000000000E+00 -0.00000000000E+00 -0.10651312738E+04  0.10651312738E+04  0.00000000000E+00 0.  1.
        -24    2    1    2    0    0  0.10457903275E+03  0.73400187808E+02 -0.93256279544E+03  0.94459644966E+03  0.79150007020E+02 0.  0.
         25    2    1    2    0    0  0.24836093850E+01 -0.13968503453E+03 -0.43602853981E+02  0.19252476600E+03  0.12508596828E+03 0.  0.
         24    2    1    2    0    0 -0.10706264214E+03  0.66284846719E+02  0.64886521819E+03  0.66584090069E+03  0.80386214068E+02 0.  0.
        -13    1    5    5    0    0 -0.51287222195E+01 -0.16617364215E+02  0.58427778282E+02  0.60961019185E+02  0.00000000000E+00 0.  1.
         14    1    5    5    0    0 -0.10193391992E+03  0.82902210935E+02  0.59043743990E+03  0.60487988150E+03  0.00000000000E+00 0. -1.
         11    1    3    3    0    0  0.37188451838E+02  0.29142159574E+02 -0.13618356296E+03  0.14414648534E+03  0.00000000000E+00 0. -1.
        -12    1    3    3    0    0  0.67390580916E+02  0.44258028234E+02 -0.79637923249E+03  0.80044996433E+03  0.00000000000E+00 0.  1.
          5    1    4    4  501    0  0.65848768678E+01 -0.13009010041E+03 -0.81020260724E+02  0.15345536770E+03  0.41800000000E+01 0.  1.
         -5    1    4    4    0  501 -0.41012674828E+01 -0.95949341135E+01  0.37417406742E+02  0.39069398292E+02  0.41800000000E+01 0.  1.
</event>
<event>
11    1  0.8864208E-009  0.2261780E+03  0.7561462E-02  0.1037415E+00
         22   -1    0    0    0    0  0.00000000000E+00  0.00000000000E+00  0.11138818923E+03  0.11138818923E+03  0.00000000000E+00 0.  1.
         22   -1    0    0    0    0 -0.00000000000E+00 -0.00000000000E+00 -0.90532705012E+03  0.90532705012E+03  0.00000000000E+00 0.  1.
        -24    2    1    2    0    0 -0.45609434251E+02 -0.65254071093E+02 -0.14228321914E+03  0.18191107725E+03  0.80677204283E+02 0.  0.
         25    2    1    2    0    0  0.19637210667E+03 -0.47451449245E+02 -0.56436468975E+03  0.61234779413E+03  0.12509465864E+03 0.  0.
         24    2    1    2    0    0 -0.15076267242E+03  0.11270552034E+03 -0.87290952000E+02  0.22245636796E+03  0.80219745919E+02 0.  0.
        -11    1    5    5    0    0 -0.89748660922E+02  0.11204398075E+03 -0.59241960928E+02  0.15530063005E+03  0.00000000000E+00 0.  1.
         12    1    5    5    0    0 -0.61014011502E+02  0.66153958569E+00 -0.28048991072E+02  0.67155737911E+02  0.00000000000E+00 0. -1.
         13    1    3    3    0    0 -0.10256688763E+02  0.15315463080E+02 -0.54317899033E+01  0.19216331993E+02  0.00000000000E+00 0. -1.
        -14    1    3    3    0    0 -0.35352745488E+02 -0.80569534172E+02 -0.13685142924E+03  0.16269474526E+03  0.00000000000E+00 0.  1.
          5    1    4    4  501    0  0.10190335873E+03  0.93996395241E+01 -0.41003687054E+03  0.42263501434E+03  0.41800000000E+01 0. -1.
         -5    1    4    4    0  501  0.94468747944E+02 -0.56851088769E+02 -0.15432781921E+03  0.18971277979E+03  0.41800000000E+01 0. -1.
</event>
<event>
11    1  0.8864208E-009  0.1930758E+03  0.7561462E-02  0.1059531E+00
         22   -1    0    0    0    0  0.00000000000E+00  0.00000000000E+00  0.31796676830E+03  0.31796676830E+03  0.00000000000E+00 0.  1.
         22   -1    0    0    0    0 -0.00000000000E+00 -0.00000000000E+00 -0.22799637768E+04  0.22799637768E+04  0.00000000000E+00 0. -1.
        -24    2    1    2    0    0  0.56302607727E+02 -0.37852046460E+02 -0.21491263389E+04  0.21517084571E+04  0.80638097876E+02 0.  0.
         25    2    1    2    0    0 -0.10638797958E+03  0.16030492331E+03  0.40367182008E+02  0.23301041330E+03  0.12509305611E+03 0.  0.
         24    2    1    2    0    0  0.50085371852E+02 -0.12245287685E+03  0.14676214836E+03  0.21321167471E+03  0.80105171609E+02 0.  0.
        -11    1    5    5    0    0  0.16917374063E+02  0.85774833309E+01  0.12617506751E+02  0.22780962273E+02  0.00000000000E+00 0.  1.
         12    1    5    5    0    0  0.33167997789E+02 -0.13103036018E+03  0.13414464161E+03  0.19043071244E+03  0.00000000000E+00 0. -1.
         11    1    3    3    0    0  0.53144804885E+02  0.15313315388E+01 -0.17048335675E+04  0.17056623957E+04  0.00000000000E+00 0. -1.
        -12    1    3    3    0    0  0.31578028427E+01 -0.39383377999E+02 -0.44429277141E+03  0.44604606142E+03  0.00000000000E+00 0.  1.
          5    1    4    4  501    0 -0.42965195402E+02  0.22567425037E+02  0.63000567826E+02  0.79635674387E+02  0.41800000000E+01 0.  1.
         -5    1    4    4    0  501 -0.63422784178E+02  0.13773749827E+03 -0.22633385818E+02  0.15337473891E+03  0.41800000000E+01 0.  1.
</event>
<event>
11    1  0.8864208E-009  0.1377332E+03  0.7561462E-02  0.1110116E+00
         22   -1    0    0    0    0  0.00000000000E+00  0.00000000000E+00  0.78674031924E+03  0.78674031924E+03  0.00000000000E+00 0. -1.
         22   -1    0    0    0    0 -0.00000000000E+00 -0.00000000000E+00 -0.12666291354E+03  0.12666291354E+03  0.00000000000E+00 0.  1.
         24    2    1    2    0    0  0.67146595020E+02 -0.85400465451E+01 -0.50934404228E+02  0.11626157591E+03  0.79629409651E+02 0.  0.
         25    2    1    2    0    0 -0.26955193580E+02 -0.86880622602E+01  0.63437924651E+02  0.14308255208E+03  0.12508469746E+03 0.  0.
        -24    2    1    2    0    0 -0.40191401440E+02  0.17228108805E+02  0.64757388528E+03  0.65405910479E+03  0.80803583925E+02 0.  0.
        -11    1    3    3    0    0  0.74077334699E+02 -0.11158196711E+02 -0.65764306281E+02  0.99684004989E+02  0.00000000000E+00 0.  1.
         12    1    3    3    0    0 -0.69307396785E+01  0.26181501664E+01  0.14829902053E+02  0.16577570922E+02  0.00000000000E+00 0. -1.
         11    1    5    5    0    0 -0.24957628519E+02 -0.95685122680E+01  0.56940943217E+03  0.57003643839E+03  0.00000000000E+00 0. -1.
        -12    1    5    5    0    0 -0.15233772921E+02  0.26796621073E+02  0.78164453105E+02  0.84022666391E+02  0.00000000000E+00 0.  1.
          5    1    4    4  501    0 -0.34363199583E+02  0.38826280890E+02 -0.12131060267E+02  0.53412962814E+02  0.41800000000E+01 0.  1.
         -5    1    4    4    0  501  0.74080060032E+01 -0.47514343150E+02  0.75568984918E+02  0.89669589268E+02  0.41800000000E+01 0.  1.
</event>
<event>
11    1  0.8864208E-009  0.1919259E+03  0.7561462E-02  0.1060385E+00
         22   -1    0    0    0    0  0.00000000000E+00  0.00000000000E+00  0.92118872093E+02  0.92118872093E+02  0.00000000000E+00 0.  1.
         22   -1    0    0    0    0 -0.00000000000E+00 -0.00000000000E+00 -0.17850584111E+04  0.17850584111E+04  0.00000000000E+00 0.  1.
        -24    2    1    2    0    0 -0.58740080015E+01 -0.32100705335E+02 -0.13720933283E+04  0.13751264716E+04  0.85251111099E+02 0.  0.
         25    2    1    2    0    0 -0.13897268850E+03  0.49178006751E+02 -0.24583242100E+03  0.31275130121E+03  0.12509161724E+03 0.  0.
         24    2    1    2    0    0  0.14484669650E+03 -0.17077301416E+02 -0.75013789688E+02  0.18929951040E+03  0.94525320875E+02 0.  0.
        -13    1    5    5    0    0  0.99052860002E+02 -0.93142874541E+01  0.18328627538E+01  0.99506705358E+02  0.00000000000E+00 0.  1.
         14    1    5    5    0    0  0.45793836494E+02 -0.77630139618E+01 -0.76846652441E+02  0.89792805046E+02  0.00000000000E+00 0. -1.
         13    1    3    3    0    0 -0.16038437413E+01  0.13075572191E+02 -0.37228135067E+02  0.39490213261E+02  0.00000000000E+00 0. -1.
        -14    1    3    3    0    0 -0.42701642602E+01 -0.45176277527E+02 -0.13348651933E+04  0.13356362583E+04  0.00000000000E+00 0.  1.
          5    1    4    4  501    0 -0.40387366998E+02 -0.38219553413E+01 -0.17621362032E+03  0.18087138840E+03  0.41800000000E+01 0. -1.
         -5    1    4    4    0  501 -0.98585321497E+02  0.52999962093E+02 -0.69618800680E+02  0.13187991282E+03  0.41800000000E+01 0. -1.
</event>
<event>
11    1  0.8864208E-009  0.1399697E+03  0.7561462E-02  0.1107592E+00
         22   -1    0    0    0    0  0.00000000000E+00  0.00000000000E+00  0.12009813261E+04  0.12009813261E+04  0.00000000000E+00 0. -1.
         22   -1    0    0    0    0 -0.00000000000E+00 -0.00000000000E+00 -0.12839166055E+04  0.12839166055E+04  0.00000000000E+00 0.  1.
         24    2    1    2    0    0  0.48829130743E+02 -0.14677835080E+02 -0.12176365408E+04  0.12214306578E+04  0.81574403862E+02 0.  0.
         25    2    1    2    0    0 -0.95772498991E+02 -0.25472320413E+02  0.40646953575E+02  0.16468330704E+03  0.12508879291E+03 0.  0.
        -24    2    1    2    0    0  0.46943368248E+02  0.40150155493E+02  0.10940543078E+04  0.10987839668E+04  0.80967045210E+02 0.  0.
        -11    1    3    3    0    0  0.71559232177E+02 -0.62194382166E+01 -0.93565590891E+03  0.93840896469E+03  0.00000000000E+00 0.  1.
         12    1    3    3    0    0 -0.22730101434E+02 -0.84583968638E+01 -0.28198063193E+03  0.28302169311E+03  0.00000000000E+00 0. -1.
         11    1    5    5    0    0  0.68529155481E+02  0.41558630318E+02  0.87687488636E+03  0.88052991502E+03  0.00000000000E+00 0. -1.
        -12    1    5    5    0    0 -0.21585787233E+02 -0.14084748245E+01  0.21717942143E+03  0.21825405175E+03  0.00000000000E+00 0.  1.
          5    1    4    4  501    0 -0.29398549238E+02 -0.30334847848E+02 -0.41169567374E+02  0.59134451625E+02  0.41800000000E+01 0. -1.
         -5    1    4    4    0  501 -0.66373949753E+02  0.48625274355E+01  0.81816520949E+02  0.10554885541E+03  0.41800000000E+01 0. -1.
</event>
<event>
11    1  0.8864208E-009  0.1613848E+03  0.7561462E-02  0.1085782E+00
         22   -1    0    0    0    0  0.00000000000E+00  0.00000000000E+00  0.59941261407E+03  0.59941261407E+03  0.00000000000E+00 0.  1.
         22   -1    0    0    0    0 -0.00000000000E+00 -0.00000000000E+00 -0.30742901829E+03  0.30742901829E+03  0.00000000000E+00 0.  1.
         24    2    1    2    0    0 -0.59182396540E+02 -0.84957856857E+02 -0.25784320162E+03  0.28933578464E+03  0.80695019367E+02 0.  0.
         25    2    1    2    0    0  0.47451126082E+02  0.67738752290E+02  0.16200600539E+03  0.22076286667E+03  0.12510055790E+03 0.  0.
        -24    2    1    2    0    0  0.11731270458E+02  0.17219104567E+02  0.38782079200E+03  0.39674298106E+03  0.81030278558E+02 0.  0.
        -11    1    3    3    0    0 -0.42292812830E+02 -0.89457306379E+02 -0.25228234123E+03  0.27099385856E+03  0.00000000000E+00 0.  1.
         12    1    3    3    0    0 -0.16889583710E+02  0.44994495225E+01 -0.55608603836E+01  0.18341926074E+02  0.00000000000E+00 0. -1.
         11    1    5    5    0    0 -0.39081572147E+01  0.18633562858E+02  0.16804094631E+02  0.25394112585E+02  0.00000000000E+00 0. -1.
        -12    1    5    5    0    0  0.15639427672E+02 -0.14144582915E+01  0.37101669737E+03  0.37134886847E+03  0.00000000000E+00 0.  1.
          5    1    4    4  501    0  0.82075570595E+02  0.16187509681E+02  0.67362357140E+02  0.10748764728E+03  0.41800000000E+01 0. -1.
         -5    1    4    4    0  501 -0.34624444513E+02  0.51551242609E+02  0.94643648255E+02  0.11327521939E+03  0.41800000000E+01 0. -1.
</event>
<event>
11    1  0.8864208E-009  0.1417549E+03  0.7561462E-02  0.1105614E+00
         22   -1    0    0    0    0  0.00000000000E+00  0.00000000000E+00  0.23247764765E+03  0.23247764765E+03  0.00000000000E+00 0. -1.
         22   -1    0    0    0    0 -0.00000000000E+00 -0.00000000000E+00 -0.65734612347E+03  0.65734612347E+03  0.00000000000E+00 0. -1.
        -24    2    1    2    0    0 -0.42834394749E+02 -0.52089976247E+02 -0.50599817210E+03  0.51672014197E+03  0.80108700829E+02 0.  0.
         25    2    1    2    0    0 -0.72786225052E+01  0.81080305830E+02 -0.90899589908E+02  0.17474911393E+03  0.12509005970E+03 0.  0.
         24    2    1    2    0    0  0.50113017255E+02 -0.28990329583E+02  0.17202928619E+03  0.19835451523E+03  0.79991778935E+02 0.  0.
        -13    1    5    5    0    0  0.32616432806E+02 -0.17815676871E+02  0.15193476447E+02  0.40150613419E+02  0.00000000000E+00 0.  1.
         14    1    5    5    0    0  0.17496584449E+02 -0.11174652712E+02  0.15683580974E+03  0.15820390181E+03  0.00000000000E+00 0. -1.
         11    1    3    3    0    0 -0.79013267241E+01 -0.41236408874E+02 -0.43337790360E+03  0.43540702763E+03  0.00000000000E+00 0. -1.
        -12    1    3    3    0    0 -0.34933068025E+02 -0.10853567372E+02 -0.72620268496E+02  0.81313114335E+02  0.00000000000E+00 0.  1.
          5    1    4    4  501    0 -0.53641228644E+02  0.75391361508E+02 -0.28929562934E+02  0.97034173424E+02  0.41800000000E+01 0.  1.
         -5    1    4    4    0  501  0.46362606139E+02  0.56889443218E+01 -0.61970026974E+02  0.77714940511E+02  0.41800000000E+01 0.  1.
</event>
<event>
11    1  0.8864208E-009  0.1380629E+03  0.7561462E-02  0.1109741E+00
         22   -1    0    0    0    0  0.00000000000E+00  0.00000000000E+00  0.32827275754E+03  0.32827275754E+03  0.00000000000E+00 0.  1.
         22   -1    0    0    0    0 -0.00000000000E+00 -0.00000000000E+00 -0.14459161087E+03  0.14459161087E+03  0.00000000000E+00 0.  1.
         24    2    1    2    0    0 -0.22701494607E+02  0.99937814628E+01 -0.55340206684E+02  0.98874804352E+02  0.78092604864E+02 0.  0.
         25    2    1    2    0    0 -0.28673597985E+02  0.25630534371E+02  0.20263203676E+02  0.13243577267E+03  0.12509810928E+03 0.  0.
        -24    2    1    2    0    0  0.51375092593E+02 -0.35624315834E+02  0.21875814968E+03  0.24155379140E+03  0.81145634936E+02 0.  0.
        -11    1    3    3    0    0 -0.21416853887E+02 -0.12343310110E+02 -0.68564837399E+02  0.72884675086E+02  0.00000000000E+00 0.  1.
         12    1    3    3    0    0 -0.12846407205E+01  0.22337091572E+02  0.13224630715E+02  0.25990129265E+02  0.00000000000E+00 0. -1.
         13    1    5    5    0    0  0.73253705119E+01 -0.41710168384E+02  0.43371125518E+02  0.60617272526E+02  0.00000000000E+00 0. -1.
        -14    1    5    5    0    0  0.44049722081E+02  0.60858525506E+01  0.17538702416E+03  0.18093651887E+03  0.00000000000E+00 0.  1.
          5    1    4    4  501    0  0.42679947027E+02  0.36121201058E+01 -0.20044521821E+02  0.47475051816E+02  0.41800000000E+01 0.  1.
         -5    1    4    4    0  501 -0.71353545012E+02  0.22018414265E+02  0.40307725497E+02  0.84960720850E+02  0.41800000000E+01 0.  1.
</event>
<event>
11    1  0.8864208E-009  0.1332032E+03  0.7561462E-02  0.1115395E+00
         22   -1    0    0    0    0  0.00000000000E+00  0.00000000000E+00  0.12562760246E+03  0.12562760246E+03  0.00000000000E+00 0.  1.
         22   -1    0    0    0    0 -0.00000000000E+00 -0.00000000000E+00 -0.70421211829E+03  0.70421211829E+03  0.00000000000E+00 0.  1.
         24    2    1    2    0    0  0.24153261223E+02  0.24440826044E+02 -0.49658727543E+03  0.50388681851E+03  0.78244934307E+02 0.  0.
         25    2    1    2    0    0  0.24038176696E+02 -0.26840886350E+02 -0.15786509953E+03  0.20461257057E+03  0.12508655909E+03 0.  0.
        -24    2    1    2    0    0 -0.48191437919E+02  0.24000603054E+01  0.75867859127E+02  0.12134033167E+03  0.81482323622E+02 0.  0.
        -13    1    3    3    0    0  0.23363251888E+02 -0.39769701668E+01 -0.43924837518E+03  0.43988725024E+03  0.00000000000E+00 0.  1.
         14    1    3    3    0    0  0.79000933491E+00  0.28417796211E+02 -0.57338900250E+02  0.63999568265E+02  0.00000000000E+00 0. -1.
         11    1    5    5    0    0 -0.23106579038E+02  0.41466690397E+02  0.46218667088E+02  0.66253796832E+02  0.00000000000E+00 0. -1.
        -12    1    5    5    0    0 -0.25084858881E+02 -0.39066630091E+02  0.29649192039E+02  0.55086534837E+02  0.00000000000E+00 0.  1.
          5    1    4    4  501    0  0.26455736316E+02  0.44308931600E+02 -0.10064225927E+03  0.11317916838E+03  0.41800000000E+01 0.  1.
         -5    1    4    4    0  501 -0.24175596195E+01 -0.71149817950E+02 -0.57222840262E+02  0.91433402192E+02  0.41800000000E+01 0.  1.
</event>
<event>
11    1  0.8864208E-009  0.1667909E+03  0.7561462E-02  0.1080859E+00
         22   -1    0    0    0    0  0.00000000000E+00  0.00000000000E+00  0.18002828612E+04  0.18002828612E+04  0.00000000000E+00 0.  1.
         22   -1    0    0    0    0 -0.00000000000E+00 -0.00000000000E+00 -0.18395587451E+03  0.18395587451E+03  0.00000000000E+00 0. -1.
         24    2    1    2    0    0  0.12165438158E+03  0.16704203511E+01 -0.63643238551E+02  0.15849411209E+03  0.79166551606E+02 0.  0.
         25    2    1    2    0    0 -0.86212728452E+02  0.46504622192E+02  0.17069726137E+02  0.15979315960E+03  0.12508862408E+03 0.  0.
        -24    2    1    2    0    0 -0.35441653123E+02 -0.48175042543E+02  0.16629004991E+04  0.16659514640E+04  0.81112668772E+02 0.  0.
        -13    1    3    3    0    0  0.85162173732E+02 -0.17403968152E+02 -0.53001003016E+01  0.87083781529E+02  0.00000000000E+00 0.  1.
         14    1    3    3    0    0  0.36492207843E+02  0.19074388503E+02 -0.58343138249E+02  0.71410330561E+02  0.00000000000E+00 0. -1.
         11    1    5    5    0    0 -0.59150153163E+02 -0.17051614125E+02  0.98126304914E+03  0.98319208183E+03  0.00000000000E+00 0. -1.
        -12    1    5    5    0    0  0.23708500039E+02 -0.31123428418E+02  0.68163744996E+03  0.68275938218E+03  0.00000000000E+00 0.  1.
          5    1    4    4  501    0 -0.46679029698E+02 -0.14197762882E+02  0.58457663632E+02  0.76257977430E+02  0.41800000000E+01 0. -1.
         -5    1    4    4    0  501 -0.39533698754E+02  0.60702385074E+02 -0.41387937495E+02  0.83535182174E+02  0.41800000000E+01 0. -1.
</event>
<event>
11    1  0.8864208E-009  0.1830009E+03  0.7561462E-02  0.1067241E+00
         22   -1    0    0    0    0  0.00000000000E+00  0.00000000000E+00  0.12175849774E+03  0.12175849774E+03  0.00000000000E+00 0. -1.
         22   -1    0    0    0    0 -0.00000000000E+00 -0.00000000000E+00 -0.37629596416E+03  0.37629596416E+03  0.00000000000E+00 0. -1.
         24    2    1    2    0    0 -0.48649769395E+01 -0.15519281339E+02 -0.86553102472E+02  0.11678934517E+03  0.76705902668E+02 0.  0.
         25    2    1    2    0    0 -0.12934503295E+03 -0.12469515824E+02 -0.91168970498E+02  0.20210652551E+03  0.12509852156E+03 0.  0.
        -24    2    1    2    0    0  0.13421000989E+03  0.27988797162E+02 -0.76815393448E+02  0.17915859122E+03  0.86031951144E+02 0.  0.
        -11    1    3    3    0    0  0.13868823701E+02 -0.42009283124E+02 -0.37593836524E+02  0.58055324338E+02  0.00000000000E+00 0.  1.
         12    1    3    3    0    0 -0.18733800640E+02  0.26490001785E+02 -0.48959265948E+02  0.58734020833E+02  0.00000000000E+00 0. -1.
         11    1    5    5    0    0  0.13149158958E+03  0.14412580182E+02 -0.90037166369E+02  0.16001391166E+03  0.00000000000E+00 0. -1.
        -12    1    5    5    0    0  0.27184203135E+01  0.13576216980E+02  0.13221772920E+02  0.19144679565E+02  0.00000000000E+00 0.  1.
          5    1    4    4  501    0 -0.85356417146E+02 -0.67254552935E+02 -0.43643606343E+02  0.11717990277E+03  0.41800000000E+01 0. -1.
         -5    1    4    4    0  501 -0.43988615804E+02  0.54785037111E+02 -0.47525364155E+02  0.84926622738E+02  0.41800000000E+01 0. -1.
</event>
<event>
11    1  0.8864208E-009  0.1928320E+03  0.7561462E-02  0.1059711E+00
         22   -1    0    0    0    0  0.00000000000E+00  0.00000000000E+00  0.51884726646E+02  0.51884726646E+02  0.00000000000E+00 0. -1.
         22   -1    0    0    0    0 -0.00000000000E+00 -0.00000000000E+00 -0.13130048525E+04  0.13130048525E+04  0.00000000000E+00 0. -1.
        -24    2    1    2    0    0  0.14262833478E+03  0.57089185952E+02 -0.57911918088E+03  0.60436084741E+03  0.79189590120E+02 0.  0.
         25    2    1    2    0    0 -0.10956660187E+03 -0.91727593577E+02 -0.61833634773E+03  0.64684373568E+03  0.12509271683E+03 0.  0.
         24    2    1    2    0    0 -0.33061732907E+02  0.34638407625E+02 -0.63664597208E+02  0.11368499601E+03  0.81106102826E+02 0.  0.
        -13    1    5    5    0    0 -0.25871974175E+02 -0.40564933916E+01 -0.69154279218E+02  0.73946795201E+02  0.00000000000E+00 0.  1.
         14    1    5    5    0    0 -0.71897587313E+01  0.38694901017E+02  0.54896820101E+01  0.39738200813E+02  0.00000000000E+00 0. -1.
         11    1    3    3    0    0  0.12459987701E+03  0.68239052170E+02 -0.40991621290E+03  0.43383522124E+03  0.00000000000E+00 0. -1.
        -12    1    3    3    0    0  0.18028457766E+02 -0.11149866218E+02 -0.16920296798E+03  0.17052562617E+03  0.00000000000E+00 0.  1.
          5    1    4    4  501    0 -0.40775737711E+02 -0.29511129631E+02 -0.46393504489E+03  0.46667629663E+03  0.41800000000E+01 0. -1.
         -5    1    4    4    0  501 -0.68790864160E+02 -0.62216463946E+02 -0.15440130284E+03  0.18016743906E+03  0.41800000000E+01 0. -1.
</event>
<event>
11    1  0.8864208E-009  0.1421370E+03  0.7561462E-02  0.1105195E+00
         22   -1    0    0    0    0  0.00000000000E+00  0.00000000000E+00  0.44251725627E+03  0.44251725627E+03  0.00000000000E+00 0.  1.
         22   -1    0    0    0    0 -0.00000000000E+00 -0.00000000000E+00 -0.12646974180E+03  0.12646974180E+03  0.00000000000E+00 0.  1.
         24    2    1    2    0    0 -0.21132835881E+02 -0.48287800076E+02 -0.55211520148E+02  0.11073922806E+03  0.80228151456E+02 0.  0.
         25    2    1    2    0    0 -0.47448228512E+02  0.10049781695E+02  0.11154479938E+03  0.17447737407E+03  0.12509108398E+03 0.  0.
        -24    2    1    2    0    0  0.68581064393E+02  0.38238018381E+02  0.25971423523E+03  0.28377039594E+03  0.83118260240E+02 0.  0.
        -11    1    3    3    0    0  0.95639530938E+01 -0.53808264478E+02 -0.57671496541E+02  0.79453131078E+02  0.00000000000E+00 0.  1.
         12    1    3    3    0    0 -0.30696788975E+02  0.55204644019E+01  0.24599763929E+01  0.31286096983E+02  0.00000000000E+00 0. -1.
         13    1    5    5    0    0  0.20860311405E+02  0.34625446533E+02  0.33357566232E+02  0.52409935741E+02  0.00000000000E+00 0. -1.
        -14    1    5    5    0    0  0.47720752988E+02  0.36125718483E+01  0.22635666900E+03  0.23136046020E+03  0.00000000000E+00 0.  1.
          5    1    4    4  501    0 -0.64303260648E+02  0.31234137833E+02  0.13748926430E+02  0.72917666406E+02  0.41800000000E+01 0.  1.
         -5    1    4    4    0  501  0.16855032136E+02 -0.21184356138E+02  0.97795872954E+02  0.10155970766E+03  0.41800000000E+01 0.  1.
</event>
<event>
11    1  0.8864208E-009  0.1612725E+03  0.7561462E-02  0.1085887E+00
         22   -1    0    0    0    0  0.00000000000E+00  0.00000000000E+00  0.25037606625E+04  0.25037606625E+04  0.00000000000E+00 0. -1.
         22   -1    0    0    0    0 -0.00000000000E+00 -0.00000000000E+00 -0.20460959627E+03  0.20460959627E+03  0.00000000000E+00 0.  1.
         24    2    1    2    0    0  0.34080245644E+02  0.88759660362E+02 -0.13245659209E+03  0.18156854664E+03  0.79891475715E+02 0.  0.
         25    2    1    2    0    0 -0.13048191020E+03 -0.56852844103E+02  0.15057496433E+03  0.24203001110E+03  0.12509169284E+03 0.  0.
        -24    2    1    2    0    0  0.96401664557E+02 -0.31906816259E+02  0.22810326940E+04  0.22847717010E+04  0.82220732717E+02 0.  0.
        -13    1    3    3    0    0  0.66829294735E+01  0.18950354633E+02 -0.96190252537E+02  0.98266689016E+02  0.00000000000E+00 0.  1.
         14    1    3    3    0    0  0.27397316170E+02  0.69809305729E+02 -0.36266339550E+02  0.83301857627E+02  0.00000000000E+00 0. -1.
         13    1    5    5    0    0  0.46121186263E+02 -0.28728908119E+02  0.18510770258E+04  0.18518743666E+04  0.00000000000E+00 0. -1.
        -14    1    5    5    0    0  0.50280478293E+02 -0.31779081397E+01  0.42995566815E+03  0.43289733445E+03  0.00000000000E+00 0.  1.
          5    1    4    4  501    0 -0.15319494144E+03 -0.61353963527E+02  0.13901848952E+03  0.21581615266E+03  0.41800000000E+01 0.  1.
         -5    1    4    4    0  501  0.22713031235E+02  0.45011194239E+01  0.11556474811E+02  0.26213858435E+02  0.41800000000E+01 0.  1.
</event>
<event>
11    1  0.8864208E-009  0.1359159E+03  0.7561462E-02  0.1112207E+00
         22   -1    0    0    0    0  0.00000000000E+00  0.00000000000E+00  0.60902410616E+03  0.60902410616E+03  0.00000000000E+00 0. -1.
         22   -1    0    0    0    0 -0.00000000000E+00 -0.00000000000E+00 -0.48090029027E+03  0.48090029027E+03  0.00000000000E+00 0.  1.
         24    2    1    2    0    0 -0.28866644032E+02  0.90874512291E+01 -0.41852789828E+03  0.42790841726E+03  0.83810184402E+02 0.  0.
         25    2    1    2    0    0  0.77885038113E+02 -0.21982003249E+02  0.51733994124E+02  0.15771645947E+03  0.12509511505E+03 0.  0.
        -24    2    1    2    0    0 -0.49018394082E+02  0.12894552020E+02  0.49491772005E+03  0.50429951970E+03  0.82494748442E+02 0.  0.
        -11    1    3    3    0    0 -0.17560498735E+02 -0.17416904596E+02 -0.37433520447E+03  0.37515138942E+03  0.00000000000E+00 0.  1.
         12    1    3    3    0    0 -0.11306145297E+02  0.26504355825E+02 -0.44192693815E+02  0.52757027833E+02  0.00000000000E+00 0. -1.
         13    1    5    5    0    0 -0.48028293512E+02  0.43256132012E+02  0.37874594286E+03  0.38422167972E+03  0.00000000000E+00 0. -1.
        -14    1    5    5    0    0 -0.99010056982E+00 -0.30361579992E+02  0.11617177719E+03  0.12007783998E+03  0.00000000000E+00 0.  1.
          5    1    4    4  501    0  0.91349809430E+02  0.21109360038E+02  0.60331291222E+02  0.11156939484E+03  0.41800000000E+01 0.  1.
         -5    1    4    4    0  501 -0.13464771317E+02 -0.43091363287E+02 -0.85972970972E+01  0.46147064629E+02  0.41800000000E+01 0.  1.
</event>
<event>
11    1  0.8864208E-009  0.1289761E+03  0.7561462E-02  0.1120533E+00
         22   -1    0    0    0    0  0.00000000000E+00  0.00000000000E+00  0.15135230727E+04  0.15135230727E+04  0.00000000000E+00 0. -1.
         22   -1    0    0    0    0 -0.00000000000E+00 -0.00000000000E+00 -0.98152679723E+02  0.98152679723E+02  0.00000000000E+00 0. -1.
        -24    2    1    2    0    0  0.34222808609E+00 -0.31823330241E+02 -0.63380669032E+02  0.10664089796E+03  0.79638749630E+02 0.  0.
         25    2    1    2    0    0 -0.17206219848E+02  0.24323040454E+02  0.34294566546E+03  0.36626089814E+03  0.12509057416E+03 0.  0.
         24    2    1    2    0    0  0.16863991762E+02  0.75002897865E+01  0.11358053966E+04  0.11387739564E+04  0.80072318719E+02 0.  0.
        -11    1    5    5    0    0  0.27355185142E+02  0.31865656572E+02  0.34843555110E+03  0.35095734711E+03  0.00000000000E+00 0.  1.
         12    1    5    5    0    0 -0.10491193380E+02 -0.24365366786E+02  0.78736984549E+03  0.78781660926E+03  0.00000000000E+00 0. -1.
         13    1    3    3    0    0  0.32494852954E+02 -0.34013541984E+02 -0.56797637438E+02  0.73748275406E+02  0.00000000000E+00 0. -1.
        -14    1    3    3    0    0 -0.32152624868E+02  0.21902117434E+01 -0.65830315942E+01  0.32892622552E+02  0.00000000000E+00 0.  1.
          5    1    4    4  501    0 -0.14718081963E+02 -0.46628137228E+02  0.79866610862E+02  0.93738748917E+02  0.41800000000E+01 0.  1.
         -5    1    4    4    0  501 -0.24881378848E+01  0.70951177682E+02  0.26307905460E+03  0.27252214922E+03  0.41800000000E+01 0.  1.
</event>
<event>
11    1  0.8864208E-009  0.1399418E+03  0.7561462E-02  0.1107623E+00
         22   -1    0    0    0    0  0.00000000000E+00  0.00000000000E+00  0.14286595186E+03  0.14286595186E+03  0.00000000000E+00 0.  1.
         22   -1    0    0    0    0 -0.00000000000E+00 -0.00000000000E+00 -0.22581477918E+04  0.22581477918E+04  0.00000000000E+00 0.  1.
        -24    2    1    2    0    0  0.38353784628E+02  0.50370645361E+02 -0.21257407471E+04  0.21282296457E+04  0.81114031730E+02 0.  0.
         25    2    1    2    0    0 -0.56927472158E+02 -0.10059194780E+02 -0.66093466309E+02  0.15283244154E+03  0.12508990531E+03 0.  0.
         24    2    1    2    0    0  0.18573687530E+02 -0.40311450582E+02  0.76552373509E+02  0.11995165641E+03  0.80982338013E+02 0.  0.
        -11    1    5    5    0    0  0.28128167053E+02 -0.57661665924E+02  0.76891515617E+02  0.10014173292E+03  0.00000000000E+00 0.  1.
         12    1    5    5    0    0 -0.95544795226E+01  0.17350215342E+02 -0.33914210764E+00  0.19809923491E+02  0.00000000000E+00 0. -1.
         11    1    3    3    0    0 -0.53912059011E+01  0.41490373473E+02 -0.46211292748E+03  0.46400309691E+03  0.00000000000E+00 0. -1.
        -12    1    3    3    0    0  0.43744990529E+02  0.88802718884E+01 -0.16636278196E+04  0.16642265488E+04  0.00000000000E+00 0.  1.
          5    1    4    4  501    0 -0.64472783439E+02 -0.54783252343E+02 -0.18011382457E+02  0.86601540631E+02  0.41800000000E+01 0.  1.
         -5    1    4    4    0  501  0.75453112813E+01  0.44724057563E+02 -0.48082083852E+02  0.66230900906E+02  0.41800000000E+01 0.  1.
</event>
<event>
11    1  0.8864208E-009  0.1444809E+03  0.7561462E-02  0.1102655E+00
         22   -1    0    0    0    0  0.00000000000E+00  0.00000000000E+00  0.15767342084E+03  0.15767342084E+03  0.00000000000E+00 0.  1.
         22   -1    0    0    0    0 -0.00000000000E+00 -0.00000000000E+00 -0.67542709333E+03  0.67542709333E+03  0.00000000000E+00 0.  1.
         24    2    1    2    0    0  0.36501035302E+02 -0.23312670425E+02 -0.43046950673E+03  0.44005458634E+03  0.80425347736E+02 0.  0.
         25    2    1    2    0    0  0.32845118638E+02 -0.88315449556E+01 -0.19771600125E+03  0.23642048604E+03  0.12508489542E+03 0.  0.
        -24    2    1    2    0    0 -0.69346153941E+02  0.32144215381E+02  0.11043183549E+03  0.15662544179E+03  0.80586593656E+02 0.  0.
        -13    1    3    3    0    0 -0.16922147707E+02 -0.19554203489E+02 -0.26210432746E+03  0.26337692464E+03  0.00000000000E+00 0.  1.
         14    1    3    3    0    0  0.53423183009E+02 -0.37584669359E+01 -0.16836517927E+03  0.17667766171E+03  0.00000000000E+00 0. -1.
         11    1    5    5    0    0 -0.24703667371E+02 -0.97215260951E+01 -0.40075522395E+01  0.26848458543E+02  0.00000000000E+00 0. -1.
        -12    1    5    5    0    0 -0.44642486569E+02  0.41865741476E+02  0.11443938773E+03  0.12977698325E+03  0.00000000000E+00 0.  1.
          5    1    4    4  501    0  0.70503241842E+02  0.25655984393E+02 -0.14248378736E+03  0.16108394925E+03  0.41800000000E+01 0. -1.
         -5    1    4    4    0  501 -0.37658123203E+02 -0.34487529349E+02 -0.55232213888E+02  0.75336536785E+02  0.41800000000E+01 0. -1.
</event>
<event>
11    1  0.8864208E-009  0.1578904E+03  0.7561462E-02  0.1089078E+00
         22   -1    0    0    0    0  0.00000000000E+00  0.00000000000E+00  0.83339793230E+03  0.83339793230E+03  0.00000000000E+00 0. -1.
         22   -1    0    0    0    0 -0.00000000000E+00 -0.00000000000E+00 -0.10200640216E+04  0.10200640216E+04  0.00000000000E+00 0. -1.
         24    2    1    2    0    0 -0.50414528981E+02  0.81861887533E+02 -0.99153034994E+03  0.99935326263E+03  0.79570819461E+02 0.  0.
         25    2    1    2    0    0  0.25619846127E+02 -0.12096055474E+03  0.37351824483E+03  0.41285768409E+03  0.12509098997E+03 0.  0.
        -24    2    1    2    0    0  0.24794682854E+02  0.39098667209E+02  0.43134601582E+03  0.44125100718E+03  0.80619996895E+02 0.  0.
        -13    1    3    3    0    0  0.12277763163E+02  0.21360401587E+02 -0.81000162324E+02  0.84664257634E+02  0.00000000000E+00 0.  1.
         14    1    3    3    0    0 -0.62692292144E+02  0.60501485947E+02 -0.91053018762E+03  0.91468900499E+03  0.00000000000E+00 0. -1.
         13    1    5    5    0    0 -0.20308092875E+02  0.12744898264E+02  0.28229200312E+03  0.28330835867E+03  0.00000000000E+00 0. -1.
        -14    1    5    5    0    0  0.45102775729E+02  0.26353768945E+02  0.14905401270E+03  0.15794264851E+03  0.00000000000E+00 0.  1.
          5    1    4    4  501    0  0.31637142676E+02 -0.99852254137E+02  0.37603460339E+03  0.39037274085E+03  0.41800000000E+01 0. -1.
         -5    1    4    4    0  501 -0.60172965487E+01 -0.21108300605E+02 -0.25163585573E+01  0.22484943241E+02  0.41800000000E+01 0. -1.
</event>
<event>
11    1  0.8864208E-009  0.1530277E+03  0.7561462E-02  0.1093825E+00
         22   -1    0    0    0    0  0.00000000000E+00  0.00000000000E+00  0.32594214088E+03  0.32594214088E+03  0.00000000000E+00 0.  1.
         22   -1    0    0    0    0 -0.00000000000E+00 -0.00000000000E+00 -0.41944477724E+04  0.41944477724E+04  0.00000000000E+00 0.  1.
         24    2    1    2    0    0  0.77020652564E+02 -0.28457144628E+02 -0.28162268358E+04  0.28185742516E+04  0.80530933403E+02 0.  0.
         25    2    1    2    0    0 -0.10320850149E+03  0.53265441465E+02 -0.13656119881E+04  0.13762386589E+04  0.12509013690E+03 0.  0.
        -24    2    1    2    0    0  0.26187848928E+02 -0.24808296837E+02  0.31333319233E+03  0.32557700274E+03  0.80755434960E+02 0.  0.
        -11    1    3    3    0    0  0.34832724754E+02  0.81178959745E+01 -0.20515107740E+04  0.20518225252E+04  0.00000000000E+00 0.  1.
         12    1    3    3    0    0  0.42187927810E+02 -0.36575040603E+02 -0.76471606180E+03  0.76675172646E+03  0.00000000000E+00 0. -1.
         11    1    5    5    0    0  0.51897463023E+02 -0.14955393585E+02  0.13974405483E+03  0.14981792725E+03  0.00000000000E+00 0. -1.
        -12    1    5    5    0    0 -0.25709614095E+02 -0.98529032524E+01  0.17358913751E+03  0.17575907550E+03  0.00000000000E+00 0.  1.
          5    1    4    4  501    0 -0.62798790751E+02 -0.11486393731E+02 -0.25158550002E+03  0.25959268399E+03  0.41800000000E+01 0.  1.
         -5    1    4    4    0  501 -0.40409710741E+02  0.64751835197E+02 -0.11140264880E+04  0.11166459749E+04  0.41800000000E+01 0.  1.
</event>
<event>
11    1  0.8864208E-009  0.2710501E+03  0.7561462E-02  0.1013247E+00
         22   -1    0    0    0    0  0.00000000000E+00  0.00000000000E+00  0.91437626973E+03  0.91437626973E+03  0.00000000000E+00 0.  1.
         22   -1    0    0    0    0 -0.00000000000E+00 -0.00000000000E+00 -0.11908437495E+04  0.11908437495E+04  0.00000000000E+00 0.  1.
        -24    2    1    2    0    0  0.25001131612E+03  0.76784060867E+02 -0.87750095993E+03  0.91915119221E+03  0.80184345559E+02 0.  0.
         25    2    1    2    0    0 -0.18682049992E+03 -0.52001793255E+02 -0.24316925480E+03  0.33523754179E+03  0.12508731851E+03 0.  0.
         24    2    1    2    0    0 -0.63190816203E+02 -0.24782267612E+02  0.84420273494E+03  0.85083128525E+03  0.81414852688E+02 0.  0.
        -11    1    5    5    0    0 -0.15326976738E+02 -0.25788904021E+02  0.65428468325E+03  0.65497208377E+03  0.00000000000E+00 0.  1.
         12    1    5    5    0    0 -0.47863839465E+02  0.10066364091E+01  0.18991805170E+03  0.19585920148E+03  0.00000000000E+00 0. -1.
         13    1    3    3    0    0  0.27169663978E+02 -0.15187233953E+02 -0.74429424619E+02  0.80675783015E+02  0.00000000000E+00 0. -1.
        -14    1    3    3    0    0  0.22284165215E+03  0.91971294821E+02 -0.80307153531E+03  0.83847540920E+03  0.00000000000E+00 0.  1.
          5    1    4    4  501    0 -0.20237221626E+03 -0.42896197285E+02 -0.19782006233E+03  0.28626010396E+03  0.41800000000E+01 0. -1.
         -5    1    4    4    0  501  0.15551716342E+02 -0.91055959698E+01 -0.45349192468E+02  0.48977437832E+02  0.41800000000E+01 0. -1.
</event>
<event>
11    1  0.8864208E-009  0.1548988E+03  0.7561462E-02  0.1091976E+00
         22   -1    0    0    0    0  0.00000000000E+00  0.00000000000E+00  0.63646929820E+03  0.63646929820E+03  0.00000000000E+00 0.  1.
         22   -1    0    0    0    0 -0.00000000000E+00 -0.00000000000E+00 -0.17886563772E+04  0.17886563772E+04  0.00000000000E+00 0.  1.
        -24    2    1    2    0    0  0.70775959010E+02  0.58130131841E+02 -0.17497641900E+04  0.17540214482E+04  0.80797100435E+02 0.  0.
         25    2    1    2    0    0 -0.72594521795E+02 -0.27471792578E+02  0.13199481199E+03  0.19772349686E+03  0.12508911558E+03 0.  0.
         24    2    1    2    0    0  0.18185627848E+01 -0.30658339263E+02  0.46558229898E+03  0.47338073041E+03  0.79869880835E+02 0.  0.
        -13    1    5    5    0    0  0.40654450992E+02 -0.17707865437E+02  0.26145855527E+03  0.26519224915E+03  0.00000000000E+00 0.  1.
         14    1    5    5    0    0 -0.38835888207E+02 -0.12950473827E+02  0.20412374371E+03  0.20818848126E+03  0.00000000000E+00 0. -1.
         13    1    3    3    0    0  0.16560400461E+02 -0.19448594252E+02 -0.25926360648E+03  0.26051892892E+03  0.00000000000E+00 0. -1.
        -14    1    3    3    0    0  0.54215558549E+02  0.77578726094E+02 -0.14905005835E+04  0.14935025192E+04  0.00000000000E+00 0.  1.
          5    1    4    4  501    0 -0.66124013596E+01 -0.12374196944E+01  0.12610221776E+03  0.12635068968E+03  0.41800000000E+01 0.  1.
         -5    1    4    4    0  501 -0.65982120435E+02 -0.26234372884E+02  0.58925942300E+01  0.71372807178E+02  0.41800000000E+01 0.  1.
</event>
<event>
11    1  0.8864208E-009  0.1468799E+03  0.7561462E-02  0.1100110E+00
         22   -1    0    0    0    0  0.00000000000E+00  0.00000000000E+00  0.17338444587E+04  0.17338444587E+04  0.00000000000E+00 0. -1.
         22   -1    0    0    0    0 -0.00000000000E+00 -0.00000000000E+00 -0.68737149113E+02  0.68737149113E+02  0.00000000000E+00 0. -1.
        -24    2    1    2    0    0 -0.31283027592E+02  0.29775377496E+01  0.17026827482E+02  0.86872392946E+02  0.79179582316E+02 0.  0.
         25    2    1    2    0    0  0.32479716428E+02 -0.79698964289E+02  0.15082563271E+03  0.21401440770E+03  0.12508772255E+03 0.  0.
         24    2    1    2    0    0 -0.11966888362E+01  0.76721426539E+02  0.14972548494E+04  0.15016948071E+04  0.86183527844E+02 0.  0.
        -13    1    5    5    0    0 -0.24689804904E+02  0.25263300425E+02  0.19249722277E+03  0.19571152646E+03  0.00000000000E+00 0.  1.
         14    1    5    5    0    0  0.23493116068E+02  0.51458126114E+02  0.13047576266E+04  0.13059832807E+04  0.00000000000E+00 0. -1.
         13    1    3    3    0    0  0.14805050391E+02 -0.25413811167E+02 -0.20375210296E+01  0.29482245624E+02  0.00000000000E+00 0. -1.
        -14    1    3    3    0    0 -0.46088077983E+02  0.28391348916E+02  0.19064348511E+02  0.57390147322E+02  0.00000000000E+00 0.  1.
          5    1    4    4  501    0 -0.19864242773E+02  0.10720431229E+02 -0.76109950160E+01  0.24185024950E+02  0.41800000000E+01 0. -1.
         -5    1    4    4    0  501  0.52343959201E+02 -0.90419395518E+02  0.15843662772E+03  0.18982938275E+03  0.41800000000E+01 0. -1.
</event>
<event>
11    1  0.8864208E-009  0.1720189E+03  0.7561462E-02  0.1076288E+00
         22   -1    0    0    0    0  0.00000000000E+00  0.00000000000E+00  0.70099755609E+03  0.70099755609E+03  0.00000000000E+00 0. -1.
         22   -1    0    0    0    0 -0.00000000000E+00 -0.00000000000E+00 -0.14090373817E+04  0.14090373817E+04  0.00000000000E+00 0.  1.
        -24    2    1    2    0    0 -0.68607883632E+01  0.11668903316E+03 -0.13064439030E+04  0.13141401136E+04  0.80654606519E+02 0.  0.
         25    2    1    2    0    0  0.93372494967E+02 -0.15189144630E+03  0.36670996381E+02  0.22086447031E+03  0.12508764126E+03 0.  0.
         24    2    1    2    0    0 -0.86511706604E+02  0.35202413145E+02  0.56173308098E+03  0.57503035393E+03  0.79952288261E+02 0.  0.
        -11    1    5    5    0    0 -0.21009592012E+02  0.60729146666E+01  0.23723864762E+02  0.32266158871E+02  0.00000000000E+00 0.  1.
         12    1    5    5    0    0 -0.65502114591E+02  0.29129498478E+02  0.53800921622E+03  0.54276419506E+03  0.00000000000E+00 0. -1.
         11    1    3    3    0    0  0.79609074151E+01  0.47205451891E+02 -0.20959086995E+03  0.21498851946E+03  0.00000000000E+00 0. -1.
        -12    1    3    3    0    0 -0.14821695778E+02  0.69483581266E+02 -0.10968530331E+04  0.10991515941E+04  0.00000000000E+00 0.  1.
          5    1    4    4  501    0 -0.12429627466E+02 -0.87301507920E+02  0.39701873771E+02  0.96797521172E+02  0.41800000000E+01 0.  1.
         -5    1    4    4    0  501  0.10580212243E+03 -0.64589938381E+02 -0.30308773899E+01  0.12406694914E+03  0.41800000000E+01 0.  1.
</event>
<event>
11    1  0.8864208E-009  0.1483662E+03  0.7561462E-02  0.1098560E+00
         22   -1    0    0    0    0  0.00000000000E+00  0.00000000000E+00  0.57155782028E+03  0.57155782028E+03  0.00000000000E+00 0. -1.
         22   -1    0    0    0    0 -0.00000000000E+00 -0.00000000000E+00 -0.87732172963E+03  0.87732172963E+03  0.00000000000E+00 0. -1.
         24    2    1    2    0    0 -0.26093159962E+02 -0.53584895240E+02 -0.51963709936E+03  0.52924589746E+03  0.80785586287E+02 0.  0.
         25    2    1    2    0    0 -0.33775104208E+02  0.10594489631E+03 -0.32679231648E+03  0.36715450768E+03  0.12507651930E+03 0.  0.
        -24    2    1    2    0    0  0.59868264170E+02 -0.52360001072E+02  0.54066550648E+03  0.55247914477E+03  0.81167953896E+02 0.  0.
        -13    1    3    3    0    0  0.20808511999E+02 -0.17861577637E+02 -0.61579427526E+02  0.67409613718E+02  0.00000000000E+00 0.  1.
         14    1    3    3    0    0 -0.46901671961E+02 -0.35723317602E+02 -0.45805767183E+03  0.46183628374E+03  0.00000000000E+00 0. -1.
         13    1    5    5    0    0  0.52260955260E+02 -0.66380385910E+02  0.31132531132E+03  0.32258489200E+03  0.00000000000E+00 0. -1.
        -14    1    5    5    0    0  0.76073089103E+01  0.14020384837E+02  0.22934019516E+03  0.22989425277E+03  0.00000000000E+00 0.  1.
          5    1    4    4  501    0  0.19576232026E+02  0.86650643549E+02 -0.10223115811E+03  0.13549998146E+03  0.41800000000E+01 0. -1.
         -5    1    4    4    0  501 -0.53351336234E+02  0.19294252763E+02 -0.22456115837E+03  0.23165452622E+03  0.41800000000E+01 0. -1.
</event>
<event>
11    1  0.8864208E-009  0.3713338E+03  0.7561462E-02  0.9738343E-01
         22   -1    0    0    0    0  0.00000000000E+00  0.00000000000E+00  0.31666213467E+03  0.31666213467E+03  0.00000000000E+00 0.  1.
         22   -1    0    0    0    0 -0.00000000000E+00 -0.00000000000E+00 -0.80330128091E+03  0.80330128091E+03  0.00000000000E+00 0.  1.
        -24    2    1    2    0    0  0.29165075275E+03 -0.86642328819E+02 -0.15604642502E+03  0.35276016556E+03  0.86730576633E+02 0.  0.
         25    2    1    2    0    0 -0.30523634430E+03  0.29328705531E+03 -0.31895513506E+03  0.54457972682E+03  0.12509267762E+03 0.  0.
         24    2    1    2    0    0  0.13585591554E+02 -0.20664472649E+03 -0.11637586168E+02  0.22262352320E+03  0.80865248330E+02 0.  0.
        -11    1    5    5    0    0  0.38580598406E+02 -0.17849885181E+03 -0.21028931103E+02  0.18382741530E+03  0.00000000000E+00 0.  1.
         12    1    5    5    0    0 -0.24995006852E+02 -0.28145874677E+02  0.93913449348E+01  0.38796107905E+02  0.00000000000E+00 0. -1.
         13    1    3    3    0    0  0.19275203522E+03 -0.66983509010E+02 -0.14705591949E+03  0.25152650162E+03  0.00000000000E+00 0. -1.
        -14    1    3    3    0    0  0.98898717525E+02 -0.19658819808E+02 -0.89905055288E+01  0.10123366394E+03  0.00000000000E+00 0.  1.
          5    1    4    4  501    0 -0.27851506375E+01  0.57910663946E+02 -0.41410659688E+02  0.71370282320E+02  0.41800000000E+01 0. -1.
         -5    1    4    4    0  501 -0.30245119367E+03  0.23537639136E+03 -0.27754447537E+03  0.47320944450E+03  0.41800000000E+01 0. -1.
</event>
<event>
11    1  0.8864208E-009  0.1445952E+03  0.7561462E-02  0.1102533E+00
         22   -1    0    0    0    0  0.00000000000E+00  0.00000000000E+00  0.14450039308E+03  0.14450039308E+03  0.00000000000E+00 0. -1.
         22   -1    0    0    0    0 -0.00000000000E+00 -0.00000000000E+00 -0.72235088057E+03  0.72235088057E+03  0.00000000000E+00 0.  1.
         24    2    1    2    0    0  0.45424204562E+02  0.58507350031E+02 -0.60520759019E+03  0.61498006217E+03  0.80235785476E+02 0.  0.
         25    2    1    2    0    0 -0.30321537293E+02 -0.47847556665E+02 -0.41643452269E+02  0.14349554999E+03  0.12509201193E+03 0.  0.
        -24    2    1    2    0    0 -0.15102667269E+02 -0.10659793365E+02  0.69000554973E+02  0.10837566149E+03  0.81501445781E+02 0.  0.
        -11    1    3    3    0    0  0.61341847962E+01  0.68134970480E+02 -0.40311632661E+03  0.40887990316E+03  0.00000000000E+00 0.  1.
         12    1    3    3    0    0  0.39290019766E+02 -0.96276204494E+01 -0.20209126358E+03  0.20610015901E+03  0.00000000000E+00 0. -1.
         13    1    5    5    0    0  0.20535677914E+01  0.13280699404E+02  0.76752044493E+02  0.77919640984E+02  0.00000000000E+00 0. -1.
        -14    1    5    5    0    0 -0.17156235060E+02 -0.23940492770E+02 -0.77514895194E+01  0.30456020509E+02  0.00000000000E+00 0.  1.
          5    1    4    4  501    0  0.18735967331E+02 -0.16034294989E+02 -0.72894614849E+02  0.77066415264E+02  0.41800000000E+01 0.  1.
         -5    1    4    4    0  501 -0.49057504624E+02 -0.31813261677E+02  0.31251162580E+02  0.66429134730E+02  0.41800000000E+01 0.  1.
</event>
<event>
11    1  0.8864208E-009  0.2213428E+03  0.7561462E-02  0.1040380E+00
         22   -1    0    0    0    0  0.00000000000E+00  0.00000000000E+00  0.16292868205E+03  0.16292868205E+03  0.00000000000E+00 0. -1.
         22   -1    0    0    0    0 -0.00000000000E+00 -0.00000000000E+00 -0.12704120669E+04  0.12704120669E+04  0.00000000000E+00 0. -1.
         24    2    1    2    0    0 -0.46116520313E+02  0.33467541390E+02 -0.55916773763E+03  0.56770255865E+03  0.79817457458E+02 0.  0.
         25    2    1    2    0    0  0.18356532714E+03 -0.14466930177E+03 -0.60712570947E+03  0.66247542546E+03  0.12508647425E+03 0.  0.
        -24    2    1    2    0    0 -0.13744880683E+03  0.11120176038E+03  0.58810062213E+02  0.20316276488E+03  0.80984440510E+02 0.  0.
        -13    1    3    3    0    0 -0.23744565032E+01 -0.46333452532E+01  0.31947275139E+00  0.52161283304E+01  0.00000000000E+00 0.  1.
         14    1    3    3    0    0 -0.43742063810E+02  0.38100886643E+02 -0.55948721038E+03  0.56248643032E+03  0.00000000000E+00 0. -1.
         13    1    5    5    0    0 -0.12271625459E+03  0.58457782658E+02  0.23344261523E+02  0.13791862108E+03  0.00000000000E+00 0. -1.
        -14    1    5    5    0    0 -0.14732552239E+02  0.52743977724E+02  0.35465800690E+02  0.65244143800E+02  0.00000000000E+00 0.  1.
          5    1    4    4  501    0  0.14988426032E+03 -0.16637284385E+03 -0.53216320171E+03  0.57737367477E+03  0.41800000000E+01 0. -1.
         -5    1    4    4    0  501  0.33681066829E+02  0.21703542082E+02 -0.74962507761E+02  0.85101750696E+02  0.41800000000E+01 0. -1.
</event>
<event>
11    1  0.8864208E-009  0.1261982E+03  0.7561462E-02  0.1124030E+00
         22   -1    0    0    0    0  0.00000000000E+00  0.00000000000E+00  0.69967908165E+03  0.69967908165E+03  0.00000000000E+00 0.  1.
         22   -1    0    0    0    0 -0.00000000000E+00 -0.00000000000E+00 -0.21129612058E+03  0.21129612058E+03  0.00000000000E+00 0. -1.
         24    2    1    2    0    0  0.72039886059E+01  0.12703947759E+02 -0.14707407485E+03  0.16768669618E+03  0.79213362762E+02 0.  0.
         25    2    1    2    0    0 -0.38299247027E+02 -0.14652275552E+02  0.33291260934E+02  0.13578290102E+03  0.12508863519E+03 0.  0.
        -24    2    1    2    0    0  0.31095258421E+02  0.19483277930E+01  0.60216577499E+03  0.60750560503E+03  0.74085953432E+02 0.  0.
        -13    1    3    3    0    0  0.24721970115E+02  0.18118979519E+01 -0.65260347723E+01  0.25632945801E+02  0.00000000000E+00 0.  1.
         14    1    3    3    0    0 -0.17517981509E+02  0.10892049807E+02 -0.14054804008E+03  0.14205375038E+03  0.00000000000E+00 0. -1.
         11    1    5    5    0    0  0.29050675854E+02  0.13068442250E+02  0.94702959018E+02  0.99916847414E+02  0.00000000000E+00 0. -1.
        -12    1    5    5    0    0  0.20445825671E+01 -0.11120114457E+02  0.50746281597E+03  0.50758875762E+03  0.00000000000E+00 0.  1.
          5    1    4    4  501    0  0.55758042050E+01 -0.42917517015E+02 -0.30607688732E+02  0.53172416428E+02  0.41800000000E+01 0.  1.
         -5    1    4    4    0  501 -0.43875051232E+02  0.28265241463E+02  0.63898949667E+02  0.82610484590E+02  0.41800000000E+01 0.  1.
</event>
<event>
11    1  0.8864208E-009  0.1343921E+03  0.7561462E-02  0.1113987E+00
         22   -1    0    0    0    0  0.00000000000E+00  0.00000000000E+00  0.18798075808E+03  0.18798075808E+03  0.00000000000E+00 0. -1.
         22   -1    0    0    0    0 -0.00000000000E+00 -0.00000000000E+00 -0.10160067884E+04  0.10160067884E+04  0.00000000000E+00 0. -1.
        -24    2    1    2    0    0 -0.46290867887E+02  0.17941236621E+02 -0.91832531066E+03  0.92320117480E+03  0.80711216961E+02 0.  0.
         25    2    1    2    0    0  0.37023321434E+02 -0.93166225719E+01 -0.30639680829E+02  0.13433142604E+03  0.12509442911E+03 0.  0.
         24    2    1    2    0    0  0.92675464534E+01 -0.86246140494E+01  0.12093896121E+03  0.14645494559E+03  0.81624428724E+02 0.  0.
        -11    1    5    5    0    0 -0.30027188619E+02 -0.11458621204E+02  0.19399121072E+02  0.37540084638E+02  0.00000000000E+00 0.  1.
         12    1    5    5    0    0  0.39294735073E+02  0.28340071547E+01  0.10153984014E+03  0.10891486095E+03  0.00000000000E+00 0. -1.
         13    1    3    3    0    0 -0.10551145114E+02 -0.28875291023E+02 -0.47295567215E+03  0.47395377086E+03  0.00000000000E+00 0. -1.
        -14    1    3    3    0    0 -0.35739722773E+02  0.46816527644E+02 -0.44536963851E+03  0.44924740395E+03  0.00000000000E+00 0.  1.
          5    1    4    4  501    0  0.50229491997E+02 -0.15155534605E+02  0.37453829206E+02  0.64598404142E+02  0.41800000000E+01 0. -1.
         -5    1    4    4    0  501 -0.13206170564E+02  0.58389120326E+01 -0.68093510035E+02  0.69733021902E+02  0.41800000000E+01 0. -1.
</event>
<event>
11    1  0.8864208E-009  0.2834299E+03  0.7561462E-02  0.1007459E+00
         22   -1    0    0    0    0  0.00000000000E+00  0.00000000000E+00  0.40301931884E+04  0.40301931884E+04  0.00000000000E+00 0.  1.
         22   -1    0    0    0    0 -0.00000000000E+00 -0.00000000000E+00 -0.17872496735E+03  0.17872496735E+03  0.00000000000E+00 0.  1.
        -24    2    1    2    0    0 -0.11886987057E+03  0.21415995860E+03  0.24262567851E+02  0.25910519421E+03  0.80946250519E+02 0.  0.
         25    2    1    2    0    0  0.81054321588E+02 -0.27444562235E+03  0.34603248956E+03  0.46612688977E+03  0.12508233633E+03 0.  0.
         24    2    1    2    0    0  0.37815548978E+02  0.60285663749E+02  0.34811731637E+04  0.34836860718E+04  0.11152432248E+03 0.  0.
        -13    1    5    5    0    0  0.55990191055E+02  0.26325610454E+02  0.30903869303E+04  0.30910061983E+04  0.00000000000E+00 0.  1.
         14    1    5    5    0    0 -0.18174642077E+02  0.33960053295E+02  0.39078623341E+03  0.39267987350E+03  0.00000000000E+00 0. -1.
         13    1    3    3    0    0  0.47763965324E+01  0.42772836777E+02  0.20660382555E+02  0.47740768083E+02  0.00000000000E+00 0. -1.
        -14    1    3    3    0    0 -0.12364626710E+03  0.17138712182E+03  0.36021852957E+01  0.21136442613E+03  0.00000000000E+00 0.  1.
          5    1    4    4  501    0  0.56290025748E+02 -0.89368686906E+02  0.52027041606E+02  0.11781177639E+03  0.41800000000E+01 0. -1.
         -5    1    4    4    0  501  0.24764295840E+02 -0.18507693544E+03  0.29400544796E+03  0.34831511338E+03  0.41800000000E+01 0. -1.
</event>
<event>
11    1  0.8864208E-009  0.1929281E+03  0.7561462E-02  0.1059640E+00
         22   -1    0    0    0    0  0.00000000000E+00  0.00000000000E+00  0.43011957140E+03  0.43011957140E+03  0.00000000000E+00 0. -1.
         22   -1    0    0    0    0 -0.00000000000E+00 -0.00000000000E+00 -0.44740857954E+03  0.44740857954E+03  0.00000000000E+00 0. -1.
        -24    2    1    2    0    0  0.55182789148E+01  0.13849541264E+03 -0.31563307993E+03  0.35297441888E+03  0.75863486041E+02 0.  0.
         25    2    1    2    0    0  0.21074141950E+02 -0.25270256700E+03  0.15261007462E+03  0.32130970911E+03  0.12508951780E+03 0.  0.
         24    2    1    2    0    0 -0.26592420865E+02  0.11420715436E+03  0.14573399717E+03  0.20324402296E+03  0.79494049986E+02 0.  0.
        -11    1    5    5    0    0 -0.51791433385E+02  0.61465449983E+02  0.10391627572E+03  0.13137330959E+03  0.00000000000E+00 0.  1.
         12    1    5    5    0    0  0.25199012520E+02  0.52741704378E+02  0.41817721448E+02  0.71870713366E+02  0.00000000000E+00 0. -1.
         11    1    3    3    0    0  0.16849542532E+02  0.10931917876E+03 -0.16183219785E+03  0.19602104527E+03  0.00000000000E+00 0. -1.
        -12    1    3    3    0    0 -0.11331263617E+02  0.29176233877E+02 -0.15380088208E+03  0.15695337361E+03  0.00000000000E+00 0.  1.
          5    1    4    4  501    0 -0.23408505472E+02 -0.11905624222E+03  0.13123608837E+03  0.17878123568E+03  0.41800000000E+01 0. -1.
         -5    1    4    4    0  501  0.44482647422E+02 -0.13364632479E+03  0.21373986250E+02  0.14252847343E+03  0.41800000000E+01 0. -1.
</event>
<event>
11    1  0.8864208E-009  0.1564872E+03  0.7561462E-02  0.1090429E+00
         22   -1    0    0    0    0  0.00000000000E+00  0.00000000000E+00  0.18980907798E+04  0.18980907798E+04  0.00000000000E+00 0.  1.
         22   -1    0    0    0    0 -0.00000000000E+00 -0.00000000000E+00 -0.14874800962E+03  0.14874800962E+03  0.00000000000E+00 0.  1.
        -24    2    1    2    0    0  0.96184286126E+02 -0.71631233954E+01 -0.10257163026E+03  0.16190024372E+03  0.79925104611E+02 0.  0.
         25    2    1    2    0    0 -0.67899996218E+02 -0.79794636455E+01  0.31605250123E+03  0.34670837797E+03  0.12507371623E+03 0.  0.
         24    2    1    2    0    0 -0.28284289908E+02  0.15142587041E+02  0.15358618992E+04  0.15382301678E+04  0.79063117174E+02 0.  0.
        -11    1    5    5    0    0 -0.19936676954E+02  0.72967897864E+00  0.14748712003E+04  0.14750061223E+04  0.00000000000E+00 0.  1.
         12    1    5    5    0    0 -0.83476129549E+01  0.14412908062E+02  0.60990698943E+02  0.63224045413E+02  0.00000000000E+00 0. -1.
         11    1    3    3    0    0 -0.13233876570E+02 -0.40580464049E+01 -0.21959143945E+02  0.25957797142E+02  0.00000000000E+00 0. -1.
        -12    1    3    3    0    0  0.10941816270E+03 -0.31050769905E+01 -0.80612486317E+02  0.13594244658E+03  0.00000000000E+00 0.  1.
          5    1    4    4  501    0 -0.82254781508E+02 -0.45922135341E+02  0.26554718728E+03  0.28179331551E+03  0.41800000000E+01 0. -1.
         -5    1    4    4    0  501  0.14354785290E+02  0.37942671696E+02  0.50505313953E+02  0.64915062456E+02  0.41800000000E+01 0. -1.
</event>
<event>
11    1  0.8864208E-009  0.1456157E+03  0.7561462E-02  0.1101445E+00
         22   -1    0    0    0    0  0.00000000000E+00  0.00000000000E+00  0.79324426888E+02  0.79324426888E+02  0.00000000000E+00 0.  1.
         22   -1    0    0    0    0 -0.00000000000E+00 -0.00000000000E+00 -0.20621425309E+04  0.20621425309E+04  0.00000000000E+00 0. -1.
        -24    2    1    2    0    0 -0.30451912450E+02  0.42417961418E+02 -0.17260305188E+04  0.17287420417E+04  0.81492897305E+02 0.  0.
         25    2    1    2    0    0  0.89143701902E+02  0.33369731306E+01 -0.26193247522E+03  0.30366763987E+03  0.12509068291E+03 0.  0.
         24    2    1    2    0    0 -0.58691789452E+02 -0.45754934549E+02  0.51448900760E+01  0.10905727620E+03  0.79553626026E+02 0.  0.
        -11    1    5    5    0    0 -0.78570884053E+02 -0.39717687402E+02  0.21367498485E+01  0.88064999934E+02  0.00000000000E+00 0.  1.
         12    1    5    5    0    0  0.19879094601E+02 -0.60372471473E+01  0.30081402275E+01  0.20992276268E+02  0.00000000000E+00 0. -1.
         13    1    3    3    0    0 -0.16230317748E+02  0.36130797355E+02 -0.16732496374E+04  0.16737183774E+04  0.00000000000E+00 0. -1.
        -14    1    3    3    0    0 -0.14221594702E+02  0.62871640636E+01 -0.52780881409E+02  0.55023664274E+02  0.00000000000E+00 0.  1.
          5    1    4    4  501    0  0.40330122094E+02 -0.54905065995E+02 -0.72776447151E+02  0.99774589350E+02  0.41800000000E+01 0.  1.
         -5    1    4    4    0  501  0.48813579808E+02  0.58242039126E+02 -0.18915602807E+03  0.20389305052E+03  0.41800000000E+01 0.  1.
</event>
<event>
11    1  0.8864208E-009  0.1313108E+03  0.7561462E-02  0.1117669E+00
         22   -1    0    0    0    0  0.00000000000E+00  0.00000000000E+00  0.20920609947E+04  0.20920609947E+04  0.00000000000E+00 0. -1.
         22   -1    0    0    0    0 -0.00000000000E+00 -0.00000000000E+00 -0.62400605948E+03  0.62400605948E+03  0.00000000000E+00 0. -1.
        -24    2    1    2    0    0  0.64924443085E+00  0.46899227082E+01 -0.58608577743E+03  0.59180951675E+03  0.81972853527E+02 0.  0.
         25    2    1    2    0    0 -0.25026870165E+02  0.27026975908E+02  0.91133782627E+02  0.15909936856E+03  0.12510172294E+03 0.  0.
         24    2    1    2    0    0  0.24377625734E+02 -0.31716898617E+02  0.19630069300E+04  0.19651581689E+04  0.82765881350E+02 0.  0.
        -13    1    5    5    0    0  0.66472713508E+01 -0.13553659931E+02  0.56490078617E+02  0.58472360104E+02  0.00000000000E+00 0.  1.
         14    1    5    5    0    0  0.17730354383E+02 -0.18163238685E+02  0.19065168514E+04  0.19066858088E+04  0.00000000000E+00 0. -1.
         13    1    3    3    0    0  0.23570122762E+02 -0.58882678395E+01 -0.52696535089E+03  0.52752507374E+03  0.00000000000E+00 0. -1.
        -14    1    3    3    0    0 -0.22920878331E+02  0.10578190548E+02 -0.59120426537E+02  0.64284443006E+02  0.00000000000E+00 0.  1.
          5    1    4    4  501    0 -0.70316665401E+02  0.39302507933E+02  0.72438838753E+02  0.10841576603E+03  0.41800000000E+01 0. -1.
         -5    1    4    4    0  501  0.45289795237E+02 -0.12275532024E+02  0.18694943874E+02  0.50683602531E+02  0.41800000000E+01 0. -1.
</event>
<event>
11    1  0.8864208E-009  0.1593204E+03  0.7561462E-02  0.1087718E+00
         22   -1    0    0    0    0  0.00000000000E+00  0.00000000000E+00  0.59199024083E+03  0.59199024083E+03  0.00000000000E+00 0. -1.
         22   -1    0    0    0    0 -0.00000000000E+00 -0.00000000000E+00 -0.40734106854E+03  0.40734106854E+03  0.00000000000E+00 0. -1.
         24    2    1    2    0    0  0.37782153154E+02 -0.83517350596E+01 -0.30973949369E+03  0.32253731842E+03  0.81206682276E+02 0.  0.
         25    2    1    2    0    0 -0.26743504874E+02 -0.90746446098E+02 -0.92609318749E+01  0.15711092502E+03  0.12509174780E+03 0.  0.
        -24    2    1    2    0    0 -0.11038648279E+02  0.99098181157E+02  0.50364959787E+03  0.51968306593E+03  0.80406904639E+02 0.  0.
        -11    1    3    3    0    0  0.50897756167E+02 -0.22574910376E+02 -0.12565189755E+03  0.13743583055E+03  0.00000000000E+00 0.  1.
         12    1    3    3    0    0 -0.13115603013E+02  0.14223175316E+02 -0.18408759614E+03  0.18510148787E+03  0.00000000000E+00 0. -1.
         13    1    5    5    0    0 -0.44611079521E+02  0.63191895693E+02  0.26684241144E+03  0.27782771036E+03  0.00000000000E+00 0. -1.
        -14    1    5    5    0    0  0.33572431242E+02  0.35906285464E+02  0.23680718643E+03  0.24185535557E+03  0.00000000000E+00 0.  1.
          5    1    4    4  501    0 -0.65019824787E+02 -0.26087014389E+02 -0.33878066749E+02  0.77931416910E+02  0.41800000000E+01 0. -1.
         -5    1    4    4    0  501  0.38276319912E+02 -0.64659431709E+02  0.24617134874E+02  0.79179508109E+02  0.41800000000E+01 0. -1.
</event>
<event>
11    1  0.8864208E-009  0.1350286E+03  0.7561462E-02  0.1113240E+00
         22   -1    0    0    0    0  0.00000000000E+00  0.00000000000E+00  0.10378434489E+04  0.10378434489E+04  0.00000000000E+00 0. -1.
         22   -1    0    0    0    0 -0.00000000000E+00 -0.00000000000E+00 -0.14021053238E+03  0.14021053238E+03  0.00000000000E+00 0.  1.
         24    2    1    2    0    0 -0.90924889347E+00 -0.32116081669E+02 -0.96191221397E+02  0.12900615513E+03  0.79734356161E+02 0.  0.
         25    2    1    2    0    0  0.27318813481E+02  0.72378583186E+02  0.19243231061E+03  0.24219584775E+03  0.12507460825E+03 0.  0.
        -24    2    1    2    0    0 -0.26409564588E+02 -0.40262501517E+02  0.80139182733E+03  0.80685197842E+03  0.80391044580E+02 0.  0.
        -11    1    3    3    0    0  0.37017866334E+02 -0.47651478545E+01 -0.56267664622E+02  0.67520953370E+02  0.00000000000E+00 0.  1.
         12    1    3    3    0    0 -0.37927115227E+02 -0.27350933814E+02 -0.39923556775E+02  0.61485201760E+02  0.00000000000E+00 0. -1.
         13    1    5    5    0    0  0.18345090934E+02 -0.36092743342E+02  0.54884777396E+03  0.55033908408E+03  0.00000000000E+00 0. -1.
        -14    1    5    5    0    0 -0.44754655521E+02 -0.41697581752E+01  0.25254405336E+03  0.25651289434E+03  0.00000000000E+00 0.  1.
          5    1    4    4  501    0  0.70247448902E+02  0.10573722826E+02  0.10382087792E+03  0.12586800540E+03  0.41800000000E+01 0. -1.
         -5    1    4    4    0  501 -0.42928635421E+02  0.61804860360E+02  0.88611432693E+02  0.11632784236E+03  0.41800000000E+01 0. -1.
</event>
<event>
11    1  0.8864208E-009  0.1501261E+03  0.7561462E-02  0.1096750E+00
         22   -1    0    0    0    0  0.00000000000E+00  0.00000000000E+00  0.13098357469E+04  0.13098357469E+04  0.00000000000E+00 0.  1.
         22   -1    0    0    0    0 -0.00000000000E+00 -0.00000000000E+00 -0.43331978879E+03  0.43331978879E+03  0.00000000000E+00 0.  1.
        -24    2    1    2    0    0 -0.12789888330E+02  0.35419957932E+01 -0.39439009395E+03  0.40273644201E+03  0.80479615686E+02 0.  0.
         25    2    1    2    0    0  0.93327774022E+02 -0.18326170660E+02  0.16219970697E+03  0.22583938330E+03  0.12509500459E+03 0.  0.
         24    2    1    2    0    0 -0.80537885691E+02  0.14784174867E+02  0.11087063451E+04  0.11145797104E+04  0.79707266108E+02 0.  0.
        -11    1    5    5    0    0 -0.44839194538E+02 -0.13217661116E+02  0.88948654502E+03  0.89071408078E+03  0.00000000000E+00 0.  1.
         12    1    5    5    0    0 -0.35698691154E+02  0.28001835983E+02  0.21921980006E+03  0.22386562958E+03  0.00000000000E+00 0. -1.
         11    1    3    3    0    0 -0.88817584067E+00  0.38231826697E+02 -0.12105366699E+03  0.12695058772E+03  0.00000000000E+00 0. -1.
        -12    1    3    3    0    0 -0.11901712490E+02 -0.34689830904E+02 -0.27333642696E+03  0.27578585430E+03  0.00000000000E+00 0.  1.
          5    1    4    4  501    0  0.63034518726E+01  0.29823362551E+02  0.10841032299E+03  0.11269177872E+03  0.41800000000E+01 0. -1.
         -5    1    4    4    0  501  0.87024322149E+02 -0.48149533211E+02  0.53789383981E+02  0.11314760458E+03  0.41800000000E+01 0. -1.
</event>
<event>
11    1  0.8864208E-009  0.1499835E+03  0.7561462E-02  0.1096896E+00
         22   -1    0    0    0    0  0.00000000000E+00  0.00000000000E+00  0.85450989482E+03  0.85450989482E+03  0.00000000000E+00 0.  1.
         22   -1    0    0    0    0 -0.00000000000E+00 -0.00000000000E+00 -0.97895469533E+03  0.97895469533E+03  0.00000000000E+00 0. -1.
         24    2    1    2    0    0 -0.50849019207E+02 -0.47647979421E+02 -0.92836570334E+03  0.93447448952E+03  0.80769670906E+02 0.  0.
         25    2    1    2    0    0  0.12801064871E+03  0.34386764699E+02  0.15173368336E+03  0.23714730577E+03  0.12508620306E+03 0.  0.
        -24    2    1    2    0    0 -0.77161629506E+02  0.13261214722E+02  0.65218721947E+03  0.66184279487E+03  0.80981102721E+02 0.  0.
        -13    1    3    3    0    0  0.18109915602E+02  0.25106785252E+01 -0.93907227496E+02  0.95670475726E+02  0.00000000000E+00 0.  1.
         14    1    3    3    0    0 -0.68958934809E+02 -0.50158657946E+02 -0.83445847584E+03  0.83880401380E+03  0.00000000000E+00 0. -1.
         13    1    5    5    0    0  0.10386488239E+02  0.18570696390E+02  0.72505438454E+02  0.75563142522E+02  0.00000000000E+00 0. -1.
        -14    1    5    5    0    0 -0.87548117745E+02 -0.53094816680E+01  0.57968178101E+03  0.58627965234E+03  0.00000000000E+00 0.  1.
          5    1    4    4  501    0  0.26427594262E+02  0.68736380298E+02  0.48766903930E+02  0.88423927948E+02  0.41800000000E+01 0. -1.
         -5    1    4    4    0  501  0.10158305445E+03 -0.34349615599E+02  0.10296677943E+03  0.14872337782E+03  0.41800000000E+01 0. -1.
</event>
<event>
11    1  0.8864208E-009  0.2723850E+03  0.7561462E-02  0.1012607E+00
         22   -1    0    0    0    0  0.00000000000E+00  0.00000000000E+00  0.44951795238E+04  0.44951795238E+04  0.00000000000E+00 0. -1.
         22   -1    0    0    0    0 -0.00000000000E+00 -0.00000000000E+00 -0.69050530498E+03  0.69050530498E+03  0.00000000000E+00 0. -1.
        -24    2    1    2    0    0 -0.84683775220E+02  0.54139570840E+02 -0.64600233847E+03  0.65854553026E+03  0.79124959371E+02 0.  0.
         25    2    1    2    0    0 -0.15151338111E+02 -0.27260680757E+03  0.62761190893E+03  0.69576337671E+03  0.12508370618E+03 0.  0.
         24    2    1    2    0    0  0.99835113330E+02  0.21846723673E+03  0.38230646483E+04  0.38313759218E+04  0.76962102939E+02 0.  0.
        -13    1    5    5    0    0 -0.11449502942E+02  0.14409163574E+02  0.19212344815E+03  0.19300293895E+03  0.00000000000E+00 0.  1.
         14    1    5    5    0    0  0.11128461627E+03  0.20405807316E+03  0.36309412002E+04  0.36383729828E+04  0.00000000000E+00 0. -1.
         11    1    3    3    0    0 -0.58732443781E+02  0.51100206983E+02 -0.60457388613E+03  0.60956567726E+03  0.00000000000E+00 0. -1.
        -12    1    3    3    0    0 -0.25951331439E+02  0.30393638571E+01 -0.41428452349E+02  0.48979853002E+02  0.00000000000E+00 0.  1.
          5    1    4    4  501    0 -0.31133197551E+02 -0.60801315619E+02  0.28108665625E+03  0.28929786845E+03  0.41800000000E+01 0. -1.
         -5    1    4    4    0  501  0.15981859440E+02 -0.21180549195E+03  0.34652525269E+03  0.40646550826E+03  0.41800000000E+01 0. -1.
</event>
<event>
11    1  0.8864208E-009  0.1446078E+03  0.7561462E-02  0.1102519E+00
         22   -1    0    0    0    0  0.00000000000E+00  0.00000000000E+00  0.33882875465E+03  0.33882875465E+03  0.00000000000E+00 0. -1.
         22   -1    0    0    0    0 -0.00000000000E+00 -0.00000000000E+00 -0.41849538593E+03  0.41849538593E+03  0.00000000000E+00 0. -1.
         24    2    1    2    0    0 -0.37680339887E+02  0.27534549038E+02 -0.21844921303E+03  0.23722637923E+03  0.79864491023E+02 0.  0.
         25    2    1    2    0    0 -0.31415181071E+02  0.18702647527E+01 -0.15688543601E+03  0.20310346323E+03  0.12509022844E+03 0.  0.
        -24    2    1    2    0    0  0.69095520958E+02 -0.29404813791E+02  0.29566801776E+03  0.31699429811E+03  0.86179894519E+02 0.  0.
        -13    1    3    3    0    0  0.18505648037E+02 -0.13365342784E+01 -0.14007116121E+02  0.23247465134E+02  0.00000000000E+00 0.  1.
         14    1    3    3    0    0 -0.56185987924E+02  0.28871083317E+02 -0.20444209691E+03  0.21397891410E+03  0.00000000000E+00 0. -1.
         11    1    5    5    0    0  0.54309129777E+02  0.11550112148E+02  0.23989762459E+03  0.24623922708E+03  0.00000000000E+00 0. -1.
        -12    1    5    5    0    0  0.14786391181E+02 -0.40954925939E+02  0.55770393168E+02  0.70755071034E+02  0.00000000000E+00 0.  1.
          5    1    4    4  501    0  0.33227737970E+02 -0.22283861152E+02 -0.11601662436E+03  0.12279243692E+03  0.41800000000E+01 0.  1.
         -5    1    4    4    0  501 -0.64642919041E+02  0.24154125905E+02 -0.40868811656E+02  0.80311026307E+02  0.41800000000E+01 0.  1.
</event>
<event>
11    1  0.8864208E-009  0.1729177E+03  0.7561462E-02  0.1075520E+00
         22   -1    0    0    0    0  0.00000000000E+00  0.00000000000E+00  0.24256525578E+04  0.24256525578E+04  0.00000000000E+00 0.  1.
         22   -1    0    0    0    0 -0.00000000000E+00 -0.00000000000E+00 -0.24590763977E+03  0.24590763977E+03  0.00000000000E+00 0.  1.
         24    2    1    2    0    0  0.15864857291E+02  0.11594504767E+03 -0.20402505548E+03  0.24728697829E+03  0.76352331936E+02 0.  0.
         25    2    1    2    0    0 -0.24122694453E+02 -0.22130321248E+03  0.92727133827E+03  0.96178805983E+03  0.12508845275E+03 0.  0.
        -24    2    1    2    0    0  0.82578371619E+01  0.10535816481E+03  0.14564986353E+04  0.14624851595E+04  0.79410530588E+02 0.  0.
        -13    1    3    3    0    0  0.39327481606E+02  0.10661278199E+03 -0.15563304909E+03  0.19270335249E+03  0.00000000000E+00 0.  1.
         14    1    3    3    0    0 -0.23462624316E+02  0.93322656773E+01 -0.48392006391E+02  0.54583625796E+02  0.00000000000E+00 0. -1.
         11    1    5    5    0    0  0.14503244502E+02  0.99996203228E+01  0.55446892510E+02  0.58178126446E+02  0.00000000000E+00 0. -1.
        -12    1    5    5    0    0 -0.62454073400E+01  0.95358544489E+02  0.14010517428E+04  0.14043070330E+04  0.00000000000E+00 0.  1.
          5    1    4    4  501    0 -0.16119619246E+02 -0.17941797377E+03  0.87884706914E+03  0.89712891758E+03  0.41800000000E+01 0. -1.
         -5    1    4    4    0  501 -0.80030752067E+01 -0.41885238714E+02  0.48424269135E+02  0.64659142247E+02  0.41800000000E+01 0. -1.
</event>
<event>
11    1  0.8864208E-009  0.3164201E+03  0.7561462E-02  0.9934718E-01
         22   -1    0    0    0    0  0.00000000000E+00  0.00000000000E+00  0.20928488367E+04  0.20928488367E+04  0.00000000000E+00 0.  1.
         22   -1    0    0    0    0 -0.00000000000E+00 -0.00000000000E+00 -0.44667325903E+03  0.44667325903E+03  0.00000000000E+00 0. -1.
        -24    2    1    2    0    0 -0.28270164921E+03 -0.54363646851E+02 -0.34062920680E+03  0.45328953657E+03  0.81040229967E+02 0.  0.
         25    2    1    2    0    0  0.32239623549E+03  0.23570275572E+02  0.57655833082E+03  0.67272849388E+03  0.12509687080E+03 0.  0.
         24    2    1    2    0    0 -0.39694586279E+02  0.30793371278E+02  0.14102464536E+04  0.14135040652E+04  0.81699391881E+02 0.  0.
        -11    1    5    5    0    0 -0.63475817833E+02  0.16260734158E+02  0.11225585043E+04  0.11244692910E+04  0.00000000000E+00 0.  1.
         12    1    5    5    0    0  0.23781231554E+02  0.14532637120E+02  0.28768794932E+03  0.28903477420E+03  0.00000000000E+00 0. -1.
         11    1    3    3    0    0 -0.13496778657E+03  0.12806772142E+02 -0.17544210177E+03  0.22172110386E+03  0.00000000000E+00 0. -1.
        -12    1    3    3    0    0 -0.14773386264E+03 -0.67170418993E+02 -0.16518710503E+03  0.23156843271E+03  0.00000000000E+00 0.  1.
          5    1    4    4  501    0  0.49946068450E+02  0.28355650763E+02  0.37563403754E+02  0.68754159040E+02  0.41800000000E+01 0. -1.
         -5    1    4    4    0  501  0.27245016704E+03 -0.47853751903E+01  0.53899492707E+03  0.60397433483E+03  0.41800000000E+01 0. -1.
</event>
<event>
11    1  0.8864208E-009  0.1422419E+03  0.7561462E-02  0.1105080E+00
         22   -1    0    0    0    0  0.00000000000E+00  0.00000000000E+00  0.73533102435E+02  0.73533102435E+02  0.00000000000E+00 0. -1.
         22   -1    0    0    0    0 -0.00000000000E+00 -0.00000000000E+00 -0.13105139158E+04  0.13105139158E+04  0.00000000000E+00 0.  1.
         24    2    1    2    0    0  0.44581762188E+02 -0.29964015678E+02 -0.79384827435E+03  0.79958897854E+03  0.79133280996E+02 0.  0.
         25    2    1    2    0    0  0.24495384783E+02  0.46882099786E+02 -0.45423410062E+03  0.47410075085E+03  0.12507976908E+03 0.  0.
        -24    2    1    2    0    0 -0.69077146971E+02 -0.16918084108E+02  0.11101561640E+02  0.11035728881E+03  0.83651734704E+02 0.  0.
        -13    1    3    3    0    0  0.50677572780E+02 -0.48791867863E+02 -0.48120372826E+03  0.48631871323E+03  0.00000000000E+00 0.  1.
         14    1    3    3    0    0 -0.60958105916E+01  0.18827852184E+02 -0.31264454609E+03  0.31327026531E+03  0.00000000000E+00 0. -1.
         11    1    5    5    0    0 -0.53454502003E+02 -0.72990950022E+01  0.46020392253E+02  0.70912178611E+02  0.00000000000E+00 0. -1.
        -12    1    5    5    0    0 -0.15622644968E+02 -0.96189891055E+01 -0.34918830613E+02  0.39445110199E+02  0.00000000000E+00 0.  1.
          5    1    4    4  501    0  0.36432682898E+02  0.40778734073E+02 -0.45658053408E+03  0.45986248166E+03  0.41800000000E+01 0. -1.
         -5    1    4    4    0  501 -0.11937298115E+02  0.61033657130E+01  0.23464334675E+01  0.14238269183E+02  0.41800000000E+01 0. -1.
</event>
<event>
11    1  0.8864208E-009  0.1314023E+03  0.7561462E-02  0.1117558E+00
         22   -1    0    0    0    0  0.00000000000E+00  0.00000000000E+00  0.34577586038E+04  0.34577586038E+04  0.00000000000E+00 0.  1.
         22   -1    0    0    0    0 -0.00000000000E+00 -0.00000000000E+00 -0.12915864503E+03  0.12915864503E+03  0.00000000000E+00 0. -1.
         24    2    1    2    0    0  0.82669029966E+01  0.40213487801E+02 -0.86451938537E+02  0.12332852767E+03  0.77785099954E+02 0.  0.
         25    2    1    2    0    0  0.52081158863E+01 -0.34256092690E+02  0.15353989232E+03  0.20104827400E+03  0.12508119598E+03 0.  0.
        -24    2    1    2    0    0 -0.13475018883E+02 -0.59573951111E+01  0.32615120050E+04  0.32625404472E+04  0.80576323458E+02 0.  0.
        -13    1    3    3    0    0  0.39664964407E+01  0.33423676131E+02  0.27452489513E+01  0.33769980929E+02  0.00000000000E+00 0.  1.
         14    1    3    3    0    0  0.43004065559E+01  0.67898116700E+01 -0.89197187488E+02  0.89558546744E+02  0.00000000000E+00 0. -1.
         13    1    5    5    0    0  0.26003580019E+00 -0.39252256265E+01  0.72472179926E+01  0.82460404722E+01  0.00000000000E+00 0. -1.
        -14    1    5    5    0    0 -0.13735054683E+02 -0.20321694846E+01  0.32542647870E+04  0.32542944067E+04  0.00000000000E+00 0.  1.
          5    1    4    4  501    0  0.10591242644E+01  0.33061597708E+02  0.49982387108E-01  0.33341653910E+02  0.41800000000E+01 0. -1.
         -5    1    4    4    0  501  0.41489916219E+01 -0.67317690398E+02  0.15348990993E+03  0.16770662009E+03  0.41800000000E+01 0. -1.
</event>
<event>
11    1  0.8864208E-009  0.1363206E+03  0.7561462E-02  0.1111738E+00
         22   -1    0    0    0    0  0.00000000000E+00  0.00000000000E+00  0.85827150717E+03  0.85827150717E+03  0.00000000000E+00 0. -1.
         22   -1    0    0    0    0 -0.00000000000E+00 -0.00000000000E+00 -0.12894697580E+03  0.12894697580E+03  0.00000000000E+00 0. -1.
        -24    2    1    2    0    0  0.20693701658E+02 -0.45873959205E+02 -0.32876959043E+02  0.10059905935E+03  0.80663665211E+02 0.  0.
         25    2    1    2    0    0 -0.56508451655E+02  0.41368591914E+02  0.27516164043E+02  0.14597789904E+03  0.12509133550E+03 0.  0.
         24    2    1    2    0    0  0.35814749997E+02  0.45053672903E+01  0.73468532636E+03  0.74064152459E+03  0.86512106175E+02 0.  0.
        -11    1    5    5    0    0 -0.14731044904E+02  0.24403676542E+02  0.11124052027E+03  0.11483464836E+03  0.00000000000E+00 0.  1.
         12    1    5    5    0    0  0.50545794902E+02 -0.19898309252E+02  0.62344480609E+03  0.62580687623E+03  0.00000000000E+00 0. -1.
         11    1    3    3    0    0  0.26422448265E+02 -0.62899945782E+02 -0.42340464134E+02  0.80294855718E+02  0.00000000000E+00 0. -1.
        -12    1    3    3    0    0 -0.57287466065E+01  0.17025986577E+02  0.94635050911E+01  0.20304203634E+02  0.00000000000E+00 0.  1.
          5    1    4    4  501    0 -0.26191357069E+02 -0.28257644093E+02 -0.31313998800E+02  0.49824898953E+02  0.41800000000E+01 0. -1.
         -5    1    4    4    0  501 -0.30317094586E+02  0.69626236007E+02  0.58830162844E+02  0.96153000083E+02  0.41800000000E+01 0. -1.
</event>
<event>
11    1  0.8864208E-009  0.1399242E+03  0.7561462E-02  0.1107643E+00
         22   -1    0    0    0    0  0.00000000000E+00  0.00000000000E+00  0.43953599103E+03  0.43953599103E+03  0.00000000000E+00 0. -1.
         22   -1    0    0    0    0 -0.00000000000E+00 -0.00000000000E+00 -0.56641455538E+03  0.56641455538E+03  0.00000000000E+00 0.  1.
         24    2    1    2    0    0 -0.62650032629E+02  0.13641589899E+02 -0.48773694357E+03  0.49849059549E+03  0.80588014633E+02 0.  0.
         25    2    1    2    0    0  0.36537558151E+02 -0.39758148915E+02 -0.15461913526E+00  0.13624792043E+03  0.12509104026E+03 0.  0.
        -24    2    1    2    0    0  0.26112474478E+02  0.26116559016E+02  0.36101299836E+03  0.37121203049E+03  0.78128423858E+02 0.  0.
        -13    1    3    3    0    0 -0.30585797025E+02 -0.20795769732E+02 -0.36778192300E+03  0.36963698125E+03  0.00000000000E+00 0.  1.
         14    1    3    3    0    0 -0.32064235604E+02  0.34437359632E+02 -0.11995502057E+03  0.12885361425E+03  0.00000000000E+00 0. -1.
         13    1    5    5    0    0  0.31497820898E+02  0.50743315257E+02  0.21995969168E+03  0.22792380904E+03  0.00000000000E+00 0. -1.
        -14    1    5    5    0    0 -0.53853464194E+01 -0.24626756241E+02  0.14105330668E+03  0.14328822145E+03  0.00000000000E+00 0.  1.
          5    1    4    4  501    0  0.52555639275E+02  0.25325008275E+02  0.26222514993E+02  0.64097924743E+02  0.41800000000E+01 0. -1.
         -5    1    4    4    0  501 -0.16018081124E+02 -0.65083157190E+02 -0.26377134129E+02  0.72149995687E+02  0.41800000000E+01 0. -1.
</event>
<event>
11    1  0.8864208E-009  0.1378944E+03  0.7561462E-02  0.1109933E+00
         22   -1    0    0    0    0  0.00000000000E+00  0.00000000000E+00  0.27902505421E+03  0.27902505421E+03  0.00000000000E+00 0. -1.
         22   -1    0    0    0    0 -0.00000000000E+00 -0.00000000000E+00 -0.33642173027E+03  0.33642173027E+03  0.00000000000E+00 0. -1.
         24    2    1    2    0    0 -0.14326518376E+02 -0.26753405270E+02 -0.22528500993E+03  0.24295339375E+03  0.85743932807E+02 0.  0.
         25    2    1    2    0    0  0.63791702036E+02 -0.38380252815E+01 -0.36226629439E+02  0.14505782705E+03  0.12508114494E+03 0.  0.
        -24    2    1    2    0    0 -0.49465183660E+02  0.30591430552E+02  0.20411496330E+03  0.22743556368E+03  0.81739692710E+02 0.  0.
        -13    1    3    3    0    0  0.25756379804E+02  0.17542929425E+02 -0.81226606839E+02  0.86999466274E+02  0.00000000000E+00 0.  1.
         14    1    3    3    0    0 -0.40082898180E+02 -0.44296334696E+02 -0.14405840309E+03  0.15595392748E+03  0.00000000000E+00 0. -1.
         11    1    5    5    0    0 -0.13075119907E+02  0.54534820209E+02  0.12780988610E+03  0.13957210452E+03  0.00000000000E+00 0. -1.
        -12    1    5    5    0    0 -0.36390063752E+02 -0.23943389657E+02  0.76305077204E+02  0.87863459159E+02  0.00000000000E+00 0.  1.
          5    1    4    4  501    0  0.83131936874E+02  0.13530402383E+02 -0.64690745020E+02  0.10628431497E+03  0.41800000000E+01 0. -1.
         -5    1    4    4    0  501 -0.19340234838E+02 -0.17368427665E+02  0.28464115581E+02  0.38773512079E+02  0.41800000000E+01 0. -1.
</event>
<event>
11    1  0.8864208E-009  0.3111929E+03  0.7561462E-02  0.9955623E-01
         22   -1    0    0    0    0  0.00000000000E+00  0.00000000000E+00  0.37193288855E+03  0.37193288855E+03  0.00000000000E+00 0. -1.
         22   -1    0    0    0    0 -0.00000000000E+00 -0.00000000000E+00 -0.90155998659E+03  0.90155998659E+03  0.00000000000E+00 0. -1.
        -24    2    1    2    0    0  0.27018621005E+03  0.82665588072E+02 -0.73639847341E+03  0.79288411309E+03  0.80921675726E+02 0.  0.
         25    2    1    2    0    0 -0.30473681248E+03 -0.48018027875E+02  0.13263396808E+03  0.35834070882E+03  0.12508412461E+03 0.  0.
         24    2    1    2    0    0  0.34550602434E+02 -0.34647560197E+02  0.74137407298E+02  0.12226805322E+03  0.84017403684E+02 0.  0.
        -13    1    5    5    0    0  0.23225111728E+02 -0.57334919799E+02  0.24512329430E+02  0.66539861265E+02  0.00000000000E+00 0.  1.
         14    1    5    5    0    0  0.11325490706E+02  0.22687359602E+02  0.49625077868E+02  0.55728191957E+02  0.00000000000E+00 0. -1.
         13    1    3    3    0    0  0.19041228060E+03  0.42341169505E+02 -0.40322900589E+03  0.44793218508E+03  0.00000000000E+00 0. -1.
        -14    1    3    3    0    0  0.79773929444E+02  0.40324418567E+02 -0.33316946752E+03  0.34495192801E+03  0.00000000000E+00 0.  1.
          5    1    4    4  501    0 -0.20161112045E+02 -0.33387127613E+02  0.46058505160E+02  0.60498173747E+02  0.41800000000E+01 0.  1.
         -5    1    4    4    0  501 -0.28457570044E+03 -0.14630900262E+02  0.86575462918E+02  0.29784253508E+03  0.41800000000E+01 0.  1.
</event>
<event>
11    1  0.8864208E-009  0.1388447E+03  0.7561462E-02  0.1108855E+00
         22   -1    0    0    0    0  0.00000000000E+00  0.00000000000E+00  0.88381432814E+03  0.88381432814E+03  0.00000000000E+00 0.  1.
         22   -1    0    0    0    0 -0.00000000000E+00 -0.00000000000E+00 -0.23134623393E+03  0.23134623393E+03  0.00000000000E+00 0. -1.
         24    2    1    2    0    0  0.10149494643E+02 -0.32420219028E+02 -0.15380556553E+03  0.17670624684E+03  0.80092838887E+02 0.  0.
         25    2    1    2    0    0 -0.11884819875E+02 -0.29694027634E+02  0.47872401448E+01  0.12920194700E+03  0.12508893325E+03 0.  0.
        -24    2    1    2    0    0  0.17353252320E+01  0.62114246662E+02  0.80148641959E+03  0.80925236823E+03  0.92993137940E+02 0.  0.
        -11    1    3    3    0    0  0.10898043722E+02 -0.34579280753E+02 -0.17283095699E+02  0.40164653755E+02  0.00000000000E+00 0.  1.
         12    1    3    3    0    0 -0.74854907933E+00  0.21590617250E+01 -0.13652246983E+03  0.13654159309E+03  0.00000000000E+00 0. -1.
         11    1    5    5    0    0  0.12952962537E+02  0.62358959596E+02  0.26132056587E+03  0.26896999317E+03  0.00000000000E+00 0. -1.
        -12    1    5    5    0    0 -0.11217637305E+02 -0.24471293446E+00  0.54016585373E+03  0.54028237506E+03  0.00000000000E+00 0.  1.
          5    1    4    4  501    0 -0.36607833111E+02 -0.59185054392E+02 -0.31170872641E+02  0.76368185848E+02  0.41800000000E+01 0. -1.
         -5    1    4    4    0  501  0.24723013236E+02  0.29491026759E+02  0.35958112785E+02  0.52833761156E+02  0.41800000000E+01 0. -1.
</event>
<event>
11    1  0.8864208E-009  0.1611481E+03  0.7561462E-02  0.1086002E+00
         22   -1    0    0    0    0  0.00000000000E+00  0.00000000000E+00  0.15642307901E+03  0.15642307901E+03  0.00000000000E+00 0.  1.
         22   -1    0    0    0    0 -0.00000000000E+00 -0.00000000000E+00 -0.21108010595E+04  0.21108010595E+04  0.00000000000E+00 0. -1.
         24    2    1    2    0    0 -0.97483222823E+02  0.26809532067E+02 -0.19822321639E+04  0.19864618832E+04  0.81023033328E+02 0.  0.
         25    2    1    2    0    0  0.10527181146E+03 -0.73575496611E+02 -0.11669041615E+02  0.17966192671E+03  0.12508690333E+03 0.  0.
        -24    2    1    2    0    0 -0.77885886402E+01  0.46765964544E+02  0.39523225018E+02  0.10110032864E+03  0.80071677785E+02 0.  0.
        -13    1    3    3    0    0 -0.37495910127E+01 -0.15915101051E+00 -0.85757671670E+03  0.85758492862E+03  0.00000000000E+00 0.  1.
         14    1    3    3    0    0 -0.93733631810E+02  0.26968683077E+02 -0.11246554472E+04  0.11288769546E+04  0.00000000000E+00 0. -1.
         11    1    5    5    0    0  0.34600299582E+02  0.21461485647E+02  0.30600855335E+02  0.50933176266E+02  0.00000000000E+00 0. -1.
        -12    1    5    5    0    0 -0.42388888222E+02  0.25304478897E+02  0.89223696827E+01  0.50167152378E+02  0.00000000000E+00 0.  1.
          5    1    4    4  501    0  0.45390084936E+02  0.32502779970E+02 -0.14179288199E+02  0.57751321458E+02  0.41800000000E+01 0. -1.
         -5    1    4    4    0  501  0.59881726527E+02 -0.10607827658E+03  0.25102465839E+01  0.12191060525E+03  0.41800000000E+01 0. -1.
</event>
<event>
11    1  0.1060074E-008  0.1597012E+03  0.7561462E-02  0.1087359E+00
         22   -1    0    0    0    0  0.00000000000E+00  0.00000000000E+00  0.35912534708E+03  0.35912534708E+03  0.00000000000E+00 0. -1.
         22   -1    0    0    0    0 -0.00000000000E+00 -0.00000000000E+00 -0.25504989391E+04  0.25504989391E+04  0.00000000000E+00 0. -1.
        -24    2    1    2    0    0 -0.32521605112E+02 -0.15723328012E+02 -0.22079314598E+04  0.22097417832E+04  0.81807943197E+02 0.  0.
         25    2    1    2    0    0 -0.57749384717E+02  0.59105553183E+02 -0.31124875461E+03  0.34547263251E+03  0.12508834765E+03 0.  0.
         24    2    1    2    0    0  0.90270989828E+02 -0.43382225171E+02  0.32780662240E+03  0.35440987042E+03  0.90101639800E+02 0.  0.
        -13    1    5    5    0    0  0.28359659174E+02  0.87140452748E+01  0.19122011550E+02  0.35296687936E+02  0.00000000000E+00 0.  1.
         14    1    5    5    0    0  0.61911330654E+02 -0.52096270445E+02  0.30868461085E+03  0.31911318249E+03  0.00000000000E+00 0. -1.
         13    1    3    3    0    0 -0.55635731455E+02 -0.13381833409E+02 -0.19276396007E+04  0.19284887447E+04  0.00000000000E+00 0. -1.
        -14    1    3    3    0    0  0.23114126343E+02 -0.23414946030E+01 -0.28029185911E+03  0.28125303859E+03  0.00000000000E+00 0.  1.
          5    1    4    4  501    0  0.81897804121E+01  0.12325589743E+02 -0.23090317222E+03  0.23141464951E+03  0.41800000000E+01 0.  1.
         -5    1    4    4    0  501 -0.65939165129E+02  0.46779963439E+02 -0.80345582384E+02  0.11405798300E+03  0.41800000000E+01 0.  1.
</event>
<event>
11    1  0.8864208E-009  0.1427955E+03  0.7561462E-02  0.1104476E+00
         22   -1    0    0    0    0  0.00000000000E+00  0.00000000000E+00  0.58954586134E+03  0.58954586134E+03  0.00000000000E+00 0. -1.
         22   -1    0    0    0    0 -0.00000000000E+00 -0.00000000000E+00 -0.73898612389E+03  0.73898612389E+03  0.00000000000E+00 0.  1.
         24    2    1    2    0    0 -0.22971662401E+02 -0.25211550139E+01 -0.55547609946E+03  0.56161507488E+03  0.79521957771E+02 0.  0.
         25    2    1    2    0    0 -0.26752459653E+02 -0.45819097667E+02 -0.14940968875E+03  0.20195527467E+03  0.12509034361E+03 0.  0.
        -24    2    1    2    0    0  0.49724122054E+02  0.48340252681E+02  0.55544552566E+03  0.56496163567E+03  0.76502610830E+02 0.  0.
        -11    1    3    3    0    0 -0.47964953198E+02  0.62202572964E+01 -0.45999156813E+03  0.46252737334E+03  0.00000000000E+00 0.  1.
         12    1    3    3    0    0  0.24993290797E+02 -0.87414123103E+01 -0.95484531327E+02  0.99087701541E+02  0.00000000000E+00 0. -1.
         13    1    5    5    0    0  0.44878708265E+02  0.67322480183E+02  0.38608987096E+03  0.39447661940E+03  0.00000000000E+00 0. -1.
        -14    1    5    5    0    0  0.48454137891E+01 -0.18982227501E+02  0.16935565470E+03  0.17048501628E+03  0.00000000000E+00 0.  1.
          5    1    4    4  501    0 -0.51656559482E+02 -0.16643917432E+02 -0.75645856123E+01  0.54955577337E+02  0.41800000000E+01 0.  1.
         -5    1    4    4    0  501  0.24904099828E+02 -0.29175180235E+02 -0.14184510314E+03  0.14699969733E+03  0.41800000000E+01 0.  1.
</event>
<event>
11    1  0.8864208E-009  0.1757865E+03  0.7561462E-02  0.1073103E+00
         22   -1    0    0    0    0  0.00000000000E+00  0.00000000000E+00  0.88469422813E+03  0.88469422813E+03  0.00000000000E+00 0.  1.
         22   -1    0    0    0    0 -0.00000000000E+00 -0.00000000000E+00 -0.11548957248E+03  0.11548957248E+03  0.00000000000E+00 0. -1.
         24    2    1    2    0    0  0.24494410272E+02 -0.12022306849E+03 -0.29548821738E+02  0.14938221571E+03  0.79927161655E+02 0.  0.
         25    2    1    2    0    0  0.29744716248E+02  0.13677627463E+03  0.42948730568E+03  0.46872045932E+03  0.12508807218E+03 0.  0.
        -24    2    1    2    0    0 -0.54239126521E+02 -0.16553206136E+02  0.36926617170E+03  0.38208112558E+03  0.80078645607E+02 0.  0.
        -13    1    3    3    0    0 -0.22330330660E+02 -0.24185135664E+02  0.11579382186E+02  0.34894792538E+02  0.00000000000E+00 0.  1.
         14    1    3    3    0    0  0.46824740932E+02 -0.96037932830E+02 -0.41128203924E+02  0.11448742317E+03  0.00000000000E+00 0. -1.
         11    1    5    5    0    0  0.21139639576E+02 -0.42094718797E+01  0.71877960470E+02  0.75040290620E+02  0.00000000000E+00 0. -1.
        -12    1    5    5    0    0 -0.75378766097E+02 -0.12343734256E+02  0.29738821123E+03  0.30704083496E+03  0.00000000000E+00 0.  1.
          5    1    4    4  501    0 -0.23818724918E+02  0.20719562014E+01  0.12638076911E+02  0.27364539960E+02  0.41800000000E+01 0. -1.
         -5    1    4    4    0  501  0.53563441166E+02  0.13470431843E+03  0.41684922877E+03  0.44135591936E+03  0.41800000000E+01 0. -1.
</event>
<event>
11    1  0.8864208E-009  0.1695058E+03  0.7561462E-02  0.1078463E+00
         22   -1    0    0    0    0  0.00000000000E+00  0.00000000000E+00  0.29177304458E+03  0.29177304458E+03  0.00000000000E+00 0.  1.
         22   -1    0    0    0    0 -0.00000000000E+00 -0.00000000000E+00 -0.11901385113E+04  0.11901385113E+04  0.00000000000E+00 0. -1.
        -24    2    1    2    0    0 -0.23121859370E+02 -0.10881302549E+03 -0.10008002479E+04  0.10102496196E+04  0.81414143906E+02 0.  0.
         25    2    1    2    0    0  0.21522774564E+01  0.15517243066E+03 -0.11672341650E+03  0.23098291031E+03  0.12508250621E+03 0.  0.
         24    2    1    2    0    0  0.20969581914E+02 -0.46359405175E+02  0.21915819761E+03  0.24067902604E+03  0.85481928971E+02 0.  0.
        -13    1    5    5    0    0  0.52648777277E+02 -0.26163466927E+02  0.10301631679E+03  0.11861189769E+03  0.00000000000E+00 0.  1.
         14    1    5    5    0    0 -0.31679195363E+02 -0.20195938248E+02  0.11614188083E+03  0.12206712835E+03  0.00000000000E+00 0. -1.
         13    1    3    3    0    0 -0.53055324586E+02 -0.74578028012E+02 -0.61368510534E+03  0.62047252820E+03  0.00000000000E+00 0. -1.
        -14    1    3    3    0    0  0.29933465216E+02 -0.34234997475E+02 -0.38711514253E+03  0.38977709138E+03  0.00000000000E+00 0.  1.
          5    1    4    4  501    0 -0.95062362620E+01  0.63422069603E+02 -0.12237941792E+03  0.13822778943E+03  0.41800000000E+01 0. -1.
         -5    1    4    4    0  501  0.11658513718E+02  0.91750361059E+02  0.56560014208E+01  0.92755120876E+02  0.41800000000E+01 0. -1.
</event>
<event>
11    1  0.8864208E-009  0.1433606E+03  0.7561462E-02  0.1103863E+00
         22   -1    0    0    0    0  0.00000000000E+00  0.00000000000E+00  0.21485099591E+04  0.21485099591E+04  0.00000000000E+00 0. -1.
         22   -1    0    0    0    0 -0.00000000000E+00 -0.00000000000E+00 -0.60407237951E+03  0.60407237951E+03  0.00000000000E+00 0. -1.
         24    2    1    2    0    0 -0.23035253649E+02 -0.43914482351E+02 -0.46586461644E+03  0.47562036378E+03  0.82010882943E+02 0.  0.
         25    2    1    2    0    0 -0.81788869249E+01 -0.19363791777E+02 -0.10141611306E+03  0.16240410022E+03  0.12509201875E+03 0.  0.
        -24    2    1    2    0    0  0.31214140574E+02  0.63278274128E+02  0.21117183091E+04  0.21145578746E+04  0.83799317321E+02 0.  0.
        -13    1    3    3    0    0  0.25886517112E+02  0.50480319052E+01 -0.14440606653E+03  0.14679477662E+03  0.00000000000E+00 0.  1.
         14    1    3    3    0    0 -0.48921770761E+02 -0.48962514256E+02 -0.32145854991E+03  0.32882558716E+03  0.00000000000E+00 0. -1.
         13    1    5    5    0    0  0.31734775559E+02  0.29165102205E+02  0.18643251139E+04  0.18648232703E+04  0.00000000000E+00 0. -1.
        -14    1    5    5    0    0 -0.52063498469E+00  0.34113171923E+02  0.24739319516E+03  0.24973460427E+03  0.00000000000E+00 0.  1.
          5    1    4    4  501    0  0.56620302724E+02  0.51565261645E+01 -0.52403662215E+02  0.77434260222E+02  0.41800000000E+01 0.  1.
         -5    1    4    4    0  501 -0.64799189649E+02 -0.24520317942E+02 -0.49012450846E+02  0.84969839997E+02  0.41800000000E+01 0.  1.
</event>
<event>
11    1  0.8864208E-009  0.1604068E+03  0.7561462E-02  0.1086695E+00
         22   -1    0    0    0    0  0.00000000000E+00  0.00000000000E+00  0.12777114786E+04  0.12777114786E+04  0.00000000000E+00 0. -1.
         22   -1    0    0    0    0 -0.00000000000E+00 -0.00000000000E+00 -0.14275114123E+03  0.14275114123E+03  0.00000000000E+00 0. -1.
        -24    2    1    2    0    0 -0.39818796634E+02  0.67106229714E+01 -0.75157310391E+02  0.11726887362E+03  0.80453703385E+02 0.  0.
         25    2    1    2    0    0  0.47339438288E+02 -0.10600453621E+03  0.12747947559E+03  0.21301732758E+03  0.12508949212E+03 0.  0.
         24    2    1    2    0    0 -0.75206416547E+01  0.99293913238E+02  0.10826381721E+04  0.10901764186E+04  0.80395090974E+02 0.  0.
        -11    1    5    5    0    0 -0.17603423653E+02  0.63413783151E+01  0.51245062416E+02  0.54554101819E+02  0.00000000000E+00 0.  1.
         12    1    5    5    0    0  0.10082781998E+02  0.92952534923E+02  0.10313931097E+04  0.10356223168E+04  0.00000000000E+00 0. -1.
         13    1    3    3    0    0 -0.52423515543E+02  0.24254562060E+02 -0.25548041743E+02  0.63160202656E+02  0.00000000000E+00 0. -1.
        -14    1    3    3    0    0  0.12604718909E+02 -0.17543939088E+02 -0.49609268648E+02  0.54108670962E+02  0.00000000000E+00 0.  1.
          5    1    4    4  501    0 -0.39789668367E+02 -0.15847171142E+02  0.48212606753E+02  0.64624131653E+02  0.41800000000E+01 0.  1.
         -5    1    4    4    0  501  0.87129106656E+02 -0.90157365067E+02  0.79266868838E+02  0.14839319593E+03  0.41800000000E+01 0.  1.
</event>
<event>
11    1  0.8864208E-009  0.1650193E+03  0.7561462E-02  0.1082449E+00
         22   -1    0    0    0    0  0.00000000000E+00  0.00000000000E+00  0.87207463423E+03  0.87207463423E+03  0.00000000000E+00 0.  1.
         22   -1    0    0    0    0 -0.00000000000E+00 -0.00000000000E+00 -0.10534923036E+04  0.10534923036E+04  0.00000000000E+00 0. -1.
        -24    2    1    2    0    0 -0.16593535593E+01 -0.10977477678E+03 -0.10084036408E+04  0.10177673242E+04  0.83181537480E+02 0.  0.
         25    2    1    2    0    0 -0.52486654017E+02  0.42582446685E+02  0.10599724548E+03  0.17734626952E+03  0.12509264426E+03 0.  0.
         24    2    1    2    0    0  0.54146007577E+02  0.67192330093E+02  0.72098872595E+03  0.73045334419E+03  0.79314221502E+02 0.  0.
        -13    1    5    5    0    0  0.60854703839E+02  0.73213037864E+02  0.70945916714E+03  0.71581824071E+03  0.00000000000E+00 0.  1.
         14    1    5    5    0    0 -0.67086962625E+01 -0.60207077705E+01  0.11529558816E+02  0.14635103487E+02  0.00000000000E+00 0. -1.
         13    1    3    3    0    0 -0.25014728546E+02 -0.11111533711E+03 -0.80340850996E+03  0.81144167299E+03  0.00000000000E+00 0. -1.
        -14    1    3    3    0    0  0.23355374987E+02  0.13405603363E+01 -0.20499513088E+03  0.20632565117E+03  0.00000000000E+00 0.  1.
          5    1    4    4  501    0 -0.60600792758E+02  0.31844070837E+01 -0.31883450780E+01  0.60911694080E+02  0.41800000000E+01 0. -1.
         -5    1    4    4    0  501  0.81141387407E+01  0.39398039601E+02  0.10918559056E+03  0.11643457544E+03  0.41800000000E+01 0. -1.
</event>
<event>
11    1  0.8864208E-009  0.1388596E+03  0.7561462E-02  0.1108839E+00
         22   -1    0    0    0    0  0.00000000000E+00  0.00000000000E+00  0.63421919698E+03  0.63421919698E+03  0.00000000000E+00 0. -1.
         22   -1    0    0    0    0 -0.00000000000E+00 -0.00000000000E+00 -0.97964211272E+03  0.97964211272E+03  0.00000000000E+00 0. -1.
         24    2    1    2    0    0 -0.25901686322E+02  0.53688422196E+02 -0.93072945666E+03  0.93605270464E+03  0.79899939507E+02 0.  0.
         25    2    1    2    0    0  0.13662908463E+02 -0.10687450957E+03  0.12433751699E+03  0.20667899210E+03  0.12509017460E+03 0.  0.
        -24    2    1    2    0    0  0.12238777859E+02  0.53186087370E+02  0.46096902393E+03  0.47112961296E+03  0.80573715399E+02 0.  0.
        -13    1    3    3    0    0 -0.25905400008E+02  0.67095839316E+02 -0.50330326682E+03  0.50841628592E+03  0.00000000000E+00 0.  1.
         14    1    3    3    0    0  0.37136865074E-02 -0.13407417120E+02 -0.42742618985E+03  0.42763641872E+03  0.00000000000E+00 0. -1.
         11    1    5    5    0    0  0.37713838803E+02  0.41313808009E+02  0.40121375015E+03  0.40509460337E+03  0.00000000000E+00 0. -1.
        -12    1    5    5    0    0 -0.25475060944E+02  0.11872279362E+02  0.59755273779E+02  0.66035009592E+02  0.00000000000E+00 0.  1.
          5    1    4    4  501    0 -0.29694745507E+02 -0.11545581834E+03  0.10215005906E+03  0.15704754333E+03  0.41800000000E+01 0.  1.
         -5    1    4    4    0  501  0.43357653970E+02  0.85813087741E+01  0.22187457929E+02  0.49631448774E+02  0.41800000000E+01 0.  1.
</event>
<event>
11    1  0.8864208E-009  0.1319787E+03  0.7561462E-02  0.1116861E+00
         22   -1    0    0    0    0  0.00000000000E+00  0.00000000000E+00  0.12804325022E+03  0.12804325022E+03  0.00000000000E+00 0. -1.
         22   -1    0    0    0    0 -0.00000000000E+00 -0.00000000000E+00 -0.90847484514E+03  0.90847484514E+03  0.00000000000E+00 0.  1.
        -24    2    1    2    0    0 -0.47681674920E+02 -0.36436821206E+01 -0.63452660713E+03  0.64062625712E+03  0.74102412959E+02 0.  0.
         25    2    1    2    0    0  0.84396407167E+02  0.15985510541E+02 -0.22757065316E+03  0.27349939375E+03  0.12504089775E+03 0.  0.
         24    2    1    2    0    0 -0.36714732247E+02 -0.12341828420E+02  0.81665665380E+02  0.12239244450E+03  0.82524767648E+02 0.  0.
        -11    1    5    5    0    0  0.25321080970E+01 -0.41913160496E+02  0.39264571132E+02  0.57487660767E+02  0.00000000000E+00 0.  1.
         12    1    5    5    0    0 -0.39246840344E+02  0.29571332076E+02  0.42401094247E+02  0.64904783731E+02  0.00000000000E+00 0. -1.
         11    1    3    3    0    0 -0.17223227371E+02 -0.16349894848E+01 -0.25382430435E+02  0.30717755883E+02  0.00000000000E+00 0. -1.
        -12    1    3    3    0    0 -0.30458447548E+02 -0.20086926358E+01 -0.60914417670E+03  0.60990850124E+03  0.00000000000E+00 0.  1.
          5    1    4    4  501    0  0.59712651366E+02  0.33747028811E+02 -0.23247153134E+03  0.24241482622E+03  0.41800000000E+01 0. -1.
         -5    1    4    4    0  501  0.24683755801E+02 -0.17761518271E+02  0.49008781771E+01  0.31084567531E+02  0.41800000000E+01 0. -1.
</event>
<event>
11    1  0.8864208E-009  0.1307752E+03  0.7561462E-02  0.1118320E+00
         22   -1    0    0    0    0  0.00000000000E+00  0.00000000000E+00  0.67216460879E+03  0.67216460879E+03  0.00000000000E+00 0. -1.
         22   -1    0    0    0    0 -0.00000000000E+00 -0.00000000000E+00 -0.11772252040E+04  0.11772252040E+04  0.00000000000E+00 0. -1.
        -24    2    1    2    0    0 -0.61509052815E+01  0.39019464416E+02 -0.10510532229E+04  0.10550008236E+04  0.82179731673E+02 0.  0.
         25    2    1    2    0    0 -0.48196292174E+01 -0.16456749909E+02 -0.88648541850E+02  0.15427237257E+03  0.12508935815E+03 0.  0.
         24    2    1    2    0    0  0.10970534499E+02 -0.22562714507E+02  0.63464116952E+03  0.64011661659E+03  0.79689648458E+02 0.  0.
        -13    1    5    5    0    0 -0.13137049244E+01  0.10778608630E+02  0.10973870377E+02  0.15437942080E+02  0.00000000000E+00 0.  1.
         14    1    5    5    0    0  0.12284239423E+02 -0.33341323136E+02  0.62366729915E+03  0.62467867451E+03  0.00000000000E+00 0. -1.
         11    1    3    3    0    0  0.26827379729E+02  0.36961070476E+02 -0.32467453801E+03  0.32787098784E+03  0.00000000000E+00 0. -1.
        -12    1    3    3    0    0 -0.32978285011E+02  0.20583939404E+01 -0.72637868488E+03  0.72712983580E+03  0.00000000000E+00 0.  1.
          5    1    4    4  501    0  0.55532733431E+02  0.87633824948E+01 -0.61215472284E+02  0.83219515752E+02  0.41800000000E+01 0. -1.
         -5    1    4    4    0  501 -0.60352362649E+02 -0.25220132404E+02 -0.27433069566E+02  0.71052856815E+02  0.41800000000E+01 0. -1.
</event>
<event>
11    1  0.8864208E-009  0.1384138E+03  0.7561462E-02  0.1109343E+00
         22   -1    0    0    0    0  0.00000000000E+00  0.00000000000E+00  0.12407506387E+04  0.12407506387E+04  0.00000000000E+00 0. -1.
         22   -1    0    0    0    0 -0.00000000000E+00 -0.00000000000E+00 -0.36774045068E+03  0.36774045068E+03  0.00000000000E+00 0.  1.
        -24    2    1    2    0    0 -0.58580211569E+02 -0.90488091946E+01 -0.34695802428E+03  0.36112144662E+03  0.80717448308E+02 0.  0.
         25    2    1    2    0    0  0.63999861906E+02 -0.39252969119E+02  0.48668080894E+03  0.50807748493E+03  0.12509093887E+03 0.  0.
         24    2    1    2    0    0 -0.54196503364E+01  0.48301778314E+02  0.73328740331E+03  0.73929215778E+03  0.80498722439E+02 0.  0.
        -11    1    5    5    0    0  0.21983882483E+02  0.57609695638E+02  0.39680249335E+03  0.40156492234E+03  0.00000000000E+00 0.  1.
         12    1    5    5    0    0 -0.27403532819E+02 -0.93079173237E+01  0.33648490995E+03  0.33772723545E+03  0.00000000000E+00 0. -1.
         11    1    3    3    0    0 -0.22003808419E+02 -0.40914456371E+02 -0.11280947749E+03  0.12200056777E+03  0.00000000000E+00 0. -1.
        -12    1    3    3    0    0 -0.36576403150E+02  0.31865647176E+02 -0.23414854679E+03  0.23912087885E+03  0.00000000000E+00 0.  1.
          5    1    4    4  501    0  0.73149461026E+02 -0.77245481180E+02  0.34598803561E+03  0.36199848231E+03  0.41800000000E+01 0.  1.
         -5    1    4    4    0  501 -0.91495991198E+01  0.37992512061E+02  0.14069277333E+03  0.14607900261E+03  0.41800000000E+01 0.  1.
</event>
<event>
11    1  0.8864208E-009  0.1412601E+03  0.7561462E-02  0.1106159E+00
         22   -1    0    0    0    0  0.00000000000E+00  0.00000000000E+00  0.32915121491E+03  0.32915121491E+03  0.00000000000E+00 0. -1.
         22   -1    0    0    0    0 -0.00000000000E+00 -0.00000000000E+00 -0.38381618423E+03  0.38381618423E+03  0.00000000000E+00 0. -1.
         24    2    1    2    0    0 -0.12039036026E+02  0.78359837824E+01 -0.27493531146E+03  0.28680728240E+03  0.80390613384E+02 0.  0.
         25    2    1    2    0    0 -0.54064684243E+02 -0.16741751387E+02 -0.42057809561E+02  0.14359076937E+03  0.12508466485E+03 0.  0.
        -24    2    1    2    0    0  0.66103720269E+02  0.89057676048E+01  0.26232815170E+03  0.28256934738E+03  0.81119432777E+02 0.  0.
        -13    1    3    3    0    0 -0.15945718084E+02  0.28130575587E+02 -0.42240024051E+02  0.53196003984E+02  0.00000000000E+00 0.  1.
         14    1    3    3    0    0  0.39066820577E+01 -0.20294591804E+02 -0.23269528741E+03  0.23361127841E+03  0.00000000000E+00 0. -1.
         11    1    5    5    0    0  0.62933647286E+02  0.38208434032E+01  0.26739153925E+03  0.27472436744E+03  0.00000000000E+00 0. -1.
        -12    1    5    5    0    0  0.31700729833E+01  0.50849242016E+01 -0.50633875441E+01  0.78449799412E+01  0.00000000000E+00 0.  1.
          5    1    4    4  501    0  0.35452220146E+02  0.18546177081E+02 -0.19341447472E+02  0.44636135451E+02  0.41800000000E+01 0.  1.
         -5    1    4    4    0  501 -0.89516904389E+02 -0.35287928468E+02 -0.22716362089E+02  0.98954633917E+02  0.41800000000E+01 0.  1.
</event>
<event>
11    1  0.8864208E-009  0.5078762E+03  0.7561462E-02  0.9376092E-01
         22   -1    0    0    0    0  0.00000000000E+00  0.00000000000E+00  0.13235014718E+04  0.13235014718E+04  0.00000000000E+00 0. -1.
         22   -1    0    0    0    0 -0.00000000000E+00 -0.00000000000E+00 -0.35021741488E+03  0.35021741488E+03  0.00000000000E+00 0.  1.
         24    2    1    2    0    0  0.38674429159E+03  0.79100679826E+02 -0.15857811755E+03  0.43313426671E+03  0.81426095342E+02 0.  0.
         25    2    1    2    0    0 -0.88249125599E+02 -0.72740970774E+02  0.21984871934E+03  0.27759609679E+03  0.12508787534E+03 0.  0.
        -24    2    1    2    0    0 -0.29849516599E+03 -0.63597090527E+01  0.91201345511E+03  0.96298852316E+03  0.80240534781E+02 0.  0.
        -13    1    3    3    0    0  0.35538240379E+03  0.76688042731E+02 -0.16771098081E+03  0.40038067124E+03  0.00000000000E+00 0.  1.
         14    1    3    3    0    0  0.31361887805E+02  0.24126370955E+01  0.91328632643E+01  0.32753595465E+02  0.00000000000E+00 0. -1.
         11    1    5    5    0    0 -0.15203785288E+03  0.52896442453E+01  0.58553660065E+03  0.60497652826E+03  0.00000000000E+00 0. -1.
        -12    1    5    5    0    0 -0.14645731311E+03 -0.11649353298E+02  0.32647685446E+03  0.35801199491E+03  0.00000000000E+00 0.  1.
          5    1    4    4  501    0 -0.13237813800E+02 -0.10454179802E+02  0.16447523715E+03  0.16539076645E+03  0.41800000000E+01 0. -1.
         -5    1    4    4    0  501 -0.75011311799E+02 -0.62286790972E+02  0.55373482189E+02  0.11220533034E+03  0.41800000000E+01 0. -1.
</event>
<event>
11    1  0.8864208E-009  0.1333927E+03  0.7561462E-02  0.1115169E+00
         22   -1    0    0    0    0  0.00000000000E+00  0.00000000000E+00  0.69157579861E+03  0.69157579861E+03  0.00000000000E+00 0. -1.
         22   -1    0    0    0    0 -0.00000000000E+00 -0.00000000000E+00 -0.30700356577E+03  0.30700356577E+03  0.00000000000E+00 0. -1.
         24    2    1    2    0    0  0.95938548418E+02  0.73556981282E+01 -0.24282776952E+03  0.27690726955E+03  0.91945630193E+02 0.  0.
         25    2    1    2    0    0  0.14739320373E+02 -0.10135622011E+01  0.61137337390E+02  0.14001334525E+03  0.12509071888E+03 0.  0.
        -24    2    1    2    0    0 -0.11067786879E+03 -0.63421359271E+01  0.56626266498E+03  0.58165874959E+03  0.73373577638E+02 0.  0.
        -13    1    3    3    0    0  0.10618023472E+03 -0.16192700329E+02 -0.19564618791E+03  0.22319022522E+03  0.00000000000E+00 0.  1.
         14    1    3    3    0    0 -0.10241686305E+02  0.23548398457E+02 -0.47181581610E+02  0.53717044329E+02  0.00000000000E+00 0. -1.
         13    1    5    5    0    0 -0.11457098719E+03  0.11618964475E+01  0.42592992493E+03  0.44107160650E+03  0.00000000000E+00 0. -1.
        -14    1    5    5    0    0  0.38931183937E+01 -0.75040323746E+01  0.14033274004E+03  0.14058714308E+03  0.00000000000E+00 0.  1.
          5    1    4    4  501    0  0.27294164495E+02  0.44712792937E+02  0.73946089969E+02  0.90717704387E+02  0.41800000000E+01 0. -1.
         -5    1    4    4    0  501 -0.12554844122E+02 -0.45726355138E+02 -0.12808752579E+02  0.49295640860E+02  0.41800000000E+01 0. -1.
</event>
<event>
11    1  0.8864208E-009  0.1477729E+03  0.7561462E-02  0.1099176E+00
         22   -1    0    0    0    0  0.00000000000E+00  0.00000000000E+00  0.83468057706E+03  0.83468057706E+03  0.00000000000E+00 0.  1.
         22   -1    0    0    0    0 -0.00000000000E+00 -0.00000000000E+00 -0.67800972940E+03  0.67800972940E+03  0.00000000000E+00 0. -1.
         24    2    1    2    0    0 -0.74581748368E+02 -0.18259181969E+02 -0.57091950999E+03  0.58199465318E+03  0.82902681081E+02 0.  0.
         25    2    1    2    0    0  0.10008294360E+03  0.15906744646E+02 -0.33929968904E+02  0.16452112927E+03  0.12508532712E+03 0.  0.
        -24    2    1    2    0    0 -0.25501195233E+02  0.23524373229E+01  0.76152032655E+03  0.76617452401E+03  0.80338960464E+02 0.  0.
        -11    1    3    3    0    0 -0.45157378309E+02 -0.70309223156E+01 -0.99157389829E+02  0.10918246490E+03  0.00000000000E+00 0.  1.
         12    1    3    3    0    0 -0.29424370059E+02 -0.11228259654E+02 -0.47176212016E+03  0.47281218828E+03  0.00000000000E+00 0. -1.
         13    1    5    5    0    0 -0.29530894999E+02  0.17803394079E+02  0.13131526070E+03  0.13576719888E+03  0.00000000000E+00 0. -1.
        -14    1    5    5    0    0  0.40296997660E+01 -0.15450956756E+02  0.63020506586E+03  0.63040732513E+03  0.00000000000E+00 0.  1.
          5    1    4    4  501    0  0.76236472763E+02 -0.18580513573E+02 -0.72855140966E+02  0.10715679740E+03  0.41800000000E+01 0. -1.
         -5    1    4    4    0  501  0.23846470838E+02  0.34487258220E+02  0.38925172062E+02  0.57364331870E+02  0.41800000000E+01 0. -1.
</event>
<event>
11    1  0.8864208E-009  0.1299279E+03  0.7561462E-02  0.1119358E+00
         22   -1    0    0    0    0  0.00000000000E+00  0.00000000000E+00  0.27834088143E+03  0.27834088143E+03  0.00000000000E+00 0. -1.
         22   -1    0    0    0    0 -0.00000000000E+00 -0.00000000000E+00 -0.30548848568E+04  0.30548848568E+04  0.00000000000E+00 0. -1.
         24    2    1    2    0    0 -0.26368865286E+02  0.23241422844E+02 -0.29661045892E+04  0.29673955523E+04  0.80152660400E+02 0.  0.
         25    2    1    2    0    0  0.13456849317E+02 -0.31584513001E+02 -0.28917687748E+02  0.13290688647E+03  0.12509732032E+03 0.  0.
        -24    2    1    2    0    0  0.12912015968E+02  0.83430901566E+01  0.21847830162E+03  0.23292329941E+03  0.79272743242E+02 0.  0.
        -13    1    3    3    0    0  0.23148600081E+02  0.12326545871E+02 -0.43923352341E+03  0.44001578324E+03  0.00000000000E+00 0.  1.
         14    1    3    3    0    0 -0.49517465367E+02  0.10914876973E+02 -0.25268710658E+04  0.25273797691E+04  0.00000000000E+00 0. -1.
         11    1    5    5    0    0 -0.18491168056E+02 -0.26634023447E+02  0.11046115504E+03  0.11512150657E+03  0.00000000000E+00 0. -1.
        -12    1    5    5    0    0  0.31403184024E+02  0.34977113604E+02  0.10801714658E+03  0.11780179285E+03  0.00000000000E+00 0.  1.
          5    1    4    4  501    0 -0.36720940634E+02  0.46629790030E+01  0.29632650041E+02  0.47599760532E+02  0.41800000000E+01 0.  1.
         -5    1    4    4    0  501  0.50177789951E+02 -0.36247492004E+02 -0.58550337789E+02  0.85307125941E+02  0.41800000000E+01 0.  1.
</event>
<event>
11    1  0.8864208E-009  0.1435802E+03  0.7561462E-02  0.1103625E+00
         22   -1    0    0    0    0  0.00000000000E+00  0.00000000000E+00  0.19070385858E+04  0.19070385858E+04  0.00000000000E+00 0. -1.
         22   -1    0    0    0    0 -0.00000000000E+00 -0.00000000000E+00 -0.23381577393E+04  0.23381577393E+04  0.00000000000E+00 0.  1.
        -24    2    1    2    0    0  0.38213712253E+02  0.59590125047E+02 -0.22694294653E+04  0.22719195013E+04  0.79352704591E+02 0.  0.
         25    2    1    2    0    0 -0.64772177847E+02 -0.16301680036E+02  0.96716958908E+01  0.14215672670E+03  0.12511520072E+03 0.  0.
         24    2    1    2    0    0  0.26558465594E+02 -0.43288445010E+02  0.18286386159E+04  0.18311200971E+04  0.80637342472E+02 0.  0.
        -13    1    5    5    0    0  0.20778275631E+02 -0.55743604560E+02  0.73762733588E+03  0.74002241373E+03  0.00000000000E+00 0.  1.
         14    1    5    5    0    0  0.57801899629E+01  0.12455159549E+02  0.10910112800E+04  0.10910976834E+04  0.00000000000E+00 0. -1.
         11    1    3    3    0    0 -0.17836438156E+02  0.19350086807E+02 -0.26516779302E+03  0.26647049150E+03  0.00000000000E+00 0. -1.
        -12    1    3    3    0    0  0.56050150409E+02  0.40240038240E+02 -0.20042616722E+04  0.20054490098E+04  0.00000000000E+00 0.  1.
          5    1    4    4  501    0 -0.40378011120E+01  0.50801287947E+02  0.10394502612E+01  0.51143206311E+02  0.41800000000E+01 0.  1.
         -5    1    4    4    0  501 -0.60734376735E+02 -0.67102967984E+02  0.86322456296E+01  0.91013520393E+02  0.41800000000E+01 0.  1.
</event>
<event>
11    1  0.8864208E-009  0.2060938E+03  0.7561462E-02  0.1050296E+00
         22   -1    0    0    0    0  0.00000000000E+00  0.00000000000E+00  0.55046194648E+03  0.55046194648E+03  0.00000000000E+00 0.  1.
         22   -1    0    0    0    0 -0.00000000000E+00 -0.00000000000E+00 -0.59664749071E+03  0.59664749071E+03  0.00000000000E+00 0.  1.
        -24    2    1    2    0    0  0.15411891882E+02  0.96178660429E+02 -0.45864433765E+03  0.47533265532E+03  0.78093812935E+02 0.  0.
         25    2    1    2    0    0 -0.61766988787E+02 -0.23813403922E+03  0.62609469621E+02  0.28300246581E+03  0.12508984144E+03 0.  0.
         24    2    1    2    0    0  0.46355096905E+02  0.14195537879E+03  0.34984932380E+03  0.38877431606E+03  0.80316840615E+02 0.  0.
        -11    1    5    5    0    0  0.36459539310E+02  0.30355514972E+02  0.17329563293E+03  0.17967228970E+03  0.00000000000E+00 0.  1.
         12    1    5    5    0    0  0.98955575951E+01  0.11159986382E+03  0.17655369087E+03  0.20910202636E+03  0.00000000000E+00 0. -1.
         11    1    3    3    0    0  0.26830116768E+01 -0.55601391174E+01 -0.89195897009E+00  0.62377311153E+01  0.00000000000E+00 0. -1.
        -12    1    3    3    0    0  0.12728880205E+02  0.10173879955E+03 -0.45775237868E+03  0.46909492421E+03  0.00000000000E+00 0.  1.
          5    1    4    4  501    0 -0.25181468458E+02 -0.11669536244E+02 -0.24823044686E+02  0.37469192376E+02  0.41800000000E+01 0.  1.
         -5    1    4    4    0  501 -0.36585520329E+02 -0.22646450298E+03  0.87432514307E+02  0.24553327344E+03  0.41800000000E+01 0.  1.
</event>
<event>
11    1  0.8864208E-009  0.2085984E+03  0.7561462E-02  0.1048604E+00
         22   -1    0    0    0    0  0.00000000000E+00  0.00000000000E+00  0.25998849989E+03  0.25998849989E+03  0.00000000000E+00 0.  1.
         22   -1    0    0    0    0 -0.00000000000E+00 -0.00000000000E+00 -0.69197764866E+03  0.69197764866E+03  0.00000000000E+00 0.  1.
        -24    2    1    2    0    0 -0.54546104228E+02 -0.11989915594E+03 -0.23908900134E+03  0.28458270677E+03  0.80452975994E+02 0.  0.
         25    2    1    2    0    0  0.19119606563E+02  0.27216266520E+03 -0.32909748167E+03  0.44540948125E+03  0.12508548221E+03 0.  0.
         24    2    1    2    0    0  0.35426497665E+02 -0.15226350926E+03  0.13619733425E+03  0.22197396054E+03  0.79268608603E+02 0.  0.
        -11    1    5    5    0    0  0.57609333890E+01 -0.10387582265E+03  0.12749209133E+03  0.16455275214E+03  0.00000000000E+00 0.  1.
         12    1    5    5    0    0  0.29665564276E+02 -0.48387686608E+02  0.87052429191E+01  0.57421208394E+02  0.00000000000E+00 0. -1.
         13    1    3    3    0    0 -0.11898113826E+02  0.70022078478E+01 -0.56562587303E+02  0.58223039338E+02  0.00000000000E+00 0. -1.
        -14    1    3    3    0    0 -0.42647990403E+02 -0.12690136378E+03 -0.18252641404E+03  0.22635966743E+03  0.00000000000E+00 0.  1.
          5    1    4    4  501    0  0.63036684674E+02  0.12173861925E+03 -0.19905447517E+03  0.24173140367E+03  0.41800000000E+01 0.  1.
         -5    1    4    4    0  501 -0.43917078111E+02  0.15042404594E+03 -0.13004300650E+03  0.20367807758E+03  0.41800000000E+01 0.  1.
</event>
<event>
11    1  0.8864208E-009  0.2031345E+03  0.7561462E-02  0.1052329E+00
         22   -1    0    0    0    0  0.00000000000E+00  0.00000000000E+00  0.82264122923E+03  0.82264122923E+03  0.00000000000E+00 0. -1.
         22   -1    0    0    0    0 -0.00000000000E+00 -0.00000000000E+00 -0.77356015465E+03  0.77356015465E+03  0.00000000000E+00 0.  1.
         24    2    1    2    0    0 -0.49401423923E+02  0.16283498181E+03 -0.45628202176E+03  0.49348819267E+03  0.79884797943E+02 0.  0.
         25    2    1    2    0    0  0.16532469251E+03 -0.74365503101E+02 -0.24777655727E+03  0.33149854665E+03  0.12504232120E+03 0.  0.
        -24    2    1    2    0    0 -0.11592326859E+03 -0.88469478707E+02  0.75313965361E+03  0.77121464456E+03  0.79294623280E+02 0.  0.
        -13    1    3    3    0    0 -0.26182919177E+02  0.80762036301E+01 -0.11209940182E+03  0.11539950697E+03  0.00000000000E+00 0.  1.
         14    1    3    3    0    0 -0.23218504746E+02  0.15475877818E+03 -0.34418261994E+03  0.37808868570E+03  0.00000000000E+00 0. -1.
         11    1    5    5    0    0 -0.34670996704E+02 -0.70224259513E+02  0.45375154511E+03  0.46046062733E+03  0.00000000000E+00 0. -1.
        -12    1    5    5    0    0 -0.81252271886E+02 -0.18245219194E+02  0.29938810850E+03  0.31075401723E+03  0.00000000000E+00 0.  1.
          5    1    4    4  501    0  0.53394681875E+02  0.10184967487E+02 -0.10045256111E+02  0.55435594933E+02  0.41800000000E+01 0.  1.
         -5    1    4    4    0  501  0.11193001064E+03 -0.84550470588E+02 -0.23773130116E+03  0.27606295171E+03  0.41800000000E+01 0.  1.
</event>
<event>
11    1  0.8864208E-009  0.1774205E+03  0.7561462E-02  0.1071749E+00
         22   -1    0    0    0    0  0.00000000000E+00  0.00000000000E+00  0.74023913623E+02  0.74023913623E+02  0.00000000000E+00 0. -1.
         22   -1    0    0    0    0 -0.00000000000E+00 -0.00000000000E+00 -0.77433544972E+03  0.77433544972E+03  0.00000000000E+00 0. -1.
        -24    2    1    2    0    0 -0.95253378787E+02  0.74699723253E+02 -0.38133755732E+03  0.40587250175E+03  0.68270786054E+02 0.  0.
         25    2    1    2    0    0  0.13998394833E+03 -0.38532372970E+02 -0.27434679142E+03  0.33465319232E+03  0.12508536128E+03 0.  0.
         24    2    1    2    0    0 -0.44730569539E+02 -0.36167350283E+02 -0.44627187351E+02  0.10783366928E+03  0.79546296589E+02 0.  0.
        -11    1    5    5    0    0  0.28607118582E+01  0.22334345586E+02 -0.13454031393E+02  0.26230090084E+02  0.00000000000E+00 0.  1.
         12    1    5    5    0    0 -0.47591281397E+02 -0.58501695870E+02 -0.31173155958E+02  0.81603579193E+02  0.00000000000E+00 0. -1.
         13    1    3    3    0    0 -0.98637357574E+02  0.78783917213E+02 -0.31545123166E+03  0.33977303229E+03  0.00000000000E+00 0. -1.
        -14    1    3    3    0    0  0.33839787868E+01 -0.40841939595E+01 -0.65886325668E+02  0.66099469458E+02  0.00000000000E+00 0.  1.
          5    1    4    4  501    0  0.12952335989E+03 -0.76735745496E+02 -0.20066963758E+03  0.25089928506E+03  0.41800000000E+01 0. -1.
         -5    1    4    4    0  501  0.10460588434E+02  0.38203372527E+02 -0.73677153842E+02  0.83753907259E+02  0.41800000000E+01 0. -1.
</event>
<event>
11    1  0.8864208E-009  0.1920852E+03  0.7561462E-02  0.1060266E+00
         22   -1    0    0    0    0  0.00000000000E+00  0.00000000000E+00  0.15783693300E+03  0.15783693300E+03  0.00000000000E+00 0.  1.
         22   -1    0    0    0    0 -0.00000000000E+00 -0.00000000000E+00 -0.16977513928E+04  0.16977513928E+04  0.00000000000E+00 0.  1.
         24    2    1    2    0    0 -0.70530606329E+02 -0.50062914880E+02 -0.12574004191E+04  0.12629828298E+04  0.81172363823E+02 0.  0.
         25    2    1    2    0    0 -0.77160795586E+02  0.88113214129E+02 -0.36369049887E+03  0.40203946881E+03  0.12508888292E+03 0.  0.
        -24    2    1    2    0    0  0.14769140191E+03 -0.38050299249E+02  0.81176458154E+02  0.19056602718E+03  0.80406578603E+02 0.  0.
        -11    1    3    3    0    0 -0.25646350252E+02 -0.63182709556E+02 -0.58557072284E+03  0.58952765967E+03  0.00000000000E+00 0.  1.
         12    1    3    3    0    0 -0.44884256077E+02  0.13119794676E+02 -0.67182969621E+03  0.67345517012E+03  0.00000000000E+00 0. -1.
         11    1    5    5    0    0  0.38740031601E+02  0.16748139121E+02 -0.31072575185E+01  0.42319561219E+02  0.00000000000E+00 0. -1.
        -12    1    5    5    0    0  0.10895137031E+03 -0.54798438371E+02  0.84283715673E+02  0.14824646596E+03  0.00000000000E+00 0.  1.
          5    1    4    4  501    0  0.28556250067E+01 -0.28930619719E+02 -0.68922287458E+02  0.74919219563E+02  0.41800000000E+01 0.  1.
         -5    1    4    4    0  501 -0.80016420593E+02  0.11704383385E+03 -0.29476821141E+03  0.32712024924E+03  0.41800000000E+01 0.  1.
</event>
<event>
11    1  0.1217734E-008  0.1653496E+03  0.7561462E-02  0.1082151E+00
         22   -1    0    0    0    0  0.00000000000E+00  0.00000000000E+00  0.88792858855E+03  0.88792858855E+03  0.00000000000E+00 0. -1.
         22   -1    0    0    0    0 -0.00000000000E+00 -0.00000000000E+00 -0.23592476138E+03  0.23592476138E+03  0.00000000000E+00 0. -1.
        -24    2    1    2    0    0 -0.25854448990E+02 -0.30309618254E+02 -0.10179411779E+03  0.13446505371E+03  0.78305062176E+02 0.  0.
         25    2    1    2    0    0  0.13036525787E+03  0.51444309097E+02 -0.33489876104E+02  0.19081569986E+03  0.12508973624E+03 0.  0.
         24    2    1    2    0    0 -0.10451080888E+03 -0.21134690844E+02  0.78728782106E+03  0.79857259636E+03  0.80789195666E+02 0.  0.
        -13    1    5    5    0    0  0.12798568421E+02 -0.91170480228E+00  0.44741042304E+02  0.46544553126E+02  0.00000000000E+00 0.  1.
         14    1    5    5    0    0 -0.11730937731E+03 -0.20222986041E+02  0.74254677875E+03  0.75202804323E+03  0.00000000000E+00 0. -1.
         13    1    3    3    0    0 -0.43248022174E+02 -0.34380917702E+02 -0.10265755321E+03  0.11658049646E+03  0.00000000000E+00 0. -1.
        -14    1    3    3    0    0  0.17393573185E+02  0.40712994481E+01  0.86343542351E+00  0.17884557251E+02  0.00000000000E+00 0.  1.
          5    1    4    4  501    0 -0.13510753105E+02  0.34841374714E+02 -0.26029615394E+02  0.45732648283E+02  0.41800000000E+01 0. -1.
         -5    1    4    4    0  501  0.14387601098E+03  0.16602934383E+02 -0.74602607097E+01  0.14508305158E+03  0.41800000000E+01 0. -1.
</event>
<event>
11    1  0.8864208E-009  0.1296278E+03  0.7561462E-02  0.1119727E+00
         22   -1    0    0    0    0  0.00000000000E+00  0.00000000000E+00  0.50840329913E+03  0.50840329913E+03  0.00000000000E+00 0.  1.
         22   -1    0    0    0    0 -0.00000000000E+00 -0.00000000000E+00 -0.87260777222E+03  0.87260777222E+03  0.00000000000E+00 0.  1.
        -24    2    1    2    0    0 -0.12949332947E+02  0.22967495963E+02 -0.83239552934E+03  0.83680163031E+03  0.81605515320E+02 0.  0.
         25    2    1    2    0    0 -0.16094711856E+02  0.10500146664E+01  0.89740234519E+02  0.15475902039E+03  0.12504760061E+03 0.  0.
         24    2    1    2    0    0  0.29044044803E+02 -0.24017510629E+02  0.37845082174E+03  0.38945042065E+03  0.83822480983E+02 0.  0.
        -11    1    5    5    0    0  0.23927271742E+02 -0.64858392468E+01  0.36712387583E+03  0.36795994435E+03  0.00000000000E+00 0.  1.
         12    1    5    5    0    0  0.51167730613E+01 -0.17531671383E+02  0.11326945907E+02  0.21490476300E+02  0.00000000000E+00 0. -1.
         13    1    3    3    0    0 -0.42090279666E+02 -0.72789762692E+01 -0.35454832995E+03  0.35711215802E+03  0.00000000000E+00 0. -1.
        -14    1    3    3    0    0  0.29140946719E+02  0.30246472232E+02 -0.47784719939E+03  0.47968947229E+03  0.00000000000E+00 0.  1.
          5    1    4    4  501    0 -0.30916775159E+02 -0.17342786835E+02  0.11470875853E+03  0.12013405398E+03  0.41800000000E+01 0.  1.
         -5    1    4    4    0  501  0.14822063303E+02  0.18392801501E+02 -0.24968524010E+02  0.34624966409E+02  0.41800000000E+01 0.  1.
</event>
<event>
11    1  0.8864208E-009  0.1909950E+03  0.7561462E-02  0.1061081E+00
         22   -1    0    0    0    0  0.00000000000E+00  0.00000000000E+00  0.51435848580E+03  0.51435848580E+03  0.00000000000E+00 0. -1.
         22   -1    0    0    0    0 -0.00000000000E+00 -0.00000000000E+00 -0.78647777312E+03  0.78647777312E+03  0.00000000000E+00 0. -1.
         24    2    1    2    0    0  0.74232849693E+02 -0.12503929450E+03 -0.72911243095E+03  0.74795531459E+03  0.81773311771E+02 0.  0.
         25    2    1    2    0    0 -0.55340998193E+02  0.11072685041E+03  0.13913572863E+03  0.22434091087E+03  0.12508809627E+03 0.  0.
        -24    2    1    2    0    0 -0.18891851500E+02  0.14312444096E+02  0.31785741500E+03  0.32854003345E+03  0.79645898828E+02 0.  0.
        -13    1    3    3    0    0  0.12049687003E+02  0.94812618011E+01 -0.35203270216E+02  0.38397389444E+02  0.00000000000E+00 0.  1.
         14    1    3    3    0    0  0.62183162690E+02 -0.13452055630E+03 -0.69390916073E+03  0.70955792515E+03  0.00000000000E+00 0. -1.
         11    1    5    5    0    0  0.25877204466E+02  0.61777663312E+01  0.20707444348E+03  0.20877648252E+03  0.00000000000E+00 0. -1.
        -12    1    5    5    0    0 -0.44769055966E+02  0.81346777649E+01  0.11078297152E+03  0.11976355094E+03  0.00000000000E+00 0.  1.
          5    1    4    4  501    0 -0.45771598372E+02  0.67034439008E+00  0.94561821914E+02  0.10514228047E+03  0.41800000000E+01 0.  1.
         -5    1    4    4    0  501 -0.95693998208E+01  0.11005650602E+03  0.44573906715E+02  0.11919863040E+03  0.41800000000E+01 0.  1.
</event>
<event>
11    1  0.8864208E-009  0.1348385E+03  0.7561462E-02  0.1113463E+00
         22   -1    0    0    0    0  0.00000000000E+00  0.00000000000E+00  0.74172660932E+03  0.74172660932E+03  0.00000000000E+00 0. -1.
         22   -1    0    0    0    0 -0.00000000000E+00 -0.00000000000E+00 -0.22816043800E+03  0.22816043800E+03  0.00000000000E+00 0. -1.
         24    2    1    2    0    0 -0.28112404670E+02 -0.19430165634E+02 -0.12280673766E+03  0.15079284677E+03  0.80555255493E+02 0.  0.
         25    2    1    2    0    0  0.28969718010E+02  0.68793100048E+02 -0.26034137337E+02  0.14797664971E+03  0.12509027691E+03 0.  0.
        -24    2    1    2    0    0 -0.85731334047E+00 -0.49362934414E+02  0.66240704632E+03  0.67111755083E+03  0.95803119690E+02 0.  0.
        -13    1    3    3    0    0 -0.30198644260E+02 -0.18613840225E+02 -0.85187490299E+01  0.36482903504E+02  0.00000000000E+00 0.  1.
         14    1    3    3    0    0  0.20862395908E+01 -0.81632540955E+00 -0.11428798863E+03  0.11430994326E+03  0.00000000000E+00 0. -1.
         11    1    5    5    0    0  0.42227166937E+02 -0.47147298896E+02  0.34050895381E+03  0.34634137645E+03  0.00000000000E+00 0. -1.
        -12    1    5    5    0    0 -0.43084480278E+02 -0.22156355175E+01  0.32189809251E+03  0.32477617438E+03  0.00000000000E+00 0.  1.
          5    1    4    4  501    0  0.46056833585E+02  0.46100990461E+02 -0.69832333881E+02  0.95606278542E+02  0.41800000000E+01 0. -1.
         -5    1    4    4    0  501 -0.17087115575E+02  0.22692109587E+02  0.43798196544E+02  0.52370371172E+02  0.41800000000E+01 0. -1.
</event>
<event>
11    1  0.8864208E-009  0.2302989E+03  0.7561462E-02  0.1034951E+00
         22   -1    0    0    0    0  0.00000000000E+00  0.00000000000E+00  0.24168280454E+03  0.24168280454E+03  0.00000000000E+00 0.  1.
         22   -1    0    0    0    0 -0.00000000000E+00 -0.00000000000E+00 -0.19448539336E+04  0.19448539336E+04  0.00000000000E+00 0. -1.
        -24    2    1    2    0    0  0.31146375848E+02  0.14109106098E+02 -0.13482825444E+04  0.13510993389E+04  0.80214964310E+02 0.  0.
         25    2    1    2    0    0  0.15853965236E+03  0.36291648353E+02 -0.52458440424E+03  0.56328333125E+03  0.12508960382E+03 0.  0.
         24    2    1    2    0    0 -0.18968602820E+03 -0.50400754451E+02  0.16969581959E+03  0.27215406796E+03  0.82159236714E+02 0.  0.
        -13    1    5    5    0    0 -0.18297891687E+03 -0.44941678634E+02  0.17869121295E+03  0.25967592896E+03  0.00000000000E+00 0.  1.
         14    1    5    5    0    0 -0.67071113315E+01 -0.54590758169E+01 -0.89953933591E+01  0.12478138999E+02  0.00000000000E+00 0. -1.
         11    1    3    3    0    0  0.11088675099E+02  0.15974160222E+02 -0.12735791471E+04  0.12737275911E+04  0.00000000000E+00 0. -1.
        -12    1    3    3    0    0  0.20057700748E+02 -0.18650541238E+01 -0.74703397278E+02  0.77371747757E+02  0.00000000000E+00 0.  1.
          5    1    4    4  501    0  0.32671353093E+02  0.51107770945E+02 -0.77163464577E+02  0.98239982845E+02  0.41800000000E+01 0.  1.
         -5    1    4    4    0  501  0.12586829926E+03 -0.14816122592E+02 -0.44742093966E+03  0.46504334841E+03  0.41800000000E+01 0.  1.
</event>
<event>
11    1  0.8864208E-009  0.1764505E+03  0.7561462E-02  0.1072551E+00
         22   -1    0    0    0    0  0.00000000000E+00  0.00000000000E+00  0.45302911524E+03  0.45302911524E+03  0.00000000000E+00 0.  1.
         22   -1    0    0    0    0 -0.00000000000E+00 -0.00000000000E+00 -0.22632872166E+03  0.22632872166E+03  0.00000000000E+00 0.  1.
        -24    2    1    2    0    0 -0.71044587714E+01 -0.12144401839E+03 -0.11107089725E+03  0.18048577742E+03  0.73751262332E+02 0.  0.
         25    2    1    2    0    0 -0.18337568704E+02  0.13431619270E+03  0.39711859757E+02  0.18868265305E+03  0.12508799187E+03 0.  0.
         24    2    1    2    0    0  0.25442027475E+02 -0.12872174304E+02  0.29805943107E+03  0.31018940644E+03  0.81025019496E+02 0.  0.
        -11    1    5    5    0    0  0.60249354461E+01  0.25048212093E+02  0.21784946435E+03  0.21936750419E+03  0.00000000000E+00 0.  1.
         12    1    5    5    0    0  0.19417092029E+02 -0.37920386396E+02  0.80209966719E+02  0.90821902251E+02  0.00000000000E+00 0. -1.
         13    1    3    3    0    0  0.28924997843E+02 -0.71521101118E+02 -0.41562695393E+02  0.87632077766E+02  0.00000000000E+00 0. -1.
        -14    1    3    3    0    0 -0.36029456614E+02 -0.49922917277E+02 -0.69508201859E+02  0.92853699652E+02  0.00000000000E+00 0.  1.
          5    1    4    4  501    0  0.13416495041E+02  0.28896206200E+02 -0.41009899468E+02  0.52098726724E+02  0.41800000000E+01 0.  1.
         -5    1    4    4    0  501 -0.31754063745E+02  0.10541998650E+03  0.80721759225E+02  0.13658392632E+03  0.41800000000E+01 0.  1.
</event>
<event>
11    1  0.8864208E-009  0.1705305E+03  0.7561462E-02  0.1077571E+00
         22   -1    0    0    0    0  0.00000000000E+00  0.00000000000E+00  0.10676581831E+03  0.10676581831E+03  0.00000000000E+00 0.  1.
         22   -1    0    0    0    0 -0.00000000000E+00 -0.00000000000E+00 -0.52649924958E+03  0.52649924958E+03  0.00000000000E+00 0.  1.
         24    2    1    2    0    0  0.94444222426E+02  0.90221018502E+02 -0.10915834557E+03  0.18869361099E+03  0.81425985361E+02 0.  0.
         25    2    1    2    0    0 -0.12484896421E+03  0.20686952732E+02 -0.17767416816E+03  0.25145723913E+03  0.12508964467E+03 0.  0.
        -24    2    1    2    0    0  0.30404741786E+02 -0.11090797123E+03 -0.13290091754E+03  0.19311421777E+03  0.80033872921E+02 0.  0.
        -11    1    3    3    0    0  0.75024626728E+02  0.96106611901E+02 -0.60781834947E+02  0.13623364829E+03  0.00000000000E+00 0.  1.
         12    1    3    3    0    0  0.19419595698E+02 -0.58855933992E+01 -0.48376510618E+02  0.52459962699E+02  0.00000000000E+00 0. -1.
         11    1    5    5    0    0  0.27897182178E+02 -0.40445272222E+02 -0.81323179925E+01  0.49801680840E+02  0.00000000000E+00 0. -1.
        -12    1    5    5    0    0  0.25075596078E+01 -0.70462699011E+02 -0.12476859955E+03  0.14331253693E+03  0.00000000000E+00 0.  1.
          5    1    4    4  501    0 -0.12082160119E+03 -0.31623950198E+02 -0.11771331754E+03  0.17167361786E+03  0.41800000000E+01 0. -1.
         -5    1    4    4    0  501 -0.40273630220E+01  0.52310902929E+02 -0.59960850612E+02  0.79783621279E+02  0.41800000000E+01 0. -1.
</event>
<event>
11    1  0.2222520E-008  0.1837317E+03  0.7561462E-02  0.1066664E+00
         22   -1    0    0    0    0  0.00000000000E+00  0.00000000000E+00  0.67037539923E+03  0.67037539923E+03  0.00000000000E+00 0. -1.
         22   -1    0    0    0    0 -0.00000000000E+00 -0.00000000000E+00 -0.41987685599E+03  0.41987685599E+03  0.00000000000E+00 0. -1.
         24    2    1    2    0    0  0.24423711248E+01  0.34947562324E+02 -0.18252280644E+03  0.20185414898E+03  0.78760556758E+02 0.  0.
         25    2    1    2    0    0 -0.51688069089E+02 -0.15863901589E+03 -0.16797617986E+03  0.26777098388E+03  0.12508920400E+03 0.  0.
        -24    2    1    2    0    0  0.49245697964E+02  0.12369145356E+03  0.60099752954E+03  0.62062712236E+03  0.79090328400E+02 0.  0.
        -11    1    3    3    0    0 -0.27531102530E+02 -0.10256425279E+02 -0.42253672730E+02  0.51463858437E+02  0.00000000000E+00 0.  1.
         12    1    3    3    0    0  0.29973473655E+02  0.45203987603E+02 -0.14026913371E+03  0.15039029054E+03  0.00000000000E+00 0. -1.
         13    1    5    5    0    0  0.31848845225E+02  0.13184669771E+03  0.52528328993E+03  0.54251307387E+03  0.00000000000E+00 0. -1.
        -14    1    5    5    0    0  0.17396852739E+02 -0.81552441473E+01  0.75714239606E+02  0.78114048490E+02  0.00000000000E+00 0.  1.
          5    1    4    4  501    0 -0.22775702330E+02 -0.13659428322E+03 -0.55079157026E+02  0.14909029735E+03  0.41800000000E+01 0. -1.
         -5    1    4    4    0  501 -0.28912366759E+02 -0.22044732667E+02 -0.11289702283E+03  0.11868068653E+03  0.41800000000E+01 0. -1.
</event>
<event>
11    1  0.8864208E-009  0.2073271E+03  0.7561462E-02  0.1049460E+00
         22   -1    0    0    0    0  0.00000000000E+00  0.00000000000E+00  0.17736422459E+04  0.17736422459E+04  0.00000000000E+00 0. -1.
         22   -1    0    0    0    0 -0.00000000000E+00 -0.00000000000E+00 -0.47863466585E+03  0.47863466585E+03  0.00000000000E+00 0. -1.
        -24    2    1    2    0    0  0.38604122867E+02 -0.42035315472E+02 -0.43648655150E+03  0.44829207653E+03  0.84782251645E+02 0.  0.
         25    2    1    2    0    0  0.10843739789E+03  0.12202283754E+03  0.31985326736E+03  0.38026370153E+03  0.12508448313E+03 0.  0.
         24    2    1    2    0    0 -0.14704152076E+03 -0.79987522069E+02  0.14116408642E+04  0.14237211337E+04  0.78947606408E+02 0.  0.
        -11    1    5    5    0    0 -0.23949074152E+02 -0.20937199649E+02  0.58651925899E+03  0.58738127791E+03  0.00000000000E+00 0.  1.
         12    1    5    5    0    0 -0.12309244661E+03 -0.59050322421E+02  0.82512160517E+03  0.83633985575E+03  0.00000000000E+00 0. -1.
         13    1    3    3    0    0  0.23219200837E+02 -0.17826516149E+02 -0.40357430854E+03  0.40463457401E+03  0.00000000000E+00 0. -1.
        -14    1    3    3    0    0  0.15384922029E+02 -0.24208799323E+02 -0.32912242957E+02  0.43657502528E+02  0.00000000000E+00 0.  1.
          5    1    4    4  501    0 -0.14820658218E+02 -0.13932747366E+02  0.47345236824E+02  0.51699296021E+02  0.41800000000E+01 0. -1.
         -5    1    4    4    0  501  0.12325805611E+03  0.13595558491E+03  0.27250803054E+03  0.32856440551E+03  0.41800000000E+01 0. -1.
</event>
<event>
11    1  0.8864208E-009  0.1395692E+03  0.7561462E-02  0.1108040E+00
         22   -1    0    0    0    0  0.00000000000E+00  0.00000000000E+00  0.26216085851E+03  0.26216085851E+03  0.00000000000E+00 0.  1.
         22   -1    0    0    0    0 -0.00000000000E+00 -0.00000000000E+00 -0.76084842054E+03  0.76084842054E+03  0.00000000000E+00 0.  1.
        -24    2    1    2    0    0  0.33516783142E+02 -0.24344070360E+02 -0.60644956467E+03  0.61460546720E+03  0.90789852474E+02 0.  0.
         25    2    1    2    0    0 -0.11205721144E+02  0.81143245229E+02 -0.98378705962E+02  0.17898370208E+03  0.12508797460E+03 0.  0.
         24    2    1    2    0    0 -0.22311061997E+02 -0.56799174870E+02  0.20614070860E+03  0.22942010977E+03  0.80097848093E+02 0.  0.
        -13    1    5    5    0    0 -0.17882900606E+02 -0.77025548646E+02  0.17485080099E+03  0.19189980689E+03  0.00000000000E+00 0.  1.
         14    1    5    5    0    0 -0.44281613915E+01  0.20226373777E+02  0.31289907614E+02  0.37520302877E+02  0.00000000000E+00 0. -1.
         13    1    3    3    0    0  0.48905355174E+02 -0.21668720690E+01 -0.15954157921E+03  0.16688302669E+03  0.00000000000E+00 0. -1.
        -14    1    3    3    0    0 -0.15388572032E+02 -0.22177198291E+02 -0.44690798546E+03  0.44772244052E+03  0.00000000000E+00 0.  1.
          5    1    4    4  501    0 -0.56598447877E+02  0.31875819533E+02 -0.90391218736E+02  0.11138894468E+03  0.41800000000E+01 0.  1.
         -5    1    4    4    0  501  0.45392726733E+02  0.49267425697E+02 -0.79874872261E+01  0.67594757394E+02  0.41800000000E+01 0.  1.
</event>
<event>
11    1  0.8864208E-009  0.1592335E+03  0.7561462E-02  0.1087800E+00
         22   -1    0    0    0    0  0.00000000000E+00  0.00000000000E+00  0.22758188774E+03  0.22758188774E+03  0.00000000000E+00 0. -1.
         22   -1    0    0    0    0 -0.00000000000E+00 -0.00000000000E+00 -0.98557928929E+03  0.98557928929E+03  0.00000000000E+00 0.  1.
        -24    2    1    2    0    0  0.96452035279E+02  0.45462845901E+02 -0.72491734245E+03  0.73714219207E+03  0.80644854005E+02 0.  0.
         25    2    1    2    0    0 -0.65364178057E+02 -0.26101790723E+02 -0.22051188688E+03  0.26311172928E+03  0.12509400695E+03 0.  0.
         24    2    1    2    0    0 -0.31087857222E+02 -0.19361055178E+02  0.18743182778E+03  0.21290725569E+03  0.94114314180E+02 0.  0.
        -11    1    5    5    0    0 -0.64241065010E+01  0.37984500097E+02  0.74484921712E+02  0.83857587340E+02  0.00000000000E+00 0.  1.
         12    1    5    5    0    0 -0.24663750721E+02 -0.57345555275E+02  0.11294690607E+03  0.12904966835E+03  0.00000000000E+00 0. -1.
         13    1    3    3    0    0 -0.69783264339E+01  0.23257623700E+02 -0.79923560137E+02  0.83530770169E+02  0.00000000000E+00 0. -1.
        -14    1    3    3    0    0  0.10343036171E+03  0.22205222201E+02 -0.64499378231E+03  0.65361142190E+03  0.00000000000E+00 0.  1.
          5    1    4    4  501    0 -0.10001451493E+03 -0.27154462317E+02 -0.13139847368E+03  0.16740161082E+03  0.41800000000E+01 0.  1.
         -5    1    4    4    0  501  0.34650336868E+02  0.10526715941E+01 -0.89113413204E+02  0.95710118459E+02  0.41800000000E+01 0.  1.
</event>
<event>
11    1  0.8864208E-009  0.1329843E+03  0.7561462E-02  0.1115656E+00
         22   -1    0    0    0    0  0.00000000000E+00  0.00000000000E+00  0.50791688305E+03  0.50791688305E+03  0.00000000000E+00 0.  1.
         22   -1    0    0    0    0 -0.00000000000E+00 -0.00000000000E+00 -0.12382832693E+04  0.12382832693E+04  0.00000000000E+00 0. -1.
        -24    2    1    2    0    0  0.39720689967E+02  0.21003039772E+02 -0.12028180534E+04  0.12069448399E+04  0.89026490510E+02 0.  0.
         25    2    1    2    0    0 -0.55121603878E+02 -0.25685860730E+02  0.14141570233E+03  0.19835681735E+03  0.12509544944E+03 0.  0.
         24    2    1    2    0    0  0.15400913911E+02  0.46828209578E+01  0.33103596485E+03  0.34089849511E+03  0.79798853294E+02 0.  0.
        -13    1    5    5    0    0  0.44642209801E+02  0.18824851938E+02  0.21583662450E+03  0.22120748275E+03  0.00000000000E+00 0.  1.
         14    1    5    5    0    0 -0.29241295890E+02 -0.14142030981E+02  0.11519934035E+03  0.11969101237E+03  0.00000000000E+00 0. -1.
         13    1    3    3    0    0  0.55709746897E+02  0.35180602300E+02 -0.10977562132E+04  0.10997317647E+04  0.00000000000E+00 0. -1.
        -14    1    3    3    0    0 -0.15989056930E+02 -0.14177562529E+02 -0.10506184026E+03  0.10721307523E+03  0.00000000000E+00 0.  1.
          5    1    4    4  501    0  0.12660726940E+02 -0.38718075852E+02  0.11870980226E+03  0.12557417313E+03  0.41800000000E+01 0. -1.
         -5    1    4    4    0  501 -0.67782330818E+02  0.13032215122E+02  0.22705900065E+02  0.72782644221E+02  0.41800000000E+01 0. -1.
</event>
<event>
11    1  0.8864208E-009  0.1980246E+03  0.7561462E-02  0.1055929E+00
         22   -1    0    0    0    0  0.00000000000E+00  0.00000000000E+00  0.31242699292E+03  0.31242699292E+03  0.00000000000E+00 0. -1.
         22   -1    0    0    0    0 -0.00000000000E+00 -0.00000000000E+00 -0.29336827487E+03  0.29336827487E+03  0.00000000000E+00 0.  1.
         24    2    1    2    0    0 -0.39336205678E+02 -0.13899628263E+03 -0.12486662828E+03  0.20670865214E+03  0.79180100720E+02 0.  0.
         25    2    1    2    0    0  0.68142264895E+02  0.16290733960E+03 -0.16274734097E+02  0.21701245228E+03  0.12508943967E+03 0.  0.
        -24    2    1    2    0    0 -0.28806059216E+02 -0.23911056965E+02  0.16020008043E+03  0.18207416336E+03  0.78009021932E+02 0.  0.
        -11    1    3    3    0    0 -0.46593890535E+02 -0.14668702387E+03 -0.11947250596E+03  0.19483776145E+03  0.00000000000E+00 0.  1.
         12    1    3    3    0    0  0.72576848564E+01  0.76907412356E+01 -0.53941223127E+01  0.11870890689E+02  0.00000000000E+00 0. -1.
         11    1    5    5    0    0 -0.84544457634E+01 -0.21229378577E+02  0.15992040019E+03  0.16154472620E+03  0.00000000000E+00 0. -1.
        -12    1    5    5    0    0 -0.20351613453E+02 -0.26816783877E+01  0.27968024110E+00  0.20529437161E+02  0.00000000000E+00 0.  1.
          5    1    4    4  501    0  0.42623411218E+02  0.96474241481E+02 -0.70940360666E+02  0.12717720560E+03  0.41800000000E+01 0. -1.
         -5    1    4    4    0  501  0.25518853677E+02  0.66433098115E+02  0.54665626569E+02  0.89835246682E+02  0.41800000000E+01 0. -1.
</event>
<event>
11    1  0.8864208E-009  0.1289523E+03  0.7561462E-02  0.1120563E+00
         22   -1    0    0    0    0  0.00000000000E+00  0.00000000000E+00  0.10219692422E+04  0.10219692422E+04  0.00000000000E+00 0.  1.
         22   -1    0    0    0    0 -0.00000000000E+00 -0.00000000000E+00 -0.29411837401E+03  0.29411837401E+03  0.00000000000E+00 0. -1.
         24    2    1    2    0    0  0.31278549762E+02  0.55094015121E+01 -0.27055274134E+03  0.28472402186E+03  0.82826816908E+02 0.  0.
         25    2    1    2    0    0 -0.14873119817E+02  0.51164482333E+01  0.26888724402E+03  0.29697717037E+03  0.12509077498E+03 0.  0.
        -24    2    1    2    0    0 -0.16405429945E+02 -0.10625849745E+02  0.72951636546E+03  0.73438642394E+03  0.82141617830E+02 0.  0.
        -11    1    3    3    0    0  0.22519293591E+02  0.36661525971E+02 -0.74608108672E+02  0.86125234106E+02  0.00000000000E+00 0.  1.
         12    1    3    3    0    0  0.87592561714E+01 -0.31152124459E+02 -0.19594463267E+03  0.19859878775E+03  0.00000000000E+00 0. -1.
         11    1    5    5    0    0 -0.45442102245E+02  0.88174226028E+01  0.31268131954E+03  0.31608913172E+03  0.00000000000E+00 0. -1.
        -12    1    5    5    0    0  0.29036672300E+02 -0.19443272348E+02  0.41683504592E+03  0.41829729222E+03  0.00000000000E+00 0.  1.
          5    1    4    4  501    0  0.47363546377E+02  0.32869977953E+02  0.12332643034E+03  0.13620066739E+03  0.41800000000E+01 0. -1.
         -5    1    4    4    0  501 -0.62236666194E+02 -0.27753529720E+02  0.14556081368E+03  0.16077650298E+03  0.41800000000E+01 0. -1.
</event>
<event>
11    1  0.8864208E-009  0.1475662E+03  0.7561462E-02  0.1099392E+00
         22   -1    0    0    0    0  0.00000000000E+00  0.00000000000E+00  0.75432754316E+03  0.75432754316E+03  0.00000000000E+00 0. -1.
         22   -1    0    0    0    0 -0.00000000000E+00 -0.00000000000E+00 -0.26994143116E+03  0.26994143116E+03  0.00000000000E+00 0.  1.
         24    2    1    2    0    0  0.22225031961E+02 -0.60185287695E+02 -0.23451482154E+03  0.25679498823E+03  0.82645287564E+02 0.  0.
         25    2    1    2    0    0 -0.92067655084E+02  0.40764082611E+02  0.41064914496E+03  0.44092963983E+03  0.12509221990E+03 0.  0.
        -24    2    1    2    0    0  0.69842623123E+02  0.19421205084E+02  0.30825178858E+03  0.32654434626E+03  0.79729979934E+02 0.  0.
        -13    1    3    3    0    0  0.16963046704E+02  0.17738641712E+01 -0.15459965331E+03  0.15553759787E+03  0.00000000000E+00 0.  1.
         14    1    3    3    0    0  0.52619852570E+01 -0.61959151866E+02 -0.79915168228E+02  0.10125739036E+03  0.00000000000E+00 0. -1.
         13    1    5    5    0    0  0.82418026580E+02  0.11605472909E+02  0.19080743830E+03  0.20817035480E+03  0.00000000000E+00 0. -1.
        -14    1    5    5    0    0 -0.12575403457E+02  0.78157321749E+01  0.11744435029E+03  0.11837399147E+03  0.00000000000E+00 0.  1.
          5    1    4    4  501    0 -0.92193884587E+02  0.18929440748E+02  0.40777114141E+03  0.41851261898E+03  0.41800000000E+01 0.  1.
         -5    1    4    4    0  501  0.12622950254E+00  0.21834641862E+02  0.28780035505E+01  0.22417020845E+02  0.41800000000E+01 0.  1.
</event>
<event>
11    1  0.8864208E-009  0.1969717E+03  0.7561462E-02  0.1056686E+00
         22   -1    0    0    0    0  0.00000000000E+00  0.00000000000E+00  0.10430834575E+04  0.10430834575E+04  0.00000000000E+00 0. -1.
         22   -1    0    0    0    0 -0.00000000000E+00 -0.00000000000E+00 -0.38762805571E+03  0.38762805571E+03  0.00000000000E+00 0. -1.
         24    2    1    2    0    0  0.51092983175E+02 -0.22053847410E+02 -0.34149794400E+03  0.35493823514E+03  0.79141897205E+02 0.  0.
         25    2    1    2    0    0  0.96398913033E+02 -0.57293518762E+02  0.21901416356E+03  0.27602788161E+03  0.12509552294E+03 0.  0.
        -24    2    1    2    0    0 -0.14749189621E+03  0.79347366172E+02  0.77793918226E+03  0.79974539649E+03  0.79708619063E+02 0.  0.
        -11    1    3    3    0    0 -0.17400345456E+02  0.20195614531E+01 -0.13327859975E+03  0.13442483328E+03  0.00000000000E+00 0.  1.
         12    1    3    3    0    0  0.68493328631E+02 -0.24073408863E+02 -0.20821934425E+03  0.22051340186E+03  0.00000000000E+00 0. -1.
         13    1    5    5    0    0 -0.83589702868E+02  0.48368454539E+02  0.60710962250E+03  0.61474290525E+03  0.00000000000E+00 0. -1.
        -14    1    5    5    0    0 -0.63902193341E+02  0.30978911633E+02  0.17082955976E+03  0.18500249124E+03  0.00000000000E+00 0.  1.
          5    1    4    4  501    0  0.12247961885E+03 -0.33211824536E+02  0.13825950681E+03  0.18771639764E+03  0.41800000000E+01 0.  1.
         -5    1    4    4    0  501 -0.26080705813E+02 -0.24081694226E+02  0.80754656757E+02  0.88311483967E+02  0.41800000000E+01 0.  1.
</event>
<event>
11    1  0.8864208E-009  0.1425331E+03  0.7561462E-02  0.1104762E+00
         22   -1    0    0    0    0  0.00000000000E+00  0.00000000000E+00  0.27217872652E+04  0.27217872652E+04  0.00000000000E+00 0. -1.
         22   -1    0    0    0    0 -0.00000000000E+00 -0.00000000000E+00 -0.14367240049E+03  0.14367240049E+03  0.00000000000E+00 0. -1.
         24    2    1    2    0    0  0.63836524890E+01  0.69088755384E+02 -0.11543671625E+03  0.15698097815E+03  0.80643567014E+02 0.  0.
         25    2    1    2    0    0  0.10447877287E+02 -0.36096874231E+02  0.64699902887E+03  0.66005099010E+03  0.12508966268E+03 0.  0.
        -24    2    1    2    0    0 -0.16831529776E+02 -0.32991881153E+02  0.20465525521E+04  0.20484276974E+04  0.79416109926E+02 0.  0.
        -13    1    3    3    0    0 -0.12550800311E+02 -0.14595073925E+02 -0.31734266496E+02  0.37116067159E+02  0.00000000000E+00 0.  1.
         14    1    3    3    0    0  0.18934452800E+02  0.83683829309E+02 -0.83702449756E+02  0.11986491099E+03  0.00000000000E+00 0. -1.
         13    1    5    5    0    0 -0.30560834277E+02 -0.23440880841E+02  0.19537844193E+04  0.19541640148E+04  0.00000000000E+00 0. -1.
        -14    1    5    5    0    0  0.13729304501E+02 -0.95510003118E+01  0.92768132791E+02  0.94263682671E+02  0.00000000000E+00 0.  1.
          5    1    4    4  501    0 -0.32948862609E+02 -0.64505319331E+02  0.46980008752E+03  0.47536949671E+03  0.41800000000E+01 0. -1.
         -5    1    4    4    0  501  0.43396739896E+02  0.28408445100E+02  0.17719894135E+03  0.18468149339E+03  0.41800000000E+01 0. -1.
</event>
<event>
11    1  0.9993331E-009  0.1487317E+03  0.7561462E-02  0.1098182E+00
         22   -1    0    0    0    0  0.00000000000E+00  0.00000000000E+00  0.12630413456E+03  0.12630413456E+03  0.00000000000E+00 0. -1.
         22   -1    0    0    0    0 -0.00000000000E+00 -0.00000000000E+00 -0.21692263580E+04  0.21692263580E+04  0.00000000000E+00 0. -1.
        -24    2    1    2    0    0 -0.13429457450E+02 -0.55466163070E+02 -0.94366845984E+03  0.94877407074E+03  0.80032678530E+02 0.  0.
         25    2    1    2    0    0 -0.48086054515E+02  0.10645776974E+03 -0.11902401444E+04  0.12024829170E+04  0.12509212174E+03 0.  0.
         24    2    1    2    0    0  0.61515511965E+02 -0.50991606670E+02  0.90986380804E+02  0.14427350484E+03  0.78434817161E+02 0.  0.
        -13    1    5    5    0    0 -0.17695717559E+02 -0.11700386900E+02  0.30466254363E+02  0.37124521929E+02  0.00000000000E+00 0.  1.
         14    1    5    5    0    0  0.79211229525E+02 -0.39291219771E+02  0.60520126441E+02  0.10714898291E+03  0.00000000000E+00 0. -1.
         13    1    3    3    0    0  0.27236015049E+02 -0.34232897968E+02 -0.65732469076E+03  0.65877874958E+03  0.00000000000E+00 0. -1.
        -14    1    3    3    0    0 -0.40665472498E+02 -0.21233265102E+02 -0.28634376908E+03  0.28999532116E+03  0.00000000000E+00 0.  1.
          5    1    4    4  501    0 -0.82977900683E+02  0.10544338187E+03 -0.86609998196E+03  0.87644183489E+03  0.41800000000E+01 0.  1.
         -5    1    4    4    0  501  0.34891846168E+02  0.10143878728E+01 -0.32414016248E+03  0.32604108214E+03  0.41800000000E+01 0.  1.
</event>
<event>
11    1  0.8864208E-009  0.1351729E+03  0.7561462E-02  0.1113072E+00
         22   -1    0    0    0    0  0.00000000000E+00  0.00000000000E+00  0.13554172081E+03  0.13554172081E+03  0.00000000000E+00 0.  1.
         22   -1    0    0    0    0 -0.00000000000E+00 -0.00000000000E+00 -0.24812584916E+04  0.24812584916E+04  0.00000000000E+00 0. -1.
         24    2    1    2    0    0  0.18496608452E+02 -0.34113356624E+02 -0.17475575434E+04  0.17496294761E+04  0.75763385220E+02 0.  0.
         25    2    1    2    0    0 -0.58560191158E+02  0.64643066099E+02 -0.70671272433E+03  0.72297845836E+03  0.12508778732E+03 0.  0.
        -24    2    1    2    0    0  0.40063582706E+02 -0.30529709475E+02  0.10855349698E+03  0.14419227790E+03  0.80438780946E+02 0.  0.
        -11    1    3    3    0    0 -0.29263869459E+02 -0.13035437005E+02 -0.54683568750E+03  0.54777327956E+03  0.00000000000E+00 0.  1.
         12    1    3    3    0    0  0.47760477911E+02 -0.21077919619E+02 -0.12007218559E+04  0.12018561966E+04  0.00000000000E+00 0. -1.
         13    1    5    5    0    0  0.75529860289E+01  0.19711707348E+02  0.10259755781E+01  0.21134134248E+02  0.00000000000E+00 0. -1.
        -14    1    5    5    0    0  0.32510596677E+02 -0.50241416823E+02  0.10752752141E+03  0.12305814366E+03  0.00000000000E+00 0.  1.
          5    1    4    4  501    0 -0.20302754008E+02 -0.23639643591E+02 -0.48779258299E+02  0.58033809194E+02  0.41800000000E+01 0. -1.
         -5    1    4    4    0  501 -0.38257437150E+02  0.88282709690E+02 -0.65793346604E+03  0.66494464917E+03  0.41800000000E+01 0. -1.
</event>
<event>
11    1  0.8864208E-009  0.1704849E+03  0.7561462E-02  0.1077610E+00
         22   -1    0    0    0    0  0.00000000000E+00  0.00000000000E+00  0.58853553580E+03  0.58853553580E+03  0.00000000000E+00 0. -1.
         22   -1    0    0    0    0 -0.00000000000E+00 -0.00000000000E+00 -0.23365019461E+03  0.23365019461E+03  0.00000000000E+00 0.  1.
        -24    2    1    2    0    0 -0.13385796273E+02  0.19865569467E+02 -0.11986174270E+03  0.14939953359E+03  0.85904382211E+02 0.  0.
         25    2    1    2    0    0  0.67050766849E+02 -0.11971740702E+03  0.85405906790E+01  0.18586056659E+03  0.12507256152E+03 0.  0.
         24    2    1    2    0    0 -0.53664970577E+02  0.99851837552E+02  0.46620649321E+03  0.48692563022E+03  0.83052733416E+02 0.  0.
        -11    1    5    5    0    0 -0.45375923284E+02  0.27927370656E+02  0.96837871848E+02  0.11052821300E+03  0.00000000000E+00 0.  1.
         12    1    5    5    0    0 -0.82890472928E+01  0.71924466896E+02  0.36936862136E+03  0.37639741722E+03  0.00000000000E+00 0. -1.
         13    1    3    3    0    0 -0.48511927210E+02  0.19440121575E+02 -0.56595675642E+02  0.77035030407E+02  0.00000000000E+00 0. -1.
        -14    1    3    3    0    0  0.35126130937E+02  0.42544789168E+00 -0.63266067058E+02  0.72364503187E+02  0.00000000000E+00 0.  1.
          5    1    4    4  501    0  0.90865703020E+02 -0.11026868204E+03  0.36679808731E+02  0.14757587538E+03  0.41800000000E+01 0. -1.
         -5    1    4    4    0  501 -0.23814936171E+02 -0.94487249745E+01 -0.28139218052E+02  0.38284691210E+02  0.41800000000E+01 0. -1.
</event>
<event>
11    1  0.8864208E-009  0.1445908E+03  0.7561462E-02  0.1102538E+00
         22   -1    0    0    0    0  0.00000000000E+00  0.00000000000E+00  0.13037737204E+04  0.13037737204E+04  0.00000000000E+00 0. -1.
         22   -1    0    0    0    0 -0.00000000000E+00 -0.00000000000E+00 -0.37107136241E+03  0.37107136241E+03  0.00000000000E+00 0.  1.
         24    2    1    2    0    0  0.30392129278E+02  0.64608129917E+02 -0.33288954664E+03  0.34985861044E+03  0.80546291442E+02 0.  0.
         25    2    1    2    0    0 -0.62090702099E+02 -0.85713836366E+02  0.21191805137E+03  0.26787931056E+03  0.12509175631E+03 0.  0.
        -24    2    1    2    0    0  0.31698572821E+02  0.21105706449E+02  0.10536738533E+04  0.10571071618E+04  0.76136142130E+02 0.  0.
        -13    1    3    3    0    0 -0.52554642766E+01  0.64104709516E+02 -0.14512882684E+03  0.15874322054E+03  0.00000000000E+00 0.  1.
         14    1    3    3    0    0  0.35647593554E+02  0.50342040107E+00 -0.18776071980E+03  0.19111538991E+03  0.00000000000E+00 0. -1.
         13    1    5    5    0    0  0.18283323270E+02 -0.10035587077E+02  0.87475523599E+03  0.87500383760E+03  0.00000000000E+00 0. -1.
        -14    1    5    5    0    0  0.13415249551E+02  0.31141293526E+02  0.17891861730E+03  0.18210332424E+03  0.00000000000E+00 0.  1.
          5    1    4    4  501    0 -0.13163647158E+02  0.11167145706E+02  0.13160027234E+03  0.13279341411E+03  0.41800000000E+01 0.  1.
         -5    1    4    4    0  501 -0.48927054940E+02 -0.96880982072E+02  0.80317779026E+02  0.13508589645E+03  0.41800000000E+01 0.  1.
</event>
<event>
11    1  0.8864208E-009  0.1646085E+03  0.7561462E-02  0.1082821E+00
         22   -1    0    0    0    0  0.00000000000E+00  0.00000000000E+00  0.48309948465E+03  0.48309948465E+03  0.00000000000E+00 0. -1.
         22   -1    0    0    0    0 -0.00000000000E+00 -0.00000000000E+00 -0.52883904766E+03  0.52883904766E+03  0.00000000000E+00 0.  1.
        -24    2    1    2    0    0 -0.97619395429E+02  0.40705961230E+02 -0.44563147749E+03  0.47061834050E+03  0.10820206576E+03 0.  0.
         25    2    1    2    0    0  0.13195254991E+03  0.93990278146E+01  0.63498829426E+02  0.19281898908E+03  0.12508894460E+03 0.  0.
         24    2    1    2    0    0 -0.34333154477E+02 -0.50104989045E+02  0.33639308505E+03  0.34850120273E+03  0.67849135661E+02 0.  0.
        -11    1    5    5    0    0  0.18924513352E+01  0.25720737819E+01 -0.22307267461E+01  0.38952634586E+01  0.00000000000E+00 0.  1.
         12    1    5    5    0    0 -0.36225605812E+02 -0.52677062826E+02  0.33862381180E+03  0.34460593927E+03  0.00000000000E+00 0. -1.
         13    1    3    3    0    0 -0.53145594082E+01  0.42115905646E+02 -0.56404843237E+02  0.70593911853E+02  0.00000000000E+00 0. -1.
        -14    1    3    3    0    0 -0.92304836021E+02 -0.14099444164E+01 -0.38922663426E+03  0.40002442864E+03  0.00000000000E+00 0.  1.
          5    1    4    4  501    0  0.32253359367E+02  0.23397096965E+02  0.81168208904E+02  0.90517699228E+02  0.41800000000E+01 0.  1.
         -5    1    4    4    0  501  0.99699190538E+02 -0.13998069150E+02 -0.17669379477E+02  0.10230128985E+03  0.41800000000E+01 0.  1.
</event>
<event>
11    1  0.8864208E-009  0.1595945E+03  0.7561462E-02  0.1087459E+00
         22   -1    0    0    0    0  0.00000000000E+00  0.00000000000E+00  0.56376061644E+03  0.56376061644E+03  0.00000000000E+00 0. -1.
         22   -1    0    0    0    0 -0.00000000000E+00 -0.00000000000E+00 -0.73818576744E+02  0.73818576744E+02  0.00000000000E+00 0.  1.
        -24    2    1    2    0    0  0.26378201440E+02  0.53718671264E+01  0.49525383863E+02  0.89114397160E+02  0.69021342111E+02 0.  0.
         25    2    1    2    0    0  0.53678801411E+02  0.61634034955E+02  0.91869268617E+02  0.17542762606E+03  0.12511882945E+03 0.  0.
         24    2    1    2    0    0 -0.80057002852E+02 -0.67005902081E+02  0.34854738721E+03  0.37303716996E+03  0.82295409466E+02 0.  0.
        -13    1    5    5    0    0 -0.80333825622E+02 -0.16221748821E+02  0.22486527363E+03  0.23933461922E+03  0.00000000000E+00 0.  1.
         14    1    5    5    0    0  0.27682276995E+00 -0.50784153260E+02  0.12368211359E+03  0.13370255074E+03  0.00000000000E+00 0. -1.
         13    1    3    3    0    0  0.67435084544E+00  0.26260975512E+02  0.49447806038E+02  0.55992670109E+02  0.00000000000E+00 0. -1.
        -14    1    3    3    0    0  0.25703850595E+02 -0.20889108386E+02  0.77577824536E-01  0.33121727052E+02  0.00000000000E+00 0.  1.
          5    1    4    4  501    0  0.54473258170E+02  0.66455621362E+02  0.11939491998E+03  0.14716081266E+03  0.41800000000E+01 0. -1.
         -5    1    4    4    0  501 -0.79445675882E+00 -0.48215864068E+01 -0.27525651360E+02  0.28266813401E+02  0.41800000000E+01 0. -1.
</event>
<event>
11    1  0.8864208E-009  0.1372672E+03  0.7561462E-02  0.1110649E+00
         22   -1    0    0    0    0  0.00000000000E+00  0.00000000000E+00  0.17422350584E+04  0.17422350584E+04  0.00000000000E+00 0.  1.
         22   -1    0    0    0    0 -0.00000000000E+00 -0.00000000000E+00 -0.12681046960E+03  0.12681046960E+03  0.00000000000E+00 0.  1.
        -24    2    1    2    0    0  0.12922153769E+02  0.44822543729E+02 -0.56242418845E+02  0.10768509278E+03  0.79100107742E+02 0.  0.
         25    2    1    2    0    0  0.34553476563E+02 -0.74609848511E+02  0.86395160525E+02  0.17283073884E+03  0.12508304556E+03 0.  0.
         24    2    1    2    0    0 -0.47475630332E+02  0.29787304782E+02  0.15852718471E+04  0.15885296964E+04  0.84844257570E+02 0.  0.
        -13    1    5    5    0    0 -0.67868456809E+01  0.61604889280E+01  0.12435595654E+04  0.12435933442E+04  0.00000000000E+00 0.  1.
         14    1    5    5    0    0 -0.40688784651E+02  0.23626815854E+02  0.34171228169E+03  0.34493635222E+03  0.00000000000E+00 0. -1.
         13    1    3    3    0    0  0.35499938774E+02  0.43772581202E+02 -0.11445234211E+02  0.57508937603E+02  0.00000000000E+00 0. -1.
        -14    1    3    3    0    0 -0.22577785005E+02  0.10499625264E+01 -0.44797184634E+02  0.50176155175E+02  0.00000000000E+00 0.  1.
          5    1    4    4  501    0  0.27102438904E+01 -0.66653922161E+02  0.11238329010E+03  0.13075766538E+03  0.41800000000E+01 0.  1.
         -5    1    4    4    0  501  0.31843232673E+02 -0.79559263499E+01 -0.25988129578E+02  0.42073073456E+02  0.41800000000E+01 0.  1.
</event>
<event>
11    1  0.8864208E-009  0.4018090E+03  0.7561462E-02  0.9644435E-01
         22   -1    0    0    0    0  0.00000000000E+00  0.00000000000E+00  0.41749028578E+03  0.41749028578E+03  0.00000000000E+00 0. -1.
         22   -1    0    0    0    0 -0.00000000000E+00 -0.00000000000E+00 -0.10741909707E+04  0.10741909707E+04  0.00000000000E+00 0. -1.
         24    2    1    2    0    0 -0.27284092217E+02  0.37769833719E+03 -0.79459672659E+03  0.88399862026E+03  0.81664846282E+02 0.  0.
         25    2    1    2    0    0  0.44250861760E+02 -0.39311989049E+03 -0.34046410275E+02  0.41630289901E+03  0.12509020189E+03 0.  0.
        -24    2    1    2    0    0 -0.16966769543E+02  0.15421553298E+02  0.17194245190E+03  0.19137973726E+03  0.80847396324E+02 0.  0.
        -13    1    3    3    0    0  0.75041310455E+01  0.10349761743E+01 -0.30100680386E+02  0.31039235141E+02  0.00000000000E+00 0.  1.
         14    1    3    3    0    0 -0.34788223263E+02  0.37666336101E+03 -0.76449604620E+03  0.85295938512E+03  0.00000000000E+00 0. -1.
         13    1    5    5    0    0  0.38936343125E+01  0.17245573988E+02  0.16936091801E+03  0.17028121082E+03  0.00000000000E+00 0. -1.
        -14    1    5    5    0    0 -0.20860403855E+02 -0.18240206893E+01  0.25815338912E+01  0.21098526435E+02  0.00000000000E+00 0.  1.
          5    1    4    4  501    0 -0.33417327971E+01 -0.26824889392E+03  0.26355017969E+02  0.26959357492E+03  0.41800000000E+01 0. -1.
         -5    1    4    4    0  501  0.47592594557E+02 -0.12487099657E+03 -0.60401428244E+02  0.14670932409E+03  0.41800000000E+01 0. -1.
</event>
<event>
11    1  0.8864208E-009  0.1807236E+03  0.7561462E-02  0.1069059E+00
         22   -1    0    0    0    0  0.00000000000E+00  0.00000000000E+00  0.22361250384E+04  0.22361250384E+04  0.00000000000E+00 0.  1.
         22   -1    0    0    0    0 -0.00000000000E+00 -0.00000000000E+00 -0.21047917251E+03  0.21047917251E+03  0.00000000000E+00 0. -1.
         24    2    1    2    0    0 -0.67655331861E+02 -0.16816371646E+02 -0.16062261661E+03  0.19344420516E+03  0.82225307897E+02 0.  0.
         25    2    1    2    0    0 -0.37747132365E+02  0.99951333752E+02  0.19223739981E+03  0.25301660611E+03  0.12508824869E+03 0.  0.
        -24    2    1    2    0    0  0.10540246423E+03 -0.83134962106E+02  0.19940310827E+04  0.20001433996E+04  0.79953480454E+02 0.  0.
        -13    1    3    3    0    0 -0.36600971256E+02  0.31276172172E+02 -0.93944152484E+02  0.10556199045E+03  0.00000000000E+00 0.  1.
         14    1    3    3    0    0 -0.31054360605E+02 -0.48092543818E+02 -0.66678464122E+02  0.87882214703E+02  0.00000000000E+00 0. -1.
         13    1    5    5    0    0  0.20972652077E+02 -0.26719115553E+02  0.17415203966E+03  0.17743363883E+03  0.00000000000E+00 0. -1.
        -14    1    5    5    0    0  0.84429812149E+02 -0.56415846553E+02  0.18198790430E+04  0.18227097608E+04  0.00000000000E+00 0.  1.
          5    1    4    4  501    0 -0.42922990646E+02  0.11312524781E+03  0.92936429853E+02  0.15262489054E+03  0.41800000000E+01 0. -1.
         -5    1    4    4    0  501  0.51758582804E+01 -0.13173914061E+02  0.99300969954E+02  0.10039171557E+03  0.41800000000E+01 0. -1.
</event>
<event>
11    1  0.8864208E-009  0.1943346E+03  0.7561462E-02  0.1058604E+00
         22   -1    0    0    0    0  0.00000000000E+00  0.00000000000E+00  0.55763913699E+03  0.55763913699E+03  0.00000000000E+00 0.  1.
         22   -1    0    0    0    0 -0.00000000000E+00 -0.00000000000E+00 -0.18169822042E+04  0.18169822042E+04  0.00000000000E+00 0.  1.
         24    2    1    2    0    0 -0.18102651246E+02 -0.46344038226E+01 -0.14017586849E+04  0.14045261547E+04  0.86122732415E+02 0.  0.
         25    2    1    2    0    0 -0.11881495419E+03 -0.54955178570E+02 -0.37997876802E+03  0.42091263691E+03  0.12508604545E+03 0.  0.
        -24    2    1    2    0    0  0.13691760544E+03  0.59589582393E+02  0.52239438571E+03  0.54918254954E+03  0.80051417775E+02 0.  0.
        -13    1    3    3    0    0  0.25332059930E+02  0.24262357269E+02 -0.46913002639E+03  0.47043953587E+03  0.00000000000E+00 0.  1.
         14    1    3    3    0    0 -0.43434711177E+02 -0.28896761092E+02 -0.93262865846E+03  0.93408661885E+03  0.00000000000E+00 0. -1.
         13    1    5    5    0    0  0.74927516048E+02 -0.57696829035E+01  0.17824600667E+03  0.19344007030E+03  0.00000000000E+00 0. -1.
        -14    1    5    5    0    0  0.61990089390E+02  0.65359265296E+02  0.34414837904E+03  0.35574247924E+03  0.00000000000E+00 0.  1.
          5    1    4    4  501    0 -0.74252619030E+02 -0.67244808098E+02 -0.35356947813E+03  0.36751076707E+03  0.41800000000E+01 0.  1.
         -5    1    4    4    0  501 -0.44562335162E+02  0.12289629528E+02 -0.26409289894E+02  0.53401869834E+02  0.41800000000E+01 0.  1.
</event>
<event>
11    1  0.8864208E-009  0.1522649E+03  0.7561462E-02  0.1094587E+00
         22   -1    0    0    0    0  0.00000000000E+00  0.00000000000E+00  0.35217931220E+03  0.35217931220E+03  0.00000000000E+00 0.  1.
         22   -1    0    0    0    0 -0.00000000000E+00 -0.00000000000E+00 -0.42622090793E+03  0.42622090793E+03  0.00000000000E+00 0. -1.
        -24    2    1    2    0    0  0.60140544209E+02  0.55826405112E+02 -0.35683233000E+03  0.37513418570E+03  0.81626423284E+02 0.  0.
         25    2    1    2    0    0 -0.93135781428E+02  0.31494521813E+02  0.11785375510E+03  0.19800807900E+03  0.12510600734E+03 0.  0.
         24    2    1    2    0    0  0.32995237219E+02 -0.87320926925E+02  0.16493697917E+03  0.20525795544E+03  0.78822529865E+02 0.  0.
        -11    1    5    5    0    0  0.41311288774E+02 -0.99296536107E+02  0.14334318120E+03  0.17920293597E+03  0.00000000000E+00 0.  1.
         12    1    5    5    0    0 -0.83160515552E+01  0.11975609182E+02  0.21593797974E+02  0.26055019472E+02  0.00000000000E+00 0. -1.
         11    1    3    3    0    0  0.34410889917E+02  0.20054333794E+01 -0.25338430476E+03  0.25571808111E+03  0.00000000000E+00 0. -1.
        -12    1    3    3    0    0  0.25729654292E+02  0.53820971733E+02 -0.10344802525E+03  0.11941610459E+03  0.00000000000E+00 0.  1.
          5    1    4    4  501    0  0.57469167309E+01 -0.18860585240E+02  0.77148843697E+02  0.79738103886E+02  0.41800000000E+01 0.  1.
         -5    1    4    4    0  501 -0.98882698159E+02  0.50355107053E+02  0.40704911402E+02  0.11826997512E+03  0.41800000000E+01 0.  1.
</event>
<event>
11    1  0.8864208E-009  0.1264129E+03  0.7561462E-02  0.1123757E+00
         22   -1    0    0    0    0  0.00000000000E+00  0.00000000000E+00  0.47248435022E+03  0.47248435022E+03  0.00000000000E+00 0.  1.
         22   -1    0    0    0    0 -0.00000000000E+00 -0.00000000000E+00 -0.37498833073E+03  0.37498833073E+03  0.00000000000E+00 0. -1.
         24    2    1    2    0    0  0.37980213459E+02 -0.11548590266E+02 -0.21752699315E+03  0.23235538256E+03  0.71380421038E+02 0.  0.
         25    2    1    2    0    0 -0.45364407426E+02 -0.49512371008E+01 -0.11542507722E+03  0.17621729582E+03  0.12508853938E+03 0.  0.
        -24    2    1    2    0    0  0.73841939668E+01  0.16499827367E+02  0.43044808986E+03  0.43890000257E+03  0.83790712896E+02 0.  0.
        -13    1    3    3    0    0  0.29717393471E+02  0.27210440126E+02 -0.85685452221E+02  0.94686473421E+02  0.00000000000E+00 0.  1.
         14    1    3    3    0    0  0.82628199876E+01 -0.38759030391E+02 -0.13184154093E+03  0.13766890914E+03  0.00000000000E+00 0. -1.
         13    1    5    5    0    0 -0.22545190624E+02  0.24929608514E+02  0.76126306934E+02  0.83216498415E+02  0.00000000000E+00 0. -1.
        -14    1    5    5    0    0  0.29929384591E+02 -0.84297811477E+01  0.35432178292E+03  0.35568350415E+03  0.00000000000E+00 0.  1.
          5    1    4    4  501    0 -0.23837226833E+02 -0.64637493509E+02 -0.68019680751E+02  0.96903912819E+02  0.41800000000E+01 0. -1.
         -5    1    4    4    0  501 -0.21527180593E+02  0.59686256409E+02 -0.47405396465E+02  0.79313382997E+02  0.41800000000E+01 0. -1.
</event>
<event>
11    1  0.8864208E-009  0.1809243E+03  0.7561462E-02  0.1068898E+00
         22   -1    0    0    0    0  0.00000000000E+00  0.00000000000E+00  0.10638301429E+04  0.10638301429E+04  0.00000000000E+00 0. -1.
         22   -1    0    0    0    0 -0.00000000000E+00 -0.00000000000E+00 -0.67058798630E+03  0.67058798630E+03  0.00000000000E+00 0. -1.
        -24    2    1    2    0    0  0.96569413705E+02 -0.82083475188E+02 -0.36487457792E+03  0.39483640036E+03  0.81847277772E+02 0.  0.
         25    2    1    2    0    0 -0.30769871576E+02  0.16255936776E+03 -0.24897472808E+03  0.32404979513E+03  0.12509005339E+03 0.  0.
         24    2    1    2    0    0 -0.65799542129E+02 -0.80475892576E+02  0.10070914626E+04  0.10155319337E+04  0.79157724446E+02 0.  0.
        -13    1    5    5    0    0 -0.65043905847E+02 -0.17933693863E+02  0.57265842678E+03  0.57661945928E+03  0.00000000000E+00 0.  1.
         14    1    5    5    0    0 -0.75563628120E+00 -0.62542198713E+02  0.43443303580E+03  0.43891247442E+03  0.00000000000E+00 0. -1.
         11    1    3    3    0    0  0.61637362994E+02 -0.57559113118E+02 -0.32724067696E+03  0.33793294701E+03  0.00000000000E+00 0. -1.
        -12    1    3    3    0    0  0.34932050710E+02 -0.24524362071E+02 -0.37633900956E+02  0.56903453349E+02  0.00000000000E+00 0.  1.
          5    1    4    4  501    0 -0.79110138245E+02  0.11295986508E+03 -0.16207739152E+03  0.21284947341E+03  0.41800000000E+01 0.  1.
         -5    1    4    4    0  501  0.48340266669E+02  0.49599502689E+02 -0.86897336561E+02  0.11120032172E+03  0.41800000000E+01 0.  1.
</event>
<event>
11    1  0.8864208E-009  0.1467027E+03  0.7561462E-02  0.1100296E+00
         22   -1    0    0    0    0  0.00000000000E+00  0.00000000000E+00  0.15272025811E+03  0.15272025811E+03  0.00000000000E+00 0.  1.
         22   -1    0    0    0    0 -0.00000000000E+00 -0.00000000000E+00 -0.38005058372E+04  0.38005058372E+04  0.00000000000E+00 0.  1.
         24    2    1    2    0    0  0.38859661217E+02  0.34611983478E+01 -0.36377646800E+04  0.36388917449E+04  0.81726438264E+02 0.  0.
         25    2    1    2    0    0  0.44082026632E+02 -0.12407707782E+02 -0.10021457554E+03  0.16668986569E+03  0.12508146902E+03 0.  0.
        -24    2    1    2    0    0 -0.82941687849E+02  0.89465094345E+01  0.90193676483E+02  0.14764448470E+03  0.81881810988E+02 0.  0.
        -11    1    3    3    0    0  0.19537702768E+02 -0.26850129750E+02 -0.29511238997E+04  0.29513107127E+04  0.00000000000E+00 0.  1.
         12    1    3    3    0    0  0.19321958449E+02  0.30311328097E+02 -0.68664078033E+03  0.68758103225E+03  0.00000000000E+00 0. -1.
         11    1    5    5    0    0 -0.52549206777E+02 -0.49273679990E+01  0.14272569270E+01  0.52799007098E+02  0.00000000000E+00 0. -1.
        -12    1    5    5    0    0 -0.30392481072E+02  0.13873877434E+02  0.88766419556E+02  0.94845477602E+02  0.00000000000E+00 0.  1.
          5    1    4    4  501    0  0.21048762598E+00 -0.63492204874E+02 -0.33937498095E+02  0.72114704199E+02  0.41800000000E+01 0.  1.
         -5    1    4    4    0  501  0.43871539006E+02  0.51084497092E+02 -0.66277077440E+02  0.94575161495E+02  0.41800000000E+01 0.  1.
</event>
<event>
11    1  0.8864208E-009  0.1629820E+03  0.7561462E-02  0.1084306E+00
         22   -1    0    0    0    0  0.00000000000E+00  0.00000000000E+00  0.11603560104E+03  0.11603560104E+03  0.00000000000E+00 0.  1.
         22   -1    0    0    0    0 -0.00000000000E+00 -0.00000000000E+00 -0.75448231842E+03  0.75448231842E+03  0.00000000000E+00 0. -1.
         24    2    1    2    0    0  0.30522639094E+02  0.45993595668E+02 -0.42210682685E+03  0.43207183007E+03  0.73924628708E+02 0.  0.
         25    2    1    2    0    0  0.68855100664E+02 -0.83129643146E+02 -0.25179708709E+03  0.30116432478E+03  0.12508643010E+03 0.  0.
        -24    2    1    2    0    0 -0.99377739758E+02  0.37136047478E+02  0.35457196563E+02  0.13728176460E+03  0.79586738361E+02 0.  0.
        -11    1    3    3    0    0  0.84760140170E+01 -0.13543058108E+02 -0.23350982666E+02  0.28293561600E+02  0.00000000000E+00 0.  1.
         12    1    3    3    0    0  0.22046625077E+02  0.59536653777E+02 -0.39875584419E+03  0.40377826847E+03  0.00000000000E+00 0. -1.
         13    1    5    5    0    0 -0.27893779893E+02  0.22655176840E+02 -0.23974105687E+02  0.43198121925E+02  0.00000000000E+00 0. -1.
        -14    1    5    5    0    0 -0.71483959866E+02  0.14480870637E+02  0.59431302251E+02  0.94083642679E+02  0.00000000000E+00 0.  1.
          5    1    4    4  501    0  0.73386715084E+02 -0.22033327154E+02 -0.21791293618E+03  0.23102943018E+03  0.41800000000E+01 0.  1.
         -5    1    4    4    0  501 -0.45316144196E+01 -0.61096315992E+02 -0.33884150910E+02  0.70134894595E+02  0.41800000000E+01 0.  1.
</event>
<event>
11    1  0.9575381E-009  0.1477285E+03  0.7561462E-02  0.1099223E+00
         22   -1    0    0    0    0  0.00000000000E+00  0.00000000000E+00  0.15952450453E+03  0.15952450453E+03  0.00000000000E+00 0. -1.
         22   -1    0    0    0    0 -0.00000000000E+00 -0.00000000000E+00 -0.17564237072E+04  0.17564237072E+04  0.00000000000E+00 0. -1.
         24    2    1    2    0    0 -0.86826688260E+02  0.68745250792E+01 -0.14162310649E+04  0.14211422409E+04  0.79678772229E+02 0.  0.
         25    2    1    2    0    0  0.27132194795E+02  0.53096116465E+02 -0.29843641621E+03  0.32904071104E+03  0.12509253144E+03 0.  0.
        -24    2    1    2    0    0  0.59694493465E+02 -0.59970641544E+02  0.11776827848E+03  0.16576525977E+03  0.80304691857E+02 0.  0.
        -13    1    3    3    0    0 -0.40298393618E+02  0.26317695666E+02 -0.10876238722E+04  0.10886883250E+04  0.00000000000E+00 0.  1.
         14    1    3    3    0    0 -0.46528294642E+02 -0.19443170587E+02 -0.32860719267E+03  0.33245391584E+03  0.00000000000E+00 0. -1.
         11    1    5    5    0    0 -0.41721761448E+00 -0.35233343591E+02  0.86967474608E+02  0.93834451087E+02  0.00000000000E+00 0. -1.
        -12    1    5    5    0    0  0.60111711079E+02 -0.24737297953E+02  0.30800803868E+02  0.71930808683E+02  0.00000000000E+00 0.  1.
          5    1    4    4  501    0  0.21971536358E+02  0.93779345955E+02 -0.22583698412E+03  0.24555473918E+03  0.41800000000E+01 0. -1.
         -5    1    4    4    0  501  0.51606584375E+01 -0.40683229490E+02 -0.72599432095E+02  0.83485971862E+02  0.41800000000E+01 0. -1.
</event>
<event>
11    1  0.8864208E-009  0.1270014E+03  0.7561462E-02  0.1123009E+00
         22   -1    0    0    0    0  0.00000000000E+00  0.00000000000E+00  0.79670662597E+02  0.79670662597E+02  0.00000000000E+00 0. -1.
         22   -1    0    0    0    0 -0.00000000000E+00 -0.00000000000E+00 -0.19809996303E+04  0.19809996303E+04  0.00000000000E+00 0. -1.
         24    2    1    2    0    0  0.75597216059E+01  0.20721923056E+02 -0.18068213343E+04  0.18086958332E+04  0.79314156934E+02 0.  0.
         25    2    1    2    0    0 -0.88748790221E+01 -0.17382439194E+02 -0.11205899913E+03  0.16907010670E+03  0.12508624634E+03 0.  0.
        -24    2    1    2    0    0  0.13151574162E+01 -0.33394838616E+01  0.17551365667E+02  0.82904353054E+02  0.80945657864E+02 0.  0.
        -13    1    3    3    0    0 -0.32823883556E+02  0.14401558181E+02 -0.52459571439E+03  0.52581886212E+03  0.00000000000E+00 0.  1.
         14    1    3    3    0    0  0.40383605161E+02  0.63203648747E+01 -0.12822256199E+04  0.12828769711E+04  0.00000000000E+00 0. -1.
         13    1    5    5    0    0 -0.84317044406E+01 -0.15348586620E+01  0.49096272582E+02  0.49838673862E+02  0.00000000000E+00 0. -1.
        -14    1    5    5    0    0  0.97468618568E+01 -0.18046251996E+01 -0.31544906915E+02  0.33065679192E+02  0.00000000000E+00 0.  1.
          5    1    4    4  501    0  0.48030220079E+02 -0.10203268030E+02 -0.98266736518E+02  0.10993103577E+03  0.41800000000E+01 0. -1.
         -5    1    4    4    0  501 -0.56905099101E+02 -0.71791711643E+01 -0.13792262613E+02  0.59139070929E+02  0.41800000000E+01 0. -1.
</event>
<event>
11    1  0.8864208E-009  0.1654442E+03  0.7561462E-02  0.1082066E+00
         22   -1    0    0    0    0  0.00000000000E+00  0.00000000000E+00  0.17755149010E+04  0.17755149010E+04  0.00000000000E+00 0.  1.
         22   -1    0    0    0    0 -0.00000000000E+00 -0.00000000000E+00 -0.15539263832E+03  0.15539263832E+03  0.00000000000E+00 0. -1.
         24    2    1    2    0    0 -0.10427257107E+03 -0.24018185895E+02 -0.71994044474E+02  0.15233562565E+03  0.81076248502E+02 0.  0.
         25    2    1    2    0    0  0.11097671542E+03  0.24589419779E+02  0.12728110521E+03  0.21158504669E+03  0.12508909349E+03 0.  0.
        -24    2    1    2    0    0 -0.67041443449E+01 -0.57123388428E+00  0.15648352019E+04  0.15669868670E+04  0.81812958628E+02 0.  0.
        -11    1    3    3    0    0 -0.66323238844E+01  0.15466183265E+02  0.93566693985E+01  0.19254552893E+02  0.00000000000E+00 0.  1.
         12    1    3    3    0    0 -0.97640247189E+02 -0.39484369160E+02 -0.81350713873E+02  0.13308107276E+03  0.00000000000E+00 0. -1.
         13    1    5    5    0    0 -0.86622483866E+01 -0.11665562796E+02  0.48978205254E+02  0.51088007324E+02  0.00000000000E+00 0. -1.
        -14    1    5    5    0    0  0.19581040417E+01  0.11094328912E+02  0.15158569967E+04  0.15158988597E+04  0.00000000000E+00 0.  1.
          5    1    4    4  501    0  0.88442855219E+02 -0.40029275058E+02  0.53737286425E+02  0.11103895647E+03  0.41800000000E+01 0. -1.
         -5    1    4    4    0  501  0.22533860199E+02  0.64618694837E+02  0.73543818784E+02  0.10054609022E+03  0.41800000000E+01 0. -1.
</event>
<event>
11    1  0.8864208E-009  0.2140949E+03  0.7561462E-02  0.1044981E+00
         22   -1    0    0    0    0  0.00000000000E+00  0.00000000000E+00  0.35485755799E+03  0.35485755799E+03  0.00000000000E+00 0.  1.
         22   -1    0    0    0    0 -0.00000000000E+00 -0.00000000000E+00 -0.47557534324E+03  0.47557534324E+03  0.00000000000E+00 0.  1.
         24    2    1    2    0    0 -0.60957648479E+02 -0.16492507457E+03 -0.34877565667E+03  0.39917253979E+03  0.82329476515E+02 0.  0.
         25    2    1    2    0    0  0.15280540145E+03  0.10630291270E+03  0.15410785032E+03  0.27211647372E+03  0.12509334826E+03 0.  0.
        -24    2    1    2    0    0 -0.91847752975E+02  0.58622161871E+02  0.73950021101E+02  0.15914388772E+03  0.89362205603E+02 0.  0.
        -11    1    3    3    0    0  0.53962490793E+01 -0.36299881509E+02 -0.14274543106E+03  0.14738744516E+03  0.00000000000E+00 0.  1.
         12    1    3    3    0    0 -0.66353897558E+02 -0.12862519307E+03 -0.20603022561E+03  0.25178509463E+03  0.00000000000E+00 0. -1.
         13    1    5    5    0    0 -0.66453586474E+02  0.60717263891E+02  0.91382452184E+02  0.12827087689E+03  0.00000000000E+00 0. -1.
        -14    1    5    5    0    0 -0.25394166501E+02 -0.20951020204E+01 -0.17432431084E+02  0.30873010839E+02  0.00000000000E+00 0.  1.
          5    1    4    4  501    0  0.16598374814E+03  0.61934243108E+02  0.12985539119E+03  0.21969604033E+03  0.41800000000E+01 0. -1.
         -5    1    4    4    0  501 -0.13178346686E+02  0.44368669595E+02  0.24252459127E+02  0.52420433390E+02  0.41800000000E+01 0. -1.
</event>
<event>
11    1  0.8864208E-009  0.1312678E+03  0.7561462E-02  0.1117721E+00
         22   -1    0    0    0    0  0.00000000000E+00  0.00000000000E+00  0.66919138229E+03  0.66919138229E+03  0.00000000000E+00 0.  1.
         22   -1    0    0    0    0 -0.00000000000E+00 -0.00000000000E+00 -0.30496783680E+03  0.30496783680E+03  0.00000000000E+00 0.  1.
        -24    2    1    2    0    0  0.10852387298E+02  0.10829352479E+02 -0.24294091388E+03  0.25592566237E+03  0.79010175529E+02 0.  0.
         25    2    1    2    0    0 -0.49716857960E+02 -0.57625393657E+01  0.35337020971E+02  0.13928669600E+03  0.12508839197E+03 0.  0.
         24    2    1    2    0    0  0.38864470662E+02 -0.50668131136E+01  0.57182743840E+03  0.57894686072E+03  0.81588777149E+02 0.  0.
        -13    1    5    5    0    0  0.22999250646E+02 -0.11114750713E+02  0.55301790182E+03  0.55360753512E+03  0.00000000000E+00 0.  1.
         14    1    5    5    0    0  0.15865220016E+02  0.60479375996E+01  0.18809536584E+02  0.25339325600E+02  0.00000000000E+00 0. -1.
         13    1    3    3    0    0 -0.30921341995E+02 -0.10991529096E+02 -0.85484102444E+02  0.91566778219E+02  0.00000000000E+00 0. -1.
        -14    1    3    3    0    0  0.41773729293E+02  0.21820881576E+02 -0.15745681143E+03  0.16435888415E+03  0.00000000000E+00 0.  1.
          5    1    4    4  501    0 -0.50151620399E+02 -0.14058385434E+02 -0.38476168581E+02  0.64889992898E+02  0.41800000000E+01 0. -1.
         -5    1    4    4    0  501  0.43476243864E+00  0.82958460683E+01  0.73813189552E+02  0.74396703100E+02  0.41800000000E+01 0. -1.
</event>
<event>
11    1  0.8864208E-009  0.1357187E+03  0.7561462E-02  0.1112436E+00
         22   -1    0    0    0    0  0.00000000000E+00  0.00000000000E+00  0.19889805939E+04  0.19889805939E+04  0.00000000000E+00 0. -1.
         22   -1    0    0    0    0 -0.00000000000E+00 -0.00000000000E+00 -0.34926500814E+03  0.34926500814E+03  0.00000000000E+00 0.  1.
         24    2    1    2    0    0 -0.43287632432E+01 -0.45454424992E+02 -0.20387653361E+03  0.22343979275E+03  0.79213995505E+02 0.  0.
         25    2    1    2    0    0  0.22725549233E+02  0.80308956049E+02 -0.92667131389E+02  0.17664561070E+03  0.12510194055E+03 0.  0.
        -24    2    1    2    0    0 -0.18396785990E+02 -0.34854531056E+02  0.19362592508E+04  0.19381601986E+04  0.76235091837E+02 0.  0.
        -13    1    3    3    0    0  0.31547140802E+02 -0.45502090528E+02 -0.11664818451E+03  0.12912188538E+03  0.00000000000E+00 0.  1.
         14    1    3    3    0    0 -0.35875904045E+02  0.47665536232E-01 -0.87228349096E+02  0.94317907362E+02  0.00000000000E+00 0. -1.
         11    1    5    5    0    0 -0.32101738994E+02 -0.27454216756E+02  0.18514997199E+04  0.18519814978E+04  0.00000000000E+00 0. -1.
        -12    1    5    5    0    0  0.13704953005E+02 -0.74003143003E+01  0.84759530908E+02  0.86178700781E+02  0.00000000000E+00 0.  1.
          5    1    4    4  501    0 -0.41366965817E+01 -0.33070082850E+02 -0.24650520956E+02  0.41663691888E+02  0.41800000000E+01 0.  1.
         -5    1    4    4    0  501  0.26862245815E+02  0.11337903890E+03 -0.68016610433E+02  0.13498191881E+03  0.41800000000E+01 0.  1.
</event>
<event>
11    1  0.8864208E-009  0.1455274E+03  0.7561462E-02  0.1101539E+00
         22   -1    0    0    0    0  0.00000000000E+00  0.00000000000E+00  0.40160818203E+03  0.40160818203E+03  0.00000000000E+00 0. -1.
         22   -1    0    0    0    0 -0.00000000000E+00 -0.00000000000E+00 -0.11742614033E+04  0.11742614033E+04  0.00000000000E+00 0.  1.
        -24    2    1    2    0    0 -0.59377599521E+02  0.38264426064E+01 -0.93328399039E+03  0.93868761029E+03  0.81086879400E+02 0.  0.
         25    2    1    2    0    0  0.82718481084E+02 -0.73626375102E+02 -0.20007670524E+03  0.26065615463E+03  0.12509097786E+03 0.  0.
         24    2    1    2    0    0 -0.23340881563E+02  0.69799932496E+02  0.36070747441E+03  0.37652582037E+03  0.79025211075E+02 0.  0.
        -13    1    5    5    0    0  0.15414780209E+02  0.27249893554E+01  0.13163067379E+02  0.20452563621E+02  0.00000000000E+00 0.  1.
         14    1    5    5    0    0 -0.38755661772E+02  0.67074943140E+02  0.34754440703E+03  0.35607325675E+03  0.00000000000E+00 0. -1.
         11    1    3    3    0    0 -0.29913518084E+02 -0.37333648494E+02 -0.35826514988E+03  0.36144506843E+03  0.00000000000E+00 0. -1.
        -12    1    3    3    0    0 -0.29464081437E+02  0.41160091100E+02 -0.57501884051E+03  0.57724254186E+03  0.00000000000E+00 0.  1.
          5    1    4    4  501    0  0.73211640898E+02  0.16786503657E+02 -0.10355848846E+03  0.12799829687E+03  0.41800000000E+01 0.  1.
         -5    1    4    4    0  501  0.95068401859E+01 -0.90412878759E+02 -0.96518216780E+02  0.13265785776E+03  0.41800000000E+01 0.  1.
</event>
<event>
11    1  0.8864208E-009  0.1358448E+03  0.7561462E-02  0.1112289E+00
         22   -1    0    0    0    0  0.00000000000E+00  0.00000000000E+00  0.88925085672E+02  0.88925085672E+02  0.00000000000E+00 0. -1.
         22   -1    0    0    0    0 -0.00000000000E+00 -0.00000000000E+00 -0.14126737154E+04  0.14126737154E+04  0.00000000000E+00 0. -1.
         24    2    1    2    0    0 -0.46371360226E+02  0.10762042326E+02 -0.68527081223E+03  0.69156913121E+03  0.80035320573E+02 0.  0.
         25    2    1    2    0    0  0.65496005517E+02 -0.41641644525E+01 -0.69584911000E+03  0.71004265471E+03  0.12509005006E+03 0.  0.
        -24    2    1    2    0    0 -0.19124645291E+02 -0.65978778734E+01  0.57371292525E+02  0.99987015126E+02  0.79351458322E+02 0.  0.
        -11    1    3    3    0    0  0.17532238011E+01 -0.60679106396E+01 -0.23364231868E+01  0.67344046905E+01  0.00000000000E+00 0.  1.
         12    1    3    3    0    0 -0.48124584027E+02  0.16829952966E+02 -0.68293438905E+03  0.68483472652E+03  0.00000000000E+00 0. -1.
         13    1    5    5    0    0 -0.30549046150E+02 -0.63073071439E+01  0.73715492747E+02  0.80043739387E+02  0.00000000000E+00 0. -1.
        -14    1    5    5    0    0  0.11424400859E+02 -0.29057072955E+00 -0.16344200222E+02  0.19943275739E+02  0.00000000000E+00 0.  1.
          5    1    4    4  501    0 -0.19453837116E+02 -0.22747100476E+02 -0.50534656761E+02  0.58882138995E+02  0.41800000000E+01 0. -1.
         -5    1    4    4    0  501  0.84949842634E+02  0.18582936024E+02 -0.64531445324E+03  0.65116051572E+03  0.41800000000E+01 0. -1.
</event>
<event>
11    1  0.8864208E-009  0.2603765E+03  0.7561462E-02  0.1018512E+00
         22   -1    0    0    0    0  0.00000000000E+00  0.00000000000E+00  0.43525209401E+03  0.43525209401E+03  0.00000000000E+00 0.  1.
         22   -1    0    0    0    0 -0.00000000000E+00 -0.00000000000E+00 -0.23937734497E+04  0.23937734497E+04  0.00000000000E+00 0.  1.
        -24    2    1    2    0    0  0.46766537996E+02  0.32796847115E+02 -0.16823577977E+04  0.16852441113E+04  0.80356786387E+02 0.  0.
         25    2    1    2    0    0  0.68496671322E+02 -0.22963441087E+03 -0.64669656254E+03  0.70091977068E+03  0.12509326233E+03 0.  0.
         24    2    1    2    0    0 -0.11526320932E+03  0.19683756376E+03  0.37053300459E+03  0.44286166164E+03  0.82468842191E+02 0.  0.
        -11    1    5    5    0    0 -0.11426087714E+03  0.12202194005E+03  0.26957965036E+03  0.31720354630E+03  0.00000000000E+00 0.  1.
         12    1    5    5    0    0 -0.10023321797E+01  0.74815623702E+02  0.10095335422E+03  0.12565811533E+03  0.00000000000E+00 0. -1.
         13    1    3    3    0    0  0.18203089714E+01 -0.22384621559E+02 -0.21701221513E+03  0.21817123165E+03  0.00000000000E+00 0. -1.
        -14    1    3    3    0    0  0.44946229025E+02  0.55181468674E+02 -0.14653455826E+04  0.14670728797E+04  0.00000000000E+00 0.  1.
          5    1    4    4  501    0 -0.19318662874E+02 -0.43970044984E+02 -0.24549649583E+03  0.25018508640E+03  0.41800000000E+01 0.  1.
         -5    1    4    4    0  501  0.87815334196E+02 -0.18566436589E+03 -0.40120006671E+03  0.45073468427E+03  0.41800000000E+01 0.  1.
</event>
<event>
11    1  0.8864208E-009  0.1403275E+03  0.7561462E-02  0.1107193E+00
         22   -1    0    0    0    0  0.00000000000E+00  0.00000000000E+00  0.12176885786E+04  0.12176885786E+04  0.00000000000E+00 0.  1.
         22   -1    0    0    0    0 -0.00000000000E+00 -0.00000000000E+00 -0.75067461570E+03  0.75067461570E+03  0.00000000000E+00 0. -1.
         24    2    1    2    0    0 -0.62395754634E+02  0.79477629923E+01 -0.59010778474E+03  0.59857264480E+03  0.78138443578E+02 0.  0.
         25    2    1    2    0    0  0.73569027596E+02  0.46783966398E+02 -0.11671998049E+03  0.19202935538E+03  0.12510227075E+03 0.  0.
        -24    2    1    2    0    0 -0.11173272962E+02 -0.54731729391E+02  0.11738417281E+04  0.11777611941E+04  0.78080877534E+02 0.  0.
        -13    1    3    3    0    0 -0.23491531666E+02  0.42312024311E+02 -0.28791814880E+03  0.29195722268E+03  0.00000000000E+00 0.  1.
         14    1    3    3    0    0 -0.38904222968E+02 -0.34364261319E+02 -0.30218963593E+03  0.30661542213E+03  0.00000000000E+00 0. -1.
         11    1    5    5    0    0  0.11457432723E+02  0.13942141779E+02  0.11049669357E+03  0.11196059741E+03  0.00000000000E+00 0. -1.
        -12    1    5    5    0    0 -0.22630705685E+02 -0.68673871170E+02  0.10633450345E+04  0.10658005967E+04  0.00000000000E+00 0.  1.
          5    1    4    4  501    0  0.27768401949E+02 -0.36546104075E+02 -0.67335708536E+01  0.46578055416E+02  0.41800000000E+01 0. -1.
         -5    1    4    4    0  501  0.45800625647E+02  0.83330070473E+02 -0.10998640964E+03  0.14545129996E+03  0.41800000000E+01 0. -1.
</event>
<event>
11    1  0.8864208E-009  0.1449841E+03  0.7561462E-02  0.1102117E+00
         22   -1    0    0    0    0  0.00000000000E+00  0.00000000000E+00  0.32635029327E+03  0.32635029327E+03  0.00000000000E+00 0. -1.
         22   -1    0    0    0    0 -0.00000000000E+00 -0.00000000000E+00 -0.14984999964E+04  0.14984999964E+04  0.00000000000E+00 0.  1.
        -24    2    1    2    0    0 -0.10315344560E+02  0.62553571440E+02 -0.14265052271E+04  0.14301534432E+04  0.80014700268E+02 0.  0.
         25    2    1    2    0    0 -0.44849398071E+02 -0.10083471788E+03  0.66635500346E+02  0.17963056124E+03  0.12509092609E+03 0.  0.
         24    2    1    2    0    0  0.55164742631E+02  0.38281146440E+02  0.18772002370E+03  0.21506628524E+03  0.80660428615E+02 0.  0.
        -11    1    5    5    0    0 -0.62191641356E+01  0.34067296840E+01 -0.57424694638E+01  0.91246789109E+01  0.00000000000E+00 0.  1.
         12    1    5    5    0    0  0.61383906766E+02  0.34874416756E+02  0.19346249317E+03  0.20594160633E+03  0.00000000000E+00 0. -1.
         11    1    3    3    0    0  0.25684539388E+02  0.41342946648E+02 -0.42516679973E+03  0.42794362058E+03  0.00000000000E+00 0. -1.
        -12    1    3    3    0    0 -0.35999883948E+02  0.21210624792E+02 -0.10013384274E+04  0.10022098226E+04  0.00000000000E+00 0.  1.
          5    1    4    4  501    0  0.39625857531E+01 -0.36661938380E+01 -0.32024493415E+02  0.32744215391E+02  0.41800000000E+01 0.  1.
         -5    1    4    4    0  501 -0.48811983824E+02 -0.97168524042E+02  0.98659993761E+02  0.14688634585E+03  0.41800000000E+01 0.  1.
</event>
<event>
11    1  0.8864208E-009  0.2260041E+03  0.7561462E-02  0.1037520E+00
         22   -1    0    0    0    0  0.00000000000E+00  0.00000000000E+00  0.77121669127E+03  0.77121669127E+03  0.00000000000E+00 0. -1.
         22   -1    0    0    0    0 -0.00000000000E+00 -0.00000000000E+00 -0.79968327083E+03  0.79968327083E+03  0.00000000000E+00 0. -1.
        -24    2    1    2    0    0  0.19176822381E+01 -0.51233190552E+02 -0.40579395890E+03  0.41714543195E+03  0.81933247222E+02 0.  0.
         25    2    1    2    0    0  0.20354593557E+02  0.23624290907E+03 -0.32571777500E+03  0.42185951181E+03  0.12509339387E+03 0.  0.
         24    2    1    2    0    0 -0.22272275796E+02 -0.18500971852E+03  0.70304515434E+03  0.73189501833E+03  0.81689525696E+02 0.  0.
        -13    1    5    5    0    0 -0.33278430473E+02 -0.95603222994E+02  0.24523723420E+03  0.26530874697E+03  0.00000000000E+00 0.  1.
         14    1    5    5    0    0  0.11006154677E+02 -0.89406495526E+02  0.45780792014E+03  0.46658627136E+03  0.00000000000E+00 0. -1.
         11    1    3    3    0    0  0.71725497951E+01 -0.66758078915E+02 -0.38426891242E+03  0.39009060950E+03  0.00000000000E+00 0. -1.
        -12    1    3    3    0    0 -0.52548675569E+01  0.15524888363E+02 -0.21525046476E+02  0.27054822445E+02  0.00000000000E+00 0.  1.
          5    1    4    4  501    0  0.47420053213E+02  0.21708696797E+03 -0.22719031620E+03  0.31781806948E+03  0.41800000000E+01 0. -1.
         -5    1    4    4    0  501 -0.27065459656E+02  0.19155941100E+02 -0.98527458798E+02  0.10404144233E+03  0.41800000000E+01 0. -1.
</event>
<event>
11    1  0.8864208E-009  0.1618050E+03  0.7561462E-02  0.1085392E+00
         22   -1    0    0    0    0  0.00000000000E+00  0.00000000000E+00  0.13951155102E+04  0.13951155102E+04  0.00000000000E+00 0. -1.
         22   -1    0    0    0    0 -0.00000000000E+00 -0.00000000000E+00 -0.69318340476E+03  0.69318340476E+03  0.00000000000E+00 0.  1.
         24    2    1    2    0    0  0.92066156774E+01  0.45982073072E+02 -0.54363082579E+03  0.55170202717E+03  0.81495639221E+02 0.  0.
         25    2    1    2    0    0 -0.72606987020E+02 -0.12554917500E+03 -0.77962195997E+02  0.20678101884E+03  0.12508363538E+03 0.  0.
        -24    2    1    2    0    0  0.63400371343E+02  0.79567101924E+02  0.13235251272E+04  0.13298158689E+04  0.79630095648E+02 0.  0.
        -13    1    3    3    0    0  0.39561485408E+01 -0.19805906096E+02 -0.24669118913E+03  0.24751660110E+03  0.00000000000E+00 0.  1.
         14    1    3    3    0    0  0.52504671366E+01  0.65787979168E+02 -0.29693963666E+03  0.30418542607E+03  0.00000000000E+00 0. -1.
         11    1    5    5    0    0  0.53417580876E+02  0.85328574051E+02  0.12969211373E+04  0.13008223706E+04  0.00000000000E+00 0. -1.
        -12    1    5    5    0    0  0.99827904672E+01 -0.57614721272E+01  0.26603989941E+02  0.28993498364E+02  0.00000000000E+00 0.  1.
          5    1    4    4  501    0  0.26220737500E+02 -0.33123071465E+01  0.75304829050E+01  0.27797104641E+02  0.41800000000E+01 0. -1.
         -5    1    4    4    0  501 -0.98827724520E+02 -0.12223686785E+03 -0.85492678902E+02  0.17898391420E+03  0.41800000000E+01 0. -1.
</event>
<event>
11    1  0.8864208E-009  0.1523603E+03  0.7561462E-02  0.1094491E+00
         22   -1    0    0    0    0  0.00000000000E+00  0.00000000000E+00  0.80044586761E+03  0.80044586761E+03  0.00000000000E+00 0. -1.
         22   -1    0    0    0    0 -0.00000000000E+00 -0.00000000000E+00 -0.17116479036E+03  0.17116479036E+03  0.00000000000E+00 0. -1.
        -24    2    1    2    0    0 -0.93749802426E+02  0.15208370349E+02 -0.10553828412E+03  0.16309307803E+03  0.80253988704E+02 0.  0.
         25    2    1    2    0    0 -0.96241007726E+01 -0.29102907523E+02  0.10958547755E+03  0.16910557231E+03  0.12509242645E+03 0.  0.
         24    2    1    2    0    0  0.10337390320E+03  0.13894537174E+02  0.62523388381E+03  0.63941200763E+03  0.83970733071E+02 0.  0.
        -13    1    5    5    0    0  0.13486084640E+02 -0.29872972289E+02  0.19325485196E+03  0.19601455752E+03  0.00000000000E+00 0.  1.
         14    1    5    5    0    0  0.89887818559E+02  0.43767509463E+02  0.43197903185E+03  0.44339745012E+03  0.00000000000E+00 0. -1.
         11    1    3    3    0    0 -0.25245077286E+02  0.43312043286E+02 -0.46751891519E+02  0.68549153032E+02  0.00000000000E+00 0. -1.
        -12    1    3    3    0    0 -0.68504725140E+02 -0.28103672937E+02 -0.58786392596E+02  0.94543924995E+02  0.00000000000E+00 0.  1.
          5    1    4    4  501    0  0.35390939323E+01 -0.26259518037E+02  0.13629117514E+03  0.13890588286E+03  0.41800000000E+01 0.  1.
         -5    1    4    4    0  501 -0.13163194705E+02 -0.28433894858E+01 -0.26705697593E+02  0.30199689445E+02  0.41800000000E+01 0.  1.
</event>
<event>
11    1  0.8864208E-009  0.1750739E+03  0.7561462E-02  0.1073699E+00
         22   -1    0    0    0    0  0.00000000000E+00  0.00000000000E+00  0.41952533776E+03  0.41952533776E+03  0.00000000000E+00 0.  1.
         22   -1    0    0    0    0 -0.00000000000E+00 -0.00000000000E+00 -0.26443760046E+03  0.26443760046E+03  0.00000000000E+00 0.  1.
        -24    2    1    2    0    0 -0.96980635071E+02  0.77041605562E+02 -0.19624528284E+03  0.24554549759E+03  0.80247914500E+02 0.  0.
         25    2    1    2    0    0  0.74133282303E+02 -0.85258758407E+02  0.16714483243E+03  0.23738009885E+03  0.12508843630E+03 0.  0.
         24    2    1    2    0    0  0.22847352768E+02  0.82171528450E+01  0.18418818772E+03  0.20103734178E+03  0.76819275991E+02 0.  0.
        -13    1    5    5    0    0  0.37997064572E+02 -0.57956906324E+01  0.17367424907E+03  0.17787667564E+03  0.00000000000E+00 0.  1.
         14    1    5    5    0    0 -0.15149711804E+02  0.14012843477E+02  0.10513938650E+02  0.23160666139E+02  0.00000000000E+00 0. -1.
         11    1    3    3    0    0  0.14052617348E+02  0.13735007413E+02 -0.29618484508E+02  0.35544072747E+02  0.00000000000E+00 0. -1.
        -12    1    3    3    0    0 -0.11103325242E+03  0.63306598149E+02 -0.16662679833E+03  0.21000142484E+03  0.00000000000E+00 0.  1.
          5    1    4    4  501    0  0.19923367452E+02 -0.10705907825E+03  0.96077571842E+02  0.14528234242E+03  0.41800000000E+01 0. -1.
         -5    1    4    4    0  501  0.54209914851E+02  0.21800319848E+02  0.71067260584E+02  0.92097756436E+02  0.41800000000E+01 0. -1.
</event>
<event>
11    1  0.8864208E-009  0.1291079E+03  0.7561462E-02  0.1120370E+00
         22   -1    0    0    0    0  0.00000000000E+00  0.00000000000E+00  0.52811623010E+03  0.52811623010E+03  0.00000000000E+00 0. -1.
         22   -1    0    0    0    0 -0.00000000000E+00 -0.00000000000E+00 -0.27882608280E+03  0.27882608280E+03  0.00000000000E+00 0. -1.
         24    2    1    2    0    0 -0.25665236964E+02  0.87308680849E+01 -0.12486591662E+03  0.16905116837E+03  0.11068815631E+03 0.  0.
         25    2    1    2    0    0  0.85466920099E+01 -0.53459777133E+02 -0.90632726696E+02  0.16367696015E+03  0.12507942444E+03 0.  0.
        -24    2    1    2    0    0  0.17118544955E+02  0.44728909048E+02  0.46478879062E+03  0.47421418439E+03  0.80973779123E+02 0.  0.
        -11    1    3    3    0    0  0.38213726860E+02  0.34446128131E+01 -0.13721153819E+02  0.40748304751E+02  0.00000000000E+00 0.  1.
         12    1    3    3    0    0 -0.63878963824E+02  0.52862552719E+01 -0.11114476281E+03  0.12830286362E+03  0.00000000000E+00 0. -1.
         11    1    5    5    0    0  0.18131553124E+02 -0.13949592609E+02  0.26495995570E+03  0.26594571340E+03  0.00000000000E+00 0. -1.
        -12    1    5    5    0    0 -0.10130081692E+01  0.58678501658E+02  0.19982883492E+03  0.20826847099E+03  0.00000000000E+00 0.  1.
          5    1    4    4  501    0  0.38555525124E+02  0.11784902704E+02 -0.81681954601E+02  0.91185670787E+02  0.41800000000E+01 0. -1.
         -5    1    4    4    0  501 -0.30008833114E+02 -0.65244679837E+02 -0.89507720952E+01  0.72491289360E+02  0.41800000000E+01 0. -1.
</event>
<event>
11    1  0.8864208E-009  0.1506358E+03  0.7561462E-02  0.1096231E+00
         22   -1    0    0    0    0  0.00000000000E+00  0.00000000000E+00  0.33188970555E+03  0.33188970555E+03  0.00000000000E+00 0.  1.
         22   -1    0    0    0    0 -0.00000000000E+00 -0.00000000000E+00 -0.11151907492E+04  0.11151907492E+04  0.00000000000E+00 0.  1.
        -24    2    1    2    0    0 -0.13862501023E+02  0.15921140728E+02 -0.10314729108E+04  0.10346339755E+04  0.78009267500E+02 0.  0.
         25    2    1    2    0    0 -0.70622799106E+02 -0.28323409923E+02  0.36897879723E+01  0.14645910954E+03  0.12508741315E+03 0.  0.
         24    2    1    2    0    0  0.84485300129E+02  0.12402269196E+02  0.24448207916E+03  0.26598736976E+03  0.60714179732E+02 0.  0.
        -13    1    5    5    0    0  0.58817402806E+02  0.36692332968E+02  0.16766270654E+03  0.18142931774E+03  0.00000000000E+00 0.  1.
         14    1    5    5    0    0  0.25667897323E+02 -0.24290063772E+02  0.76819372627E+02  0.84558052022E+02  0.00000000000E+00 0. -1.
         13    1    3    3    0    0 -0.11712038380E+02  0.53730478304E+01 -0.25199076576E+02  0.28302560772E+02  0.00000000000E+00 0. -1.
        -14    1    3    3    0    0 -0.21504626433E+01  0.10548092897E+02 -0.10062738342E+04  0.10063314147E+04  0.00000000000E+00 0.  1.
          5    1    4    4  501    0 -0.41751774228E+02  0.53626313081E+01  0.60770506549E+02  0.74043874372E+02  0.41800000000E+01 0.  1.
         -5    1    4    4    0  501 -0.28871024878E+02 -0.33686041231E+02 -0.57080718577E+02  0.72415235169E+02  0.41800000000E+01 0.  1.
</event>
<event>
11    1  0.8864208E-009  0.1326692E+03  0.7561462E-02  0.1116032E+00
         22   -1    0    0    0    0  0.00000000000E+00  0.00000000000E+00  0.35004370667E+03  0.35004370667E+03  0.00000000000E+00 0.  1.
         22   -1    0    0    0    0 -0.00000000000E+00 -0.00000000000E+00 -0.13032055824E+04  0.13032055824E+04  0.00000000000E+00 0. -1.
        -24    2    1    2    0    0  0.14120572667E+02 -0.30126202929E+02 -0.11932762976E+04  0.11964874751E+04  0.81036886193E+02 0.  0.
         25    2    1    2    0    0 -0.30959527608E+02 -0.12280857303E+02 -0.60100514305E+02  0.14271930792E+03  0.12508963677E+03 0.  0.
         24    2    1    2    0    0  0.16838954941E+02  0.42407060233E+02  0.30021493618E+03  0.31404250608E+03  0.80073582159E+02 0.  0.
        -13    1    5    5    0    0  0.52467307084E+01  0.57269058143E+02  0.28209369600E+03  0.28789603423E+03  0.00000000000E+00 0.  1.
         14    1    5    5    0    0  0.11592224233E+02 -0.14861997911E+02  0.18121240180E+02  0.26146471850E+02  0.00000000000E+00 0. -1.
         13    1    3    3    0    0  0.26332040069E+02 -0.26250289354E+02 -0.11632251546E+04  0.11638192361E+04  0.00000000000E+00 0. -1.
        -14    1    3    3    0    0 -0.12211467402E+02 -0.38759135753E+01 -0.30051143014E+02  0.32668238989E+02  0.00000000000E+00 0.  1.
          5    1    4    4  501    0  0.17666404118E+02  0.47211889251E+02 -0.12045277038E+02  0.51996398145E+02  0.41800000000E+01 0. -1.
         -5    1    4    4    0  501 -0.48625931726E+02 -0.59492746554E+02 -0.48055237267E+02  0.90722909772E+02  0.41800000000E+01 0. -1.
</event>
<event>
11    1  0.8864208E-009  0.1382126E+03  0.7561462E-02  0.1109571E+00
         22   -1    0    0    0    0  0.00000000000E+00  0.00000000000E+00  0.10745605692E+04  0.10745605692E+04  0.00000000000E+00 0.  1.
         22   -1    0    0    0    0 -0.00000000000E+00 -0.00000000000E+00 -0.95137821278E+02  0.95137821278E+02  0.00000000000E+00 0. -1.
        -24    2    1    2    0    0 -0.41434098991E+02  0.72711202638E+01 -0.45810232002E+02  0.10668196559E+03  0.86676471295E+02 0.  0.
         25    2    1    2    0    0  0.86522758624E+02 -0.22302522784E+02  0.41444550124E+03  0.44203717596E+03  0.12509277019E+03 0.  0.
         24    2    1    2    0    0 -0.45088659634E+02  0.15031402521E+02  0.61078747873E+03  0.62097924898E+03  0.10146404878E+03 0.  0.
        -11    1    5    5    0    0 -0.28402425169E+02  0.46852824804E+02  0.52662894130E+03  0.52947136539E+03  0.00000000000E+00 0.  1.
         12    1    5    5    0    0 -0.16686234465E+02 -0.31821422284E+02  0.84158537427E+02  0.91507883587E+02  0.00000000000E+00 0. -1.
         13    1    3    3    0    0 -0.34141372182E+02  0.43602621873E+02 -0.12316309662E+02  0.56731943492E+02  0.00000000000E+00 0. -1.
        -14    1    3    3    0    0 -0.72927268088E+01 -0.36331501609E+02 -0.33493922340E+02  0.49950022094E+02  0.00000000000E+00 0.  1.
          5    1    4    4  501    0  0.64401727756E+02 -0.49158265213E+02  0.39225983062E+03  0.40056131203E+03  0.41800000000E+01 0.  1.
         -5    1    4    4    0  501  0.22121030868E+02  0.26855742429E+02  0.22185670616E+02  0.41475863930E+02  0.41800000000E+01 0.  1.
</event>
<event>
11    1  0.8864208E-009  0.1477132E+03  0.7561462E-02  0.1099239E+00
         22   -1    0    0    0    0  0.00000000000E+00  0.00000000000E+00  0.73125356190E+03  0.73125356190E+03  0.00000000000E+00 0.  1.
         22   -1    0    0    0    0 -0.00000000000E+00 -0.00000000000E+00 -0.10935628675E+03  0.10935628675E+03  0.00000000000E+00 0. -1.
         24    2    1    2    0    0 -0.16103258636E+01 -0.84506126078E+02 -0.96110794631E+01  0.11815168767E+03  0.81997377743E+02 0.  0.
         25    2    1    2    0    0 -0.42574464597E+02  0.61654656200E+02  0.86684847427E+02  0.16963415086E+03  0.12509037013E+03 0.  0.
        -24    2    1    2    0    0  0.44184790460E+02  0.22851469878E+02  0.54482350719E+03  0.55282401013E+03  0.79418176798E+02 0.  0.
        -13    1    3    3    0    0  0.11781482816E+02 -0.87165223396E+02  0.15742581424E+02  0.89355516768E+02  0.00000000000E+00 0.  1.
         14    1    3    3    0    0 -0.13391808679E+02  0.26590973175E+01 -0.25353660887E+02  0.28796170902E+02  0.00000000000E+00 0. -1.
         13    1    5    5    0    0 -0.42420570808E+01 -0.93929394025E+01  0.85146482792E+01  0.13368679599E+02  0.00000000000E+00 0. -1.
        -14    1    5    5    0    0  0.48426847541E+02  0.32244409280E+02  0.53630885891E+03  0.53945533053E+03  0.00000000000E+00 0.  1.
          5    1    4    4  501    0  0.38905159136E+02  0.49022061521E+02  0.44630067497E+02  0.76981096692E+02  0.41800000000E+01 0.  1.
         -5    1    4    4    0  501 -0.81479623733E+02  0.12632594679E+02  0.42054779931E+02  0.92653054170E+02  0.41800000000E+01 0.  1.
</event>
<event>
11    1  0.8864208E-009  0.3757592E+03  0.7561462E-02  0.9724120E-01
         22   -1    0    0    0    0  0.00000000000E+00  0.00000000000E+00  0.69720610747E+03  0.69720610747E+03  0.00000000000E+00 0. -1.
         22   -1    0    0    0    0 -0.00000000000E+00 -0.00000000000E+00 -0.10449731754E+04  0.10449731754E+04  0.00000000000E+00 0.  1.
        -24    2    1    2    0    0 -0.34115391925E+03 -0.18112799801E+02 -0.79003159120E+03  0.86727182614E+03  0.10628468925E+03 0.  0.
         25    2    1    2    0    0  0.43638462463E+03  0.91690589332E+02  0.62949495630E+02  0.46738517717E+03  0.12509020766E+03 0.  0.
         24    2    1    2    0    0 -0.95230705380E+02 -0.73577789531E+02  0.37931502766E+03  0.40752227955E+03  0.87817650611E+02 0.  0.
        -11    1    5    5    0    0 -0.50455100941E+02  0.12120534284E+02  0.11859533802E+03  0.12945068081E+03  0.00000000000E+00 0.  1.
         12    1    5    5    0    0 -0.44775604439E+02 -0.85698323814E+02  0.26071968965E+03  0.27807159874E+03  0.00000000000E+00 0. -1.
         11    1    3    3    0    0 -0.14904541987E+03  0.36200189568E+02 -0.27465457538E+03  0.31457928521E+03  0.00000000000E+00 0. -1.
        -12    1    3    3    0    0 -0.19210849938E+03 -0.54312989370E+02 -0.51537701583E+03  0.55269254092E+03  0.00000000000E+00 0.  1.
          5    1    4    4  501    0  0.78798294051E+02  0.54405890181E+02  0.48806443396E+02  0.10755795344E+03  0.41800000000E+01 0. -1.
         -5    1    4    4    0  501  0.35758633058E+03  0.37284699151E+02  0.14143052234E+02  0.35982722373E+03  0.41800000000E+01 0. -1.
</event>
<event>
11    1  0.8864208E-009  0.1661026E+03  0.7561462E-02  0.1081474E+00
         22   -1    0    0    0    0  0.00000000000E+00  0.00000000000E+00  0.16274476650E+04  0.16274476650E+04  0.00000000000E+00 0.  1.
         22   -1    0    0    0    0 -0.00000000000E+00 -0.00000000000E+00 -0.13800900905E+03  0.13800900905E+03  0.00000000000E+00 0.  1.
        -24    2    1    2    0    0  0.31262382276E+02  0.95848527270E+02 -0.56576380223E+02  0.14017306926E+03  0.79267432285E+02 0.  0.
         25    2    1    2    0    0 -0.91204226220E+02 -0.15179863781E+03  0.27986326150E+03  0.35402354942E+03  0.12509272994E+03 0.  0.
         24    2    1    2    0    0  0.59941843943E+02  0.55950110537E+02  0.12661517747E+04  0.12712600554E+04  0.78983367608E+02 0.  0.
        -11    1    5    5    0    0  0.75484444966E+02  0.55757088980E+02  0.11793251535E+04  0.11830530723E+04  0.00000000000E+00 0.  1.
         12    1    5    5    0    0 -0.15542601022E+02  0.19302155736E+00  0.86826621261E+02  0.88206983076E+02  0.00000000000E+00 0. -1.
         11    1    3    3    0    0  0.15335831484E+02 -0.10218381488E+02  0.97111399871E+00  0.18453891458E+02  0.00000000000E+00 0. -1.
        -12    1    3    3    0    0  0.15926550792E+02  0.10606690876E+03 -0.57547494222E+02  0.12171917780E+03  0.00000000000E+00 0.  1.
          5    1    4    4  501    0 -0.18156662247E+02  0.63040586221E+00 -0.79131613885E+01  0.20252217623E+02  0.41800000000E+01 0. -1.
         -5    1    4    4    0  501 -0.73047563973E+02 -0.15242904367E+03  0.28777642289E+03  0.33377133179E+03  0.41800000000E+01 0. -1.
</event>
<event>
11    1  0.8864208E-009  0.1750247E+03  0.7561462E-02  0.1073740E+00
         22   -1    0    0    0    0  0.00000000000E+00  0.00000000000E+00  0.77895361364E+03  0.77895361364E+03  0.00000000000E+00 0. -1.
         22   -1    0    0    0    0 -0.00000000000E+00 -0.00000000000E+00 -0.22504724852E+03  0.22504724852E+03  0.00000000000E+00 0.  1.
         24    2    1    2    0    0 -0.14914086175E+02 -0.35464636400E+02 -0.93418772871E+02  0.12895452215E+03  0.80137577053E+02 0.  0.
         25    2    1    2    0    0 -0.10835867595E+03  0.26642938991E+02 -0.39802326550E+02  0.17228946744E+03  0.12509191236E+03 0.  0.
        -24    2    1    2    0    0  0.12327276213E+03  0.88216974083E+01  0.68712746455E+03  0.70275687258E+03  0.80306121749E+02 0.  0.
        -11    1    3    3    0    0  0.19324993191E+02  0.15353614917E+02 -0.13138641186E+02  0.27960914596E+02  0.00000000000E+00 0.  1.
         12    1    3    3    0    0 -0.34239079366E+02 -0.50818251316E+02 -0.80280131684E+02  0.10099360755E+03  0.00000000000E+00 0. -1.
         13    1    5    5    0    0  0.57342308326E+02  0.79525312046E+01  0.51809671232E+03  0.52132100130E+03  0.00000000000E+00 0. -1.
        -14    1    5    5    0    0  0.65930453799E+02  0.86916620369E+00  0.16903075222E+03  0.18143587127E+03  0.00000000000E+00 0.  1.
          5    1    4    4  501    0 -0.17765823417E+02  0.66212670112E+02 -0.16590590620E+02  0.70657358160E+02  0.41800000000E+01 0. -1.
         -5    1    4    4    0  501 -0.90592852533E+02 -0.39569731120E+02 -0.23211735930E+02  0.10163210928E+03  0.41800000000E+01 0. -1.
</event>
<event>
11    1  0.8864208E-009  0.1927318E+03  0.7561462E-02  0.1059786E+00
         22   -1    0    0    0    0  0.00000000000E+00  0.00000000000E+00  0.12656092325E+03  0.12656092325E+03  0.00000000000E+00 0.  1.
         22   -1    0    0    0    0 -0.00000000000E+00 -0.00000000000E+00 -0.14710236504E+04  0.14710236504E+04  0.00000000000E+00 0. -1.
         24    2    1    2    0    0  0.74810041169E+02  0.22636705337E+02 -0.99139785931E+03  0.99755479322E+03  0.78338287857E+02 0.  0.
         25    2    1    2    0    0 -0.19535646255E+03  0.44853175662E+02 -0.36979260562E+03  0.43882864005E+03  0.12509216336E+03 0.  0.
        -24    2    1    2    0    0  0.12054642138E+03 -0.67489880999E+02  0.16727737741E+02  0.16120114042E+03  0.81361334288E+02 0.  0.
        -13    1    3    3    0    0  0.29755118480E+01 -0.17845551591E+02 -0.64282985391E+02  0.66780383296E+02  0.00000000000E+00 0.  1.
         14    1    3    3    0    0  0.71834529321E+02  0.40482256928E+02 -0.92711487392E+03  0.93077440993E+03  0.00000000000E+00 0. -1.
         13    1    5    5    0    0  0.30146739389E+02 -0.44552943861E+02 -0.24646850425E+02  0.59171428395E+02  0.00000000000E+00 0. -1.
        -14    1    5    5    0    0  0.90399681989E+02 -0.22936937138E+02  0.41374588167E+02  0.10202971202E+03  0.00000000000E+00 0.  1.
          5    1    4    4  501    0  0.72588241836E+01 -0.20434080017E+02 -0.22958986665E+02  0.31856390621E+02  0.41800000000E+01 0.  1.
         -5    1    4    4    0  501 -0.20261528673E+03  0.65287255680E+02 -0.34683361896E+03  0.40697224943E+03  0.41800000000E+01 0.  1.
</event>
<event>
11    1  0.8864208E-009  0.1979806E+03  0.7561462E-02  0.1055961E+00
         22   -1    0    0    0    0  0.00000000000E+00  0.00000000000E+00  0.12164771667E+03  0.12164771667E+03  0.00000000000E+00 0.  1.
         22   -1    0    0    0    0 -0.00000000000E+00 -0.00000000000E+00 -0.18554801461E+04  0.18554801461E+04  0.00000000000E+00 0. -1.
         24    2    1    2    0    0 -0.11063699916E+03 -0.39900361185E+02 -0.13002159648E+04  0.13079582240E+04  0.79753220814E+02 0.  0.
         25    2    1    2    0    0  0.20663533157E+03  0.13822637689E+03 -0.42753525934E+03  0.51013561548E+03  0.12508899504E+03 0.  0.
        -24    2    1    2    0    0 -0.95998332414E+02 -0.98326015709E+02 -0.60812052612E+01  0.15903402326E+03  0.79819510798E+02 0.  0.
        -13    1    3    3    0    0 -0.39049918862E+02  0.21051381450E+01 -0.15940797891E+03  0.16413479677E+03  0.00000000000E+00 0.  1.
         14    1    3    3    0    0 -0.71587080298E+02 -0.42005499330E+02 -0.11408079859E+04  0.11438234273E+04  0.00000000000E+00 0. -1.
         13    1    5    5    0    0 -0.47957613005E+01  0.10480048156E+02 -0.12387518140E+02  0.16919850515E+02  0.00000000000E+00 0. -1.
        -14    1    5    5    0    0 -0.91202571113E+02 -0.10880606387E+03  0.63063128785E+01  0.14211417274E+03  0.00000000000E+00 0.  1.
          5    1    4    4  501    0  0.16769693173E+03  0.14907213269E+03 -0.40660902629E+03  0.46442774930E+03  0.41800000000E+01 0.  1.
         -5    1    4    4    0  501  0.38938399847E+02 -0.10845755796E+02 -0.20926233047E+02  0.45707866182E+02  0.41800000000E+01 0.  1.
</event>
<event>
11    1  0.8864208E-009  0.1389324E+03  0.7561462E-02  0.1108756E+00
         22   -1    0    0    0    0  0.00000000000E+00  0.00000000000E+00  0.14130405711E+04  0.14130405711E+04  0.00000000000E+00 0. -1.
         22   -1    0    0    0    0 -0.00000000000E+00 -0.00000000000E+00 -0.43369658256E+03  0.43369658256E+03  0.00000000000E+00 0.  1.
         24    2    1    2    0    0 -0.58604614137E+01  0.42453577619E+02 -0.36225645699E+03  0.37302042626E+03  0.77960544586E+02 0.  0.
         25    2    1    2    0    0 -0.60460202073E+01 -0.10053651710E+03  0.36313638333E+02  0.16465481994E+03  0.12509350010E+03 0.  0.
        -24    2    1    2    0    0  0.11906481621E+02  0.58082939484E+02  0.13052868072E+04  0.13090619074E+04  0.79712209791E+02 0.  0.
        -11    1    3    3    0    0 -0.26327082974E+02  0.56539668281E+02 -0.28939265553E+03  0.29603708967E+03  0.00000000000E+00 0.  1.
         12    1    3    3    0    0  0.20466621560E+02 -0.14086090662E+02 -0.72863801466E+02  0.76983336588E+02  0.00000000000E+00 0. -1.
         11    1    5    5    0    0  0.11282066138E+02  0.18199533375E+02  0.10838285342E+04  0.10840400359E+04  0.00000000000E+00 0. -1.
        -12    1    5    5    0    0  0.62441548330E+00  0.39883406109E+02  0.22145827300E+03  0.22502187151E+03  0.00000000000E+00 0.  1.
          5    1    4    4  501    0  0.10509642146E+02 -0.65726845545E+02  0.81372226456E+02  0.10521113269E+03  0.41800000000E+01 0.  1.
         -5    1    4    4    0  501 -0.16555662353E+02 -0.34809671559E+02 -0.45058588123E+02  0.59443687248E+02  0.41800000000E+01 0.  1.
</event>
<event>
11    1  0.8864208E-009  0.1641891E+03  0.7561462E-02  0.1083202E+00
         22   -1    0    0    0    0  0.00000000000E+00  0.00000000000E+00  0.63832279796E+03  0.63832279796E+03  0.00000000000E+00 0.  1.
         22   -1    0    0    0    0 -0.00000000000E+00 -0.00000000000E+00 -0.17859102892E+03  0.17859102892E+03  0.00000000000E+00 0.  1.
         24    2    1    2    0    0  0.39917173615E+02  0.97121968632E+01 -0.12444300827E+03  0.15332653903E+03  0.79594332371E+02 0.  0.
         25    2    1    2    0    0 -0.10389135393E+03 -0.82161312236E+02  0.26238408339E+03  0.31943281280E+03  0.12509204623E+03 0.  0.
        -24    2    1    2    0    0  0.63974180320E+02  0.72449115373E+02  0.32179069393E+03  0.34415447505E+03  0.74508267538E+02 0.  0.
        -13    1    3    3    0    0  0.33224629865E+02 -0.12786262868E+02 -0.12487436913E+03  0.12984980790E+03  0.00000000000E+00 0.  1.
         14    1    3    3    0    0  0.66925437497E+01  0.22498459731E+02  0.43136085639E+00  0.23476731124E+02  0.00000000000E+00 0. -1.
         13    1    5    5    0    0 -0.52177146060E-01  0.13742033467E+02  0.34416070130E+01  0.14166540336E+02  0.00000000000E+00 0. -1.
        -14    1    5    5    0    0  0.64026357466E+02  0.58707081906E+02  0.31834908691E+03  0.32998793471E+03  0.00000000000E+00 0.  1.
          5    1    4    4  501    0 -0.57729162178E+02 -0.28282248953E+02  0.23432926773E+03  0.24302308509E+03  0.41800000000E+01 0.  1.
         -5    1    4    4    0  501 -0.46162191756E+02 -0.53879063283E+02  0.28054815656E+02  0.76409727715E+02  0.41800000000E+01 0.  1.
</event>
<event>
11    1  0.8864208E-009  0.1372347E+03  0.7561462E-02  0.1110686E+00
         22   -1    0    0    0    0  0.00000000000E+00  0.00000000000E+00  0.51319986324E+03  0.51319986324E+03  0.00000000000E+00 0. -1.
         22   -1    0    0    0    0 -0.00000000000E+00 -0.00000000000E+00 -0.22797796860E+03  0.22797796860E+03  0.00000000000E+00 0.  1.
        -24    2    1    2    0    0 -0.46112711089E+02  0.54088569271E+02 -0.18274732421E+03  0.21202035974E+03  0.80647957106E+02 0.  0.
         25    2    1    2    0    0 -0.12595463193E+02  0.13492639423E+02  0.22817168930E+03  0.26086861311E+03  0.12509762786E+03 0.  0.
         24    2    1    2    0    0  0.58708174281E+02 -0.67581208694E+02  0.23979752956E+03  0.26828885900E+03  0.80387730296E+02 0.  0.
        -13    1    5    5    0    0  0.79001637696E+02 -0.56237743701E+02  0.18912271322E+03  0.21253551052E+03  0.00000000000E+00 0.  1.
         14    1    5    5    0    0 -0.20293463415E+02 -0.11343464993E+02  0.50674816339E+02  0.55753348477E+02  0.00000000000E+00 0. -1.
         13    1    3    3    0    0 -0.47647998056E+02  0.46760954989E+02 -0.62215240670E+02  0.91255985019E+02  0.00000000000E+00 0. -1.
        -14    1    3    3    0    0  0.15352869674E+01  0.73276142821E+01 -0.12053208354E+03  0.12076437472E+03  0.00000000000E+00 0.  1.
          5    1    4    4  501    0 -0.52985430298E+02 -0.27369500838E+02  0.16438974932E+03  0.17492286152E+03  0.41800000000E+01 0.  1.
         -5    1    4    4    0  501  0.40389967105E+02  0.40862140261E+02  0.63781939976E+02  0.85945751591E+02  0.41800000000E+01 0.  1.
</event>
<event>
11    1  0.8864208E-009  0.1757341E+03  0.7561462E-02  0.1073147E+00
         22   -1    0    0    0    0  0.00000000000E+00  0.00000000000E+00  0.16879215935E+04  0.16879215935E+04  0.00000000000E+00 0.  1.
         22   -1    0    0    0    0 -0.00000000000E+00 -0.00000000000E+00 -0.65894713976E+03  0.65894713976E+03  0.00000000000E+00 0. -1.
        -24    2    1    2    0    0  0.11609403741E+03 -0.32099210216E+02 -0.56498832466E+03  0.58293609301E+03  0.78067257572E+02 0.  0.
         25    2    1    2    0    0 -0.15873213487E+03  0.50695314510E+02  0.46198288379E+02  0.21341994721E+03  0.12509151235E+03 0.  0.
         24    2    1    2    0    0  0.42638097459E+02 -0.18596104294E+02  0.15477644900E+04  0.15505126931E+04  0.79692360108E+02 0.  0.
        -11    1    5    5    0    0  0.65193354522E+02 -0.44962962483E+01  0.11568986470E+04  0.11587427970E+04  0.00000000000E+00 0.  1.
         12    1    5    5    0    0 -0.22555257063E+02 -0.14099808046E+02  0.39086584305E+03  0.39176989608E+03  0.00000000000E+00 0. -1.
         13    1    3    3    0    0  0.74738848804E+02  0.15231699104E+02 -0.37946693589E+03  0.38705691521E+03  0.00000000000E+00 0. -1.
        -14    1    3    3    0    0  0.41355188605E+02 -0.47330909320E+02 -0.18552138877E+03  0.19587917779E+03  0.00000000000E+00 0.  1.
          5    1    4    4  501    0 -0.17062141829E+02  0.32146108988E+02 -0.33604681848E+02  0.49711528331E+02  0.41800000000E+01 0. -1.
         -5    1    4    4    0  501 -0.14166999304E+03  0.18549205522E+02  0.79802970227E+02  0.16370841887E+03  0.41800000000E+01 0. -1.
</event>
<event>
11    1  0.8864208E-009  0.1288280E+03  0.7561462E-02  0.1120717E+00
         22   -1    0    0    0    0  0.00000000000E+00  0.00000000000E+00  0.29644915326E+03  0.29644915326E+03  0.00000000000E+00 0.  1.
         22   -1    0    0    0    0 -0.00000000000E+00 -0.00000000000E+00 -0.63679623067E+03  0.63679623067E+03  0.00000000000E+00 0.  1.
        -24    2    1    2    0    0 -0.18533278661E+02  0.24518135017E+02 -0.49459484771E+03  0.50215158098E+03  0.81163572722E+02 0.  0.
         25    2    1    2    0    0  0.14790486694E+02 -0.28347653138E+02 -0.10036479730E+03  0.16352954334E+03  0.12508585481E+03 0.  0.
         24    2    1    2    0    0  0.37427919677E+01  0.38295181204E+01  0.25461256760E+03  0.26756425961E+03  0.82063388549E+02 0.  0.
        -11    1    5    5    0    0 -0.33249490577E+02  0.22701292019E+02  0.13932593629E+03  0.14502618317E+03  0.00000000000E+00 0.  1.
         12    1    5    5    0    0  0.36992282544E+02 -0.18871773898E+02  0.11528663131E+03  0.12253807644E+03  0.00000000000E+00 0. -1.
         11    1    3    3    0    0  0.31072881393E+02 -0.41496778337E+00 -0.19384314006E+03  0.19631825973E+03  0.00000000000E+00 0. -1.
        -12    1    3    3    0    0 -0.49606160055E+02  0.24933102801E+02 -0.30075170765E+03  0.30583332125E+03  0.00000000000E+00 0.  1.
          5    1    4    4  501    0 -0.40694632253E+02 -0.22808539625E+02  0.20081991072E+01  0.46880569938E+02  0.41800000000E+01 0.  1.
         -5    1    4    4    0  501  0.55485118947E+02 -0.55391135125E+01 -0.10237299641E+03  0.11664897341E+03  0.41800000000E+01 0.  1.
</event>
<event>
11    1  0.8864208E-009  0.1753354E+03  0.7561462E-02  0.1073480E+00
         22   -1    0    0    0    0  0.00000000000E+00  0.00000000000E+00  0.49738150020E+03  0.49738150020E+03  0.00000000000E+00 0.  1.
         22   -1    0    0    0    0 -0.00000000000E+00 -0.00000000000E+00 -0.15713913166E+04  0.15713913166E+04  0.00000000000E+00 0. -1.
         24    2    1    2    0    0  0.44347088937E+02 -0.10653574167E+03 -0.11045790290E+04  0.11136216826E+04  0.82109025609E+02 0.  0.
         25    2    1    2    0    0 -0.13189508901E+03  0.12158164352E+03 -0.42826645647E+03  0.48087162210E+03  0.12508776382E+03 0.  0.
        -24    2    1    2    0    0  0.87548000077E+02 -0.15045901851E+02  0.45883566903E+03  0.47427951215E+03  0.80745606599E+02 0.  0.
        -11    1    3    3    0    0 -0.13242954496E+01 -0.65771260324E+02 -0.81455898057E+03  0.81721107755E+03  0.00000000000E+00 0.  1.
         12    1    3    3    0    0  0.45671384387E+02 -0.40764481343E+02 -0.29002004842E+03  0.29641060503E+03  0.00000000000E+00 0. -1.
         13    1    5    5    0    0 -0.15745532929E+02 -0.76659902754E+00  0.61778325287E+02  0.63757908972E+02  0.00000000000E+00 0. -1.
        -14    1    5    5    0    0  0.10329353301E+03 -0.14279302824E+02  0.39705734375E+03  0.41052160317E+03  0.00000000000E+00 0.  1.
          5    1    4    4  501    0 -0.27450554045E+01  0.51153651317E+02 -0.21957484506E+03  0.22551012473E+03  0.41800000000E+01 0. -1.
         -5    1    4    4    0  501 -0.12915003361E+03  0.70427992201E+02 -0.20869161141E+03  0.25536149737E+03  0.41800000000E+01 0. -1.
</event>
<event>
11    1  0.8864208E-009  0.1760275E+03  0.7561462E-02  0.1072902E+00
         22   -1    0    0    0    0  0.00000000000E+00  0.00000000000E+00  0.35167155104E+03  0.35167155104E+03  0.00000000000E+00 0. -1.
         22   -1    0    0    0    0 -0.00000000000E+00 -0.00000000000E+00 -0.20263350990E+04  0.20263350990E+04  0.00000000000E+00 0. -1.
         24    2    1    2    0    0 -0.61682445397E+01 -0.14456467416E+02 -0.18144778244E+04  0.18164436676E+04  0.83010754798E+02 0.  0.
         25    2    1    2    0    0 -0.25167844277E+02  0.13319966396E+03 -0.14922336244E+03  0.23725611056E+03  0.12508908521E+03 0.  0.
        -24    2    1    2    0    0  0.31336088816E+02 -0.11874319654E+03  0.28903763889E+03  0.32430687193E+03  0.80933882272E+02 0.  0.
        -13    1    3    3    0    0 -0.42214773236E+02  0.59790881690E+01 -0.83034662636E+03  0.83144053093E+03  0.00000000000E+00 0.  1.
         14    1    3    3    0    0  0.36046528697E+02 -0.20435555585E+02 -0.98413119809E+03  0.98500313665E+03  0.00000000000E+00 0. -1.
         11    1    5    5    0    0  0.26191820999E+02 -0.12806717929E+03  0.28376160032E+03  0.31242256595E+03  0.00000000000E+00 0. -1.
        -12    1    5    5    0    0  0.51442678177E+01  0.93239827466E+01  0.52760385651E+01  0.11884305978E+02  0.00000000000E+00 0.  1.
          5    1    4    4  501    0 -0.37089414377E+02 -0.15418768645E+01 -0.72827891728E+02  0.81849717511E+02  0.41800000000E+01 0. -1.
         -5    1    4    4    0  501  0.11921570100E+02  0.13474154082E+03 -0.76395470712E+02  0.15540639305E+03  0.41800000000E+01 0. -1.
</event>
<event>
11    1  0.8864208E-009  0.1864698E+03  0.7561462E-02  0.1064526E+00
         22   -1    0    0    0    0  0.00000000000E+00  0.00000000000E+00  0.24959836435E+03  0.24959836435E+03  0.00000000000E+00 0.  1.
         22   -1    0    0    0    0 -0.00000000000E+00 -0.00000000000E+00 -0.63772631555E+03  0.63772631555E+03  0.00000000000E+00 0.  1.
         24    2    1    2    0    0  0.28224553618E+02  0.20606556475E+02 -0.24449927216E+03  0.25942835446E+03  0.79384642188E+02 0.  0.
         25    2    1    2    0    0  0.95930567340E+02 -0.84153516459E+02 -0.33373597329E+03  0.37856596970E+03  0.12509198801E+03 0.  0.
        -24    2    1    2    0    0 -0.12415512096E+03  0.63546959983E+02  0.19010729424E+03  0.24933035574E+03  0.81068691785E+02 0.  0.
        -11    1    3    3    0    0 -0.21211032604E+02  0.29261761608E+02 -0.11494379741E+03  0.12049163938E+03  0.00000000000E+00 0.  1.
         12    1    3    3    0    0  0.49435586223E+02 -0.86552051328E+01 -0.12955547474E+03  0.13893671508E+03  0.00000000000E+00 0. -1.
         11    1    5    5    0    0 -0.97986679012E+02  0.72390935862E+01  0.12958191521E+03  0.16262000643E+03  0.00000000000E+00 0. -1.
        -12    1    5    5    0    0 -0.26168441946E+02  0.56307866397E+02  0.60525379027E+02  0.86710349316E+02  0.00000000000E+00 0.  1.
          5    1    4    4  501    0  0.45082140256E+02 -0.33099929720E+02 -0.28734242124E+03  0.29276465661E+03  0.41800000000E+01 0.  1.
         -5    1    4    4    0  501  0.50848427084E+02 -0.51053586738E+02 -0.46393552052E+02  0.85801313089E+02  0.41800000000E+01 0.  1.
</event>
<event>
11    1  0.8864208E-009  0.1662130E+03  0.7561462E-02  0.1081375E+00
         22   -1    0    0    0    0  0.00000000000E+00  0.00000000000E+00  0.47574239843E+02  0.47574239843E+02  0.00000000000E+00 0. -1.
         22   -1    0    0    0    0 -0.00000000000E+00 -0.00000000000E+00 -0.32258953903E+04  0.32258953903E+04  0.00000000000E+00 0. -1.
        -24    2    1    2    0    0  0.54909333419E+02  0.98995115843E+02 -0.25076597794E+04  0.25115194349E+04  0.80976754918E+02 0.  0.
         25    2    1    2    0    0  0.25758611012E+02 -0.10918796553E+03 -0.59064145220E+03  0.61407627921E+03  0.12508730459E+03 0.  0.
         24    2    1    2    0    0 -0.80667944431E+02  0.10192849685E+02 -0.80019918809E+02  0.14787391598E+03  0.94086641869E+02 0.  0.
        -13    1    5    5    0    0 -0.56168933316E+01 -0.34069909349E+02 -0.37314930849E+02  0.50840065677E+02  0.00000000000E+00 0.  1.
         14    1    5    5    0    0 -0.75051051100E+02  0.44262759034E+02 -0.42704987960E+02  0.97033850305E+02  0.00000000000E+00 0. -1.
         11    1    3    3    0    0  0.52599894625E+02  0.10518219854E+03 -0.18042079507E+04  0.18080366073E+04  0.00000000000E+00 0. -1.
        -12    1    3    3    0    0  0.23094387943E+01 -0.61870826987E+01 -0.70345182871E+03  0.70348282766E+03  0.00000000000E+00 0.  1.
          5    1    4    4  501    0  0.16352698897E+02 -0.13114980755E+03 -0.55774290199E+03  0.57320354143E+03  0.41800000000E+01 0. -1.
         -5    1    4    4    0  501  0.94059121150E+01  0.21961842024E+02 -0.32898550208E+02  0.40872737780E+02  0.41800000000E+01 0. -1.
</event>
<event>
11    1  0.8864208E-009  0.1470197E+03  0.7561462E-02  0.1099964E+00
         22   -1    0    0    0    0  0.00000000000E+00  0.00000000000E+00  0.24254180797E+04  0.24254180797E+04  0.00000000000E+00 0. -1.
         22   -1    0    0    0    0 -0.00000000000E+00 -0.00000000000E+00 -0.24938743399E+03  0.24938743399E+03  0.00000000000E+00 0.  1.
         24    2    1    2    0    0  0.30259337711E+02 -0.72292979008E+02 -0.22254092517E+03  0.24938154166E+03  0.80776157456E+02 0.  0.
         25    2    1    2    0    0  0.90200435077E+01  0.53323040804E+02  0.36243452694E+03  0.38720936433E+03  0.12509035789E+03 0.  0.
        -24    2    1    2    0    0 -0.39279381219E+02  0.18969938204E+02  0.20361370440E+04  0.20382146077E+04  0.81006154000E+02 0.  0.
        -13    1    3    3    0    0  0.24938214506E+02 -0.50802549998E+02 -0.21992293565E+03  0.22708789323E+03  0.00000000000E+00 0.  1.
         14    1    3    3    0    0  0.53211232053E+01 -0.21490429010E+02 -0.26179895250E+01  0.22293648431E+02  0.00000000000E+00 0. -1.
         13    1    5    5    0    0 -0.62544345949E+02  0.14081928894E+01  0.13106699286E+04  0.13121621241E+04  0.00000000000E+00 0. -1.
        -14    1    5    5    0    0  0.23264964730E+02  0.17561745314E+02  0.72546711539E+03  0.72605248363E+03  0.00000000000E+00 0.  1.
          5    1    4    4  501    0 -0.42201201147E+02  0.31333778317E+02  0.60975324291E+02  0.80611473218E+02  0.41800000000E+01 0. -1.
         -5    1    4    4    0  501  0.51221244655E+02  0.21989262487E+02  0.30145920265E+03  0.30659789111E+03  0.41800000000E+01 0. -1.
</event>
<event>
11    1  0.8864208E-009  0.1294674E+03  0.7561462E-02  0.1119925E+00
         22   -1    0    0    0    0  0.00000000000E+00  0.00000000000E+00  0.93501471082E+03  0.93501471082E+03  0.00000000000E+00 0. -1.
         22   -1    0    0    0    0 -0.00000000000E+00 -0.00000000000E+00 -0.12559823340E+04  0.12559823340E+04  0.00000000000E+00 0.  1.
        -24    2    1    2    0    0 -0.11286313938E+02 -0.26747249363E+02 -0.12389726105E+04  0.12417191980E+04  0.77269922384E+02 0.  0.
         25    2    1    2    0    0 -0.81183717145E+01 -0.11516143561E+02  0.36680676180E+03  0.38780453802E+03  0.12508648884E+03 0.  0.
         24    2    1    2    0    0  0.19404685653E+02  0.38263392924E+02  0.55119822561E+03  0.56147330870E+03  0.97939590597E+02 0.  0.
        -11    1    5    5    0    0  0.32800616710E+02  0.65855041651E+02  0.44062568150E+03  0.44672559605E+03  0.00000000000E+00 0.  1.
         12    1    5    5    0    0 -0.13395931057E+02 -0.27591648727E+02  0.11057254411E+03  0.11474771265E+03  0.00000000000E+00 0. -1.
         13    1    3    3    0    0 -0.87288359394E+01  0.10040256532E+02 -0.39508868610E+02  0.41688727816E+02  0.00000000000E+00 0. -1.
        -14    1    3    3    0    0 -0.25574779986E+01 -0.36787505895E+02 -0.11994637419E+04  0.12000304702E+04  0.00000000000E+00 0.  1.
          5    1    4    4  501    0  0.14490107298E+02  0.52005460429E+02  0.21376134757E+03  0.22051285051E+03  0.41800000000E+01 0.  1.
         -5    1    4    4    0  501 -0.22608479013E+02 -0.63521603990E+02  0.15304541422E+03  0.16729168751E+03  0.41800000000E+01 0.  1.
</event>
<event>
11    1  0.8864208E-009  0.1546381E+03  0.7561462E-02  0.1092232E+00
         22   -1    0    0    0    0  0.00000000000E+00  0.00000000000E+00  0.62452473399E+03  0.62452473399E+03  0.00000000000E+00 0. -1.
         22   -1    0    0    0    0 -0.00000000000E+00 -0.00000000000E+00 -0.22401121564E+03  0.22401121564E+03  0.00000000000E+00 0.  1.
        -24    2    1    2    0    0 -0.10973682475E+02  0.82847520097E+02 -0.12113610051E+03  0.16996956232E+03  0.85038602839E+02 0.  0.
         25    2    1    2    0    0 -0.14050943888E+02 -0.12481497640E+03  0.32155862659E+02  0.18016084693E+03  0.12509086259E+03 0.  0.
         24    2    1    2    0    0  0.25024626363E+02  0.41967456307E+02  0.48949375620E+03  0.49840554038E+03  0.80102721637E+02 0.  0.
        -11    1    5    5    0    0  0.11151602316E+02  0.21524073675E+02  0.31509653031E+02  0.39755530633E+02  0.00000000000E+00 0.  1.
         12    1    5    5    0    0  0.13873024047E+02  0.20443382632E+02  0.45798410317E+03  0.45865000975E+03  0.00000000000E+00 0. -1.
         11    1    3    3    0    0 -0.11677983862E+02  0.22508327088E+02  0.86897663313E+01  0.26805076651E+02  0.00000000000E+00 0. -1.
        -12    1    3    3    0    0  0.70430138752E+00  0.60339193009E+02 -0.12982586684E+03  0.14316448566E+03  0.00000000000E+00 0.  1.
          5    1    4    4  501    0  0.41411468686E+02 -0.17576979841E+02  0.38258007154E+02  0.59203103554E+02  0.41800000000E+01 0. -1.
         -5    1    4    4    0  501 -0.55462412573E+02 -0.10723799656E+03 -0.61021444950E+01  0.12095774338E+03  0.41800000000E+01 0. -1.
</event>
<event>
11    1  0.8864208E-009  0.2768523E+03  0.7561462E-02  0.1010493E+00
         22   -1    0    0    0    0  0.00000000000E+00  0.00000000000E+00  0.25777522261E+04  0.25777522261E+04  0.00000000000E+00 0. -1.
         22   -1    0    0    0    0 -0.00000000000E+00 -0.00000000000E+00 -0.16397373463E+03  0.16397373463E+03  0.00000000000E+00 0. -1.
        -24    2    1    2    0    0  0.13281608935E+03 -0.37752359174E+02 -0.84003818535E+02  0.18002133779E+03  0.79282320336E+02 0.  0.
         25    2    1    2    0    0 -0.25330306854E+03  0.20359091292E+03  0.14810391133E+04  0.15214261774E+04  0.12509617859E+03 0.  0.
         24    2    1    2    0    0  0.12048697920E+03 -0.16583855374E+03  0.10167431967E+04  0.10402784455E+04  0.79956101040E+02 0.  0.
        -11    1    5    5    0    0 -0.81587669151E+01 -0.35650466044E+01  0.10203074016E+03  0.10241848940E+03  0.00000000000E+00 0.  1.
         12    1    5    5    0    0  0.12864574611E+03 -0.16227350714E+03  0.91471245652E+03  0.93785995608E+03  0.00000000000E+00 0. -1.
         11    1    3    3    0    0  0.11420050647E+03 -0.53828542282E+02 -0.89577706774E+02  0.15480127000E+03  0.00000000000E+00 0. -1.
        -12    1    3    3    0    0  0.18615582880E+02  0.16076183108E+02  0.55738882396E+01  0.25220067792E+02  0.00000000000E+00 0.  1.
          5    1    4    4  501    0 -0.76497199537E+02  0.14056633409E+03  0.64599452729E+03  0.66553521132E+03  0.41800000000E+01 0.  1.
         -5    1    4    4    0  501 -0.17680586901E+03  0.63024578830E+02  0.83504458602E+03  0.85589096612E+03  0.41800000000E+01 0.  1.
</event>
<event>
11    1  0.8864208E-009  0.1332831E+03  0.7561462E-02  0.1115300E+00
         22   -1    0    0    0    0  0.00000000000E+00  0.00000000000E+00  0.48589335413E+03  0.48589335413E+03  0.00000000000E+00 0.  1.
         22   -1    0    0    0    0 -0.00000000000E+00 -0.00000000000E+00 -0.46809486102E+03  0.46809486102E+03  0.00000000000E+00 0.  1.
        -24    2    1    2    0    0 -0.46706966802E+02 -0.79748284898E+01 -0.40817663326E+03  0.41894159724E+03  0.81601221333E+02 0.  0.
         25    2    1    2    0    0  0.86712412846E+02  0.16548728404E+01  0.73063993131E+02  0.16884193372E+03  0.12508984909E+03 0.  0.
         24    2    1    2    0    0 -0.40005446043E+02  0.63199556493E+01  0.35291113324E+03  0.36620468419E+03  0.88990028710E+02 0.  0.
        -11    1    5    5    0    0 -0.45089709463E+02 -0.92874323541E+01  0.34486488963E+03  0.34792402964E+03  0.00000000000E+00 0.  1.
         12    1    5    5    0    0  0.50842634198E+01  0.15607388003E+02  0.80462436065E+01  0.18280654556E+02  0.00000000000E+00 0. -1.
         11    1    3    3    0    0 -0.35655040549E+02 -0.34101539450E+02 -0.12557210281E+03  0.13491682591E+03  0.00000000000E+00 0. -1.
        -12    1    3    3    0    0 -0.11051926253E+02  0.26126710961E+02 -0.28260453045E+03  0.28402477133E+03  0.00000000000E+00 0.  1.
          5    1    4    4  501    0  0.10032787519E+03  0.36951602480E+02  0.29494882371E+02  0.11098884607E+03  0.41800000000E+01 0. -1.
         -5    1    4    4    0  501 -0.13615462348E+02 -0.35296729639E+02  0.43569110760E+02  0.57853087650E+02  0.41800000000E+01 0. -1.
</event>
<event>
11    1  0.8864208E-009  0.2651350E+03  0.7561462E-02  0.1016132E+00
         22   -1    0    0    0    0  0.00000000000E+00  0.00000000000E+00  0.16890920239E+03  0.16890920239E+03  0.00000000000E+00 0. -1.
         22   -1    0    0    0    0 -0.00000000000E+00 -0.00000000000E+00 -0.68847256636E+03  0.68847256636E+03  0.00000000000E+00 0.  1.
         24    2    1    2    0    0  0.17915648457E+03  0.13867960303E+03 -0.38619614294E+03  0.45600866185E+03  0.86413891272E+02 0.  0.
         25    2    1    2    0    0 -0.21089401071E+03 -0.13938232095E+03 -0.13206572779E+03  0.31143673567E+03  0.12509104174E+03 0.  0.
        -24    2    1    2    0    0  0.31737526137E+02  0.70271792044E+00 -0.13014932461E+01  0.89936371226E+02  0.84137343711E+02 0.  0.
        -11    1    3    3    0    0  0.16846636053E+03  0.14731732224E+03 -0.33407700689E+03  0.40210788925E+03  0.00000000000E+00 0.  1.
         12    1    3    3    0    0  0.10690124038E+02 -0.86377192091E+01 -0.52119136046E+02  0.53900772604E+02  0.00000000000E+00 0. -1.
         11    1    5    5    0    0  0.40978965151E+02  0.34841756801E+02 -0.65323000825E+01  0.54183895635E+02  0.00000000000E+00 0. -1.
        -12    1    5    5    0    0 -0.92414390132E+01 -0.34139038880E+02  0.52308068363E+01  0.35752475591E+02  0.00000000000E+00 0.  1.
          5    1    4    4  501    0 -0.67310498188E+02  0.16902911892E+02 -0.38320432792E+02  0.79387275845E+02  0.41800000000E+01 0.  1.
         -5    1    4    4    0  501 -0.14358351252E+03 -0.15628523285E+03 -0.93745294998E+02  0.23204945983E+03  0.41800000000E+01 0.  1.
</event>
<event>
11    1  0.8864208E-009  0.1639145E+03  0.7561462E-02  0.1083452E+00
         22   -1    0    0    0    0  0.00000000000E+00  0.00000000000E+00  0.60624994413E+03  0.60624994413E+03  0.00000000000E+00 0. -1.
         22   -1    0    0    0    0 -0.00000000000E+00 -0.00000000000E+00 -0.53000489571E+03  0.53000489571E+03  0.00000000000E+00 0. -1.
        -24    2    1    2    0    0 -0.10965054687E+03 -0.47895529962E+02 -0.42377449213E+03  0.44763773718E+03  0.80482913385E+02 0.  0.
         25    2    1    2    0    0  0.11952478590E+03 -0.61321000884E+02  0.19294115596E+02  0.18457469174E+03  0.12509642018E+03 0.  0.
         24    2    1    2    0    0 -0.98742390307E+01  0.10921653085E+03  0.48072542496E+03  0.50404241091E+03  0.10457565006E+03 0.  0.
        -13    1    5    5    0    0  0.28138114644E+02 -0.12386016906E+00  0.43938915273E+02  0.52176595447E+02  0.00000000000E+00 0.  1.
         14    1    5    5    0    0 -0.38012353675E+02  0.10934039102E+03  0.43678650969E+03  0.45186581546E+03  0.00000000000E+00 0. -1.
         13    1    3    3    0    0 -0.11903601169E+03 -0.35500286606E+02 -0.33042119330E+03  0.35299859406E+03  0.00000000000E+00 0. -1.
        -14    1    3    3    0    0  0.93854648141E+01 -0.12395243356E+02 -0.93353298829E+02  0.94639143117E+02  0.00000000000E+00 0.  1.
          5    1    4    4  501    0  0.31553464810E+01 -0.51138624882E+02 -0.27933727414E+02  0.58505390294E+02  0.41800000000E+01 0. -1.
         -5    1    4    4    0  501  0.11636943942E+03 -0.10182376002E+02  0.47227843010E+02  0.12606930145E+03  0.41800000000E+01 0. -1.
</event>
<event>
11    1  0.8864208E-009  0.1800157E+03  0.7561462E-02  0.1069630E+00
         22   -1    0    0    0    0  0.00000000000E+00  0.00000000000E+00  0.72892831114E+03  0.72892831114E+03  0.00000000000E+00 0.  1.
         22   -1    0    0    0    0 -0.00000000000E+00 -0.00000000000E+00 -0.11347279887E+04  0.11347279887E+04  0.00000000000E+00 0.  1.
        -24    2    1    2    0    0 -0.87493453899E+01  0.12798109122E+03 -0.10796303929E+04  0.10902140312E+04  0.80679227231E+02 0.  0.
         25    2    1    2    0    0  0.13975900866E+02 -0.21383775851E+03  0.34263087822E+03  0.42304317900E+03  0.12509076634E+03 0.  0.
         24    2    1    2    0    0 -0.52265554758E+01  0.85856667288E+02  0.33119983712E+03  0.35039908967E+03  0.75415553647E+02 0.  0.
        -13    1    5    5    0    0  0.85996626119E+00  0.33881166596E+02  0.25911445754E+03  0.26132159325E+03  0.00000000000E+00 0.  1.
         14    1    5    5    0    0 -0.60865217370E+01  0.51975500692E+02  0.72085379578E+02  0.89077496417E+02  0.00000000000E+00 0. -1.
         13    1    3    3    0    0 -0.31708389657E+02  0.12965774365E+02 -0.24321798466E+03  0.24561865023E+03  0.00000000000E+00 0. -1.
        -14    1    3    3    0    0  0.22959044267E+02  0.11501531685E+03 -0.83641240825E+03  0.84459538094E+03  0.00000000000E+00 0.  1.
          5    1    4    4  501    0 -0.54553629936E+02 -0.73894683291E+02  0.11703360492E+03  0.14883164932E+03  0.41800000000E+01 0.  1.
         -5    1    4    4    0  501  0.68529530802E+02 -0.13994307522E+03  0.22559727330E+03  0.27421152969E+03  0.41800000000E+01 0.  1.
</event>
<event>
11    1  0.8864208E-009  0.1964556E+03  0.7561462E-02  0.1057059E+00
         22   -1    0    0    0    0  0.00000000000E+00  0.00000000000E+00  0.10535385911E+04  0.10535385911E+04  0.00000000000E+00 0.  1.
         22   -1    0    0    0    0 -0.00000000000E+00 -0.00000000000E+00 -0.13421021009E+03  0.13421021009E+03  0.00000000000E+00 0.  1.
         24    2    1    2    0    0  0.69017193667E+02 -0.13513363946E+03 -0.28413335236E+02  0.17473121562E+03  0.81848680858E+02 0.  0.
         25    2    1    2    0    0 -0.10211630370E+03  0.11566080601E+03  0.30342320025E+03  0.36265450894E+03  0.12508993914E+03 0.  0.
        -24    2    1    2    0    0  0.33099110038E+02  0.19472833442E+02  0.64431851600E+03  0.65036307664E+03  0.79693406647E+02 0.  0.
        -11    1    3    3    0    0  0.42278250063E+02 -0.13810351965E+03 -0.30948576820E+02  0.14770865572E+03  0.00000000000E+00 0.  1.
         12    1    3    3    0    0  0.26738943604E+02  0.29698801951E+01  0.25352415845E+01  0.27022559896E+02  0.00000000000E+00 0. -1.
         13    1    5    5    0    0  0.51863162097E+02  0.32784033229E+02  0.36715510309E+03  0.37224649111E+03  0.00000000000E+00 0. -1.
        -14    1    5    5    0    0 -0.18764052059E+02 -0.13311199787E+02  0.27716341291E+03  0.27811658553E+03  0.00000000000E+00 0.  1.
          5    1    4    4  501    0 -0.36722046658E+02  0.10724428680E+03  0.25980374300E+03  0.28348774760E+03  0.41800000000E+01 0.  1.
         -5    1    4    4    0  501 -0.65394257046E+02  0.84165192185E+01  0.43619457245E+02  0.79166761338E+02  0.41800000000E+01 0.  1.
</event>
<event>
11    1  0.8864208E-009  0.2161251E+03  0.7561462E-02  0.1043672E+00
         22   -1    0    0    0    0  0.00000000000E+00  0.00000000000E+00  0.11693558775E+04  0.11693558775E+04  0.00000000000E+00 0.  1.
         22   -1    0    0    0    0 -0.00000000000E+00 -0.00000000000E+00 -0.13669465147E+03  0.13669465147E+03  0.00000000000E+00 0.  1.
        -24    2    1    2    0    0  0.31156789900E+01  0.61188550859E+02 -0.45437878574E+02  0.11052293965E+03  0.79981080061E+02 0.  0.
         25    2    1    2    0    0  0.17062427978E+03 -0.82789100111E+02  0.22085317412E+03  0.31684488067E+03  0.12509146229E+03 0.  0.
         24    2    1    2    0    0 -0.17373995877E+03  0.21600549252E+02  0.85724593046E+03  0.87868270862E+03  0.80997284802E+02 0.  0.
        -13    1    5    5    0    0 -0.15494549738E+03  0.50157292450E+01  0.81456293209E+03  0.82918395729E+03  0.00000000000E+00 0.  1.
         14    1    5    5    0    0 -0.18794461387E+02  0.16584820007E+02  0.42682998372E+02  0.49498751332E+02  0.00000000000E+00 0. -1.
         11    1    3    3    0    0 -0.47387214289E+01 -0.75646709019E+01 -0.40139420165E+02  0.41119980275E+02  0.00000000000E+00 0. -1.
        -12    1    3    3    0    0  0.78544004190E+01  0.68753221761E+02 -0.52984584091E+01  0.69402959375E+02  0.00000000000E+00 0.  1.
          5    1    4    4  501    0  0.14573592036E+03 -0.23470894604E+02  0.20095591909E+03  0.24938042264E+03  0.41800000000E+01 0.  1.
         -5    1    4    4    0  501  0.24888359417E+02 -0.59318205508E+02  0.19897255027E+02  0.67464458026E+02  0.41800000000E+01 0.  1.
</event>
<event>
11    1  0.1750481E-008  0.1640158E+03  0.7561462E-02  0.1083360E+00
         22   -1    0    0    0    0  0.00000000000E+00  0.00000000000E+00  0.13084265243E+04  0.13084265243E+04  0.00000000000E+00 0.  1.
         22   -1    0    0    0    0 -0.00000000000E+00 -0.00000000000E+00 -0.13910289651E+04  0.13910289651E+04  0.00000000000E+00 0.  1.
         24    2    1    2    0    0 -0.37454744427E+02 -0.13769777484E+02 -0.11076715167E+04  0.11112811056E+04  0.80106442422E+02 0.  0.
         25    2    1    2    0    0 -0.53287551173E+02 -0.41908346960E+02 -0.26065942445E+03  0.29696321136E+03  0.12509172913E+03 0.  0.
        -24    2    1    2    0    0  0.90742295599E+02  0.55678124444E+02  0.12857285003E+04  0.12912111724E+04  0.52861116714E+02 0.  0.
        -11    1    3    3    0    0 -0.24157472518E+02 -0.97063844075E+01 -0.10799902191E+04  0.10803039715E+04  0.00000000000E+00 0.  1.
         12    1    3    3    0    0 -0.13297271909E+02 -0.40633930764E+01 -0.27681297558E+02  0.30977134115E+02  0.00000000000E+00 0. -1.
         13    1    5    5    0    0  0.17759886027E+02  0.15904100331E+02  0.11026675657E+03  0.11281450068E+03  0.00000000000E+00 0. -1.
        -14    1    5    5    0    0  0.72982409572E+02  0.39774024113E+02  0.11754617437E+04  0.11783966718E+04  0.00000000000E+00 0.  1.
          5    1    4    4  501    0  0.33108418336E+02  0.16518903097E+02 -0.56484178389E+02  0.67653354185E+02  0.41800000000E+01 0.  1.
         -5    1    4    4    0  501 -0.86395969509E+02 -0.58427250057E+02 -0.20417524606E+03  0.22930985718E+03  0.41800000000E+01 0.  1.
</event>
<event>
11    1  0.8864208E-009  0.1907294E+03  0.7561462E-02  0.1061280E+00
         22   -1    0    0    0    0  0.00000000000E+00  0.00000000000E+00  0.11134793501E+04  0.11134793501E+04  0.00000000000E+00 0. -1.
         22   -1    0    0    0    0 -0.00000000000E+00 -0.00000000000E+00 -0.30606051334E+04  0.30606051334E+04  0.00000000000E+00 0.  1.
         24    2    1    2    0    0 -0.66711260366E+02  0.12924214231E+03 -0.30060388100E+04  0.30106366574E+04  0.80683531393E+02 0.  0.
         25    2    1    2    0    0  0.90021417301E+02 -0.23938396566E+02  0.79976815762E+02  0.17527100581E+03  0.12508689785E+03 0.  0.
        -24    2    1    2    0    0 -0.23310156935E+02 -0.10530374574E+03  0.97893621098E+03  0.98817682022E+03  0.80901672231E+02 0.  0.
        -11    1    3    3    0    0  0.33000756118E+01  0.74294514723E+02 -0.10916400084E+04  0.10941702214E+04  0.00000000000E+00 0.  1.
         12    1    3    3    0    0 -0.70011335978E+02  0.54947627585E+02 -0.19143988016E+04  0.19164664360E+04  0.00000000000E+00 0. -1.
         11    1    5    5    0    0 -0.41234717352E+02 -0.99968331712E+02  0.92027117710E+03  0.92660294013E+03  0.00000000000E+00 0. -1.
        -12    1    5    5    0    0  0.17924560417E+02 -0.53354140304E+01  0.58665033879E+02  0.61573880088E+02  0.00000000000E+00 0.  1.
          5    1    4    4  501    0 -0.24144897043E+02 -0.10945044248E+02  0.49522407959E+02  0.56326826086E+02  0.41800000000E+01 0.  1.
         -5    1    4    4    0  501  0.11416631434E+03 -0.12993352318E+02  0.30454407803E+02  0.11894417972E+03  0.41800000000E+01 0.  1.
</event>
<event>
11    1  0.8864208E-009  0.1383569E+03  0.7561462E-02  0.1109407E+00
         22   -1    0    0    0    0  0.00000000000E+00  0.00000000000E+00  0.51606456428E+03  0.51606456428E+03  0.00000000000E+00 0. -1.
         22   -1    0    0    0    0 -0.00000000000E+00 -0.00000000000E+00 -0.14944871979E+04  0.14944871979E+04  0.00000000000E+00 0.  1.
        -24    2    1    2    0    0 -0.19295949792E+02  0.55741483205E+02 -0.14647185954E+04  0.14677206251E+04  0.72964531969E+02 0.  0.
         25    2    1    2    0    0  0.18945477871E+02 -0.87229977026E+02  0.26905252672E+03  0.30984252812E+03  0.12508049438E+03 0.  0.
         24    2    1    2    0    0  0.35047192100E+00  0.31488493821E+02  0.21724343506E+03  0.23298860900E+03  0.78085426103E+02 0.  0.
        -13    1    5    5    0    0  0.12350114186E+02 -0.21092085292E+02  0.33336826915E+02  0.41336973899E+02  0.00000000000E+00 0.  1.
         14    1    5    5    0    0 -0.11999642265E+02  0.52580579113E+02  0.18390660815E+03  0.19165163510E+03  0.00000000000E+00 0. -1.
         13    1    3    3    0    0  0.13221868114E+02 -0.57227245337E+01 -0.82098624998E+02  0.83353173899E+02  0.00000000000E+00 0. -1.
        -14    1    3    3    0    0 -0.32517817907E+02  0.61464207738E+02 -0.13826199704E+04  0.13843674512E+04  0.00000000000E+00 0.  1.
          5    1    4    4  501    0 -0.11838336904E+02 -0.14758320241E+02 -0.86089326654E+01  0.21202366816E+02  0.41800000000E+01 0. -1.
         -5    1    4    4    0  501  0.30783814775E+02 -0.72471656785E+02  0.27766145938E+03  0.28864016130E+03  0.41800000000E+01 0. -1.
</event>
<event>
11    1  0.8864208E-009  0.1262214E+03  0.7561462E-02  0.1124001E+00
         22   -1    0    0    0    0  0.00000000000E+00  0.00000000000E+00  0.37828881196E+02  0.37828881196E+02  0.00000000000E+00 0.  1.
         22   -1    0    0    0    0 -0.00000000000E+00 -0.00000000000E+00 -0.18715479251E+04  0.18715479251E+04  0.00000000000E+00 0. -1.
         24    2    1    2    0    0 -0.18449459466E+02 -0.56128613757E+01 -0.12229743220E+04  0.12257052503E+04  0.79468745234E+02 0.  0.
         25    2    1    2    0    0  0.12733228493E+01  0.10979677389E+02 -0.58444145388E+03  0.59778093728E+03  0.12509221118E+03 0.  0.
        -24    2    1    2    0    0  0.17176136617E+02 -0.53668160130E+01 -0.26303267991E+02  0.85890618725E+02  0.79759100388E+02 0.  0.
        -13    1    3    3    0    0 -0.41703172535E+02 -0.10645480910E+02 -0.38588492493E+03  0.38827780795E+03  0.00000000000E+00 0.  1.
         14    1    3    3    0    0  0.23253713069E+02  0.50326195342E+01 -0.83708939711E+03  0.83742744234E+03  0.00000000000E+00 0. -1.
         11    1    5    5    0    0  0.75376244067E+01 -0.24344341995E+02 -0.48717389556E+02  0.54980422097E+02  0.00000000000E+00 0. -1.
        -12    1    5    5    0    0  0.96385122100E+01  0.18977525982E+02  0.22414121565E+02  0.30910196628E+02  0.00000000000E+00 0.  1.
          5    1    4    4  501    0  0.52038879106E+02 -0.10247854286E+02 -0.43917925988E+03  0.44239005207E+03  0.41800000000E+01 0.  1.
         -5    1    4    4    0  501 -0.50765556256E+02  0.21227531674E+02 -0.14526219400E+03  0.15539088521E+03  0.41800000000E+01 0.  1.
</event>
<event>
11    1  0.8864208E-009  0.2763804E+03  0.7561462E-02  0.1010715E+00
         22   -1    0    0    0    0  0.00000000000E+00  0.00000000000E+00  0.34977845266E+03  0.34977845266E+03  0.00000000000E+00 0. -1.
         22   -1    0    0    0    0 -0.00000000000E+00 -0.00000000000E+00 -0.16281715597E+04  0.16281715597E+04  0.00000000000E+00 0.  1.
        -24    2    1    2    0    0 -0.67071605035E+02  0.14186035221E+03 -0.11603093580E+04  0.11736763788E+04  0.81089309363E+02 0.  0.
         25    2    1    2    0    0 -0.33701546892E+02 -0.35209158842E+03 -0.31380488691E+03  0.48910616094E+03  0.12508816380E+03 0.  0.
         24    2    1    2    0    0  0.10077315193E+03  0.21023123621E+03  0.19572113788E+03  0.31516747264E+03  0.81678462075E+02 0.  0.
        -13    1    5    5    0    0  0.32616051670E+02  0.10161410507E+02  0.40201135830E+02  0.52755970393E+02  0.00000000000E+00 0.  1.
         14    1    5    5    0    0  0.68157100257E+02  0.20006982570E+03  0.15552000205E+03  0.26241150225E+03  0.00000000000E+00 0. -1.
         13    1    3    3    0    0 -0.57105248407E+02  0.30972171497E+02 -0.39343325571E+03  0.39876059422E+03  0.00000000000E+00 0. -1.
        -14    1    3    3    0    0 -0.99663566279E+01  0.11088818071E+03 -0.76687610228E+03  0.77491578455E+03  0.00000000000E+00 0.  1.
          5    1    4    4  501    0  0.47475172829E+02 -0.13719884839E+03 -0.12886226859E+03  0.19416583814E+03  0.41800000000E+01 0. -1.
         -5    1    4    4    0  501 -0.81176719722E+02 -0.21489274002E+03 -0.18494261832E+03  0.29494032279E+03  0.41800000000E+01 0. -1.
</event>
<event>
11    1  0.8864208E-009  0.1488494E+03  0.7561462E-02  0.1098060E+00
         22   -1    0    0    0    0  0.00000000000E+00  0.00000000000E+00  0.67011578460E+03  0.67011578460E+03  0.00000000000E+00 0. -1.
         22   -1    0    0    0    0 -0.00000000000E+00 -0.00000000000E+00 -0.31526286449E+03  0.31526286449E+03  0.00000000000E+00 0.  1.
         24    2    1    2    0    0 -0.16765490914E+02 -0.68956788074E+01 -0.26455448762E+03  0.27675680099E+03  0.79225109054E+02 0.  0.
         25    2    1    2    0    0  0.91956115535E+02  0.28145579866E+02  0.12411567117E+03  0.20074951780E+03  0.12509024030E+03 0.  0.
        -24    2    1    2    0    0 -0.75190624621E+02 -0.21249901058E+02  0.49529173655E+03  0.50787233030E+03  0.80716858618E+02 0.  0.
        -11    1    3    3    0    0  0.80661822222E+01  0.23646036909E+02 -0.19694586774E+03  0.19852423826E+03  0.00000000000E+00 0.  1.
         12    1    3    3    0    0 -0.24831673136E+02 -0.30541715717E+02 -0.67608619877E+02  0.78232562731E+02  0.00000000000E+00 0. -1.
         13    1    5    5    0    0 -0.30148140203E+02 -0.10869247495E+02  0.40657524427E+03  0.40783633991E+03  0.00000000000E+00 0. -1.
        -14    1    5    5    0    0 -0.45042484418E+02 -0.10380653563E+02  0.88716492281E+02  0.10003599039E+03  0.00000000000E+00 0.  1.
          5    1    4    4  501    0  0.10214269885E+03  0.53686124663E+02  0.58412005380E+02  0.12940156754E+03  0.41800000000E+01 0.  1.
         -5    1    4    4    0  501 -0.10186583314E+02 -0.25540544797E+02  0.65703665792E+02  0.71347950263E+02  0.41800000000E+01 0.  1.
</event>
<event>
11    1  0.8864208E-009  0.1431706E+03  0.7561462E-02  0.1104069E+00
         22   -1    0    0    0    0  0.00000000000E+00  0.00000000000E+00  0.21175349017E+04  0.21175349017E+04  0.00000000000E+00 0. -1.
         22   -1    0    0    0    0 -0.00000000000E+00 -0.00000000000E+00 -0.44070321819E+03  0.44070321819E+03  0.00000000000E+00 0.  1.
         24    2    1    2    0    0 -0.71617465847E+01  0.68807555478E+02 -0.41872798420E+03  0.43168071511E+03  0.78926198085E+02 0.  0.
         25    2    1    2    0    0  0.78735060819E+01 -0.10109963815E+03  0.43614151111E+03  0.46492071403E+03  0.12509485874E+03 0.  0.
        -24    2    1    2    0    0 -0.71175949716E+00  0.32292082677E+02  0.16594181565E+04  0.16616366907E+04  0.79527280840E+02 0.  0.
        -13    1    3    3    0    0 -0.31503761772E+02  0.56860375760E+02 -0.37215097379E+03  0.37778556964E+03  0.00000000000E+00 0.  1.
         14    1    3    3    0    0  0.24342015187E+02  0.11947179718E+02 -0.46577010404E+02  0.53895145466E+02  0.00000000000E+00 0. -1.
         13    1    5    5    0    0  0.32998552095E+02  0.17793847051E+02  0.12542468687E+04  0.12548070502E+04  0.00000000000E+00 0. -1.
        -14    1    5    5    0    0 -0.33710311592E+02  0.14498235626E+02  0.40517128781E+03  0.40682964053E+03  0.00000000000E+00 0.  1.
          5    1    4    4  501    0 -0.48296003769E+02 -0.97499850934E+01  0.92166784964E+02  0.10459328296E+03  0.41800000000E+01 0.  1.
         -5    1    4    4    0  501  0.56169509851E+02 -0.91349653061E+02  0.34397472615E+03  0.36032743107E+03  0.41800000000E+01 0.  1.
</event>
<event>
11    1  0.8864208E-009  0.1357555E+03  0.7561462E-02  0.1112393E+00
         22   -1    0    0    0    0  0.00000000000E+00  0.00000000000E+00  0.17117469192E+04  0.17117469192E+04  0.00000000000E+00 0.  1.
         22   -1    0    0    0    0 -0.00000000000E+00 -0.00000000000E+00 -0.71291932991E+03  0.71291932991E+03  0.00000000000E+00 0. -1.
        -24    2    1    2    0    0 -0.53424366470E+01  0.37627596671E+02 -0.68597831738E+03  0.69099095557E+03  0.73877405934E+02 0.  0.
         25    2    1    2    0    0 -0.25559387568E+02 -0.78413770333E+02  0.22079879278E+03  0.26683635474E+03  0.12509009413E+03 0.  0.
         24    2    1    2    0    0  0.30901824215E+02  0.40786173663E+02  0.14640071139E+04  0.14668389388E+04  0.75373789615E+02 0.  0.
        -11    1    5    5    0    0  0.44534280968E+02  0.12639251852E+02  0.12141379408E+04  0.12150201612E+04  0.00000000000E+00 0.  1.
         12    1    5    5    0    0 -0.13632456752E+02  0.28146921811E+02  0.24986917315E+03  0.25181877765E+03  0.00000000000E+00 0. -1.
         11    1    3    3    0    0  0.30346653612E+02  0.20750445735E+02 -0.46989385132E+03  0.47132974857E+03  0.00000000000E+00 0. -1.
        -12    1    3    3    0    0 -0.35689090259E+02  0.16877150936E+02 -0.21608446606E+03  0.21966120700E+03  0.00000000000E+00 0.  1.
          5    1    4    4  501    0 -0.56105420601E+02  0.28972154788E+01  0.50664868464E+02  0.75766835587E+02  0.41800000000E+01 0. -1.
         -5    1    4    4    0  501  0.30546033033E+02 -0.81310985812E+02  0.17013392432E+03  0.19106951916E+03  0.41800000000E+01 0. -1.
</event>
<event>
11    1  0.8864208E-009  0.1587333E+03  0.7561462E-02  0.1088275E+00
         22   -1    0    0    0    0  0.00000000000E+00  0.00000000000E+00  0.27530461739E+04  0.27530461739E+04  0.00000000000E+00 0.  1.
         22   -1    0    0    0    0 -0.00000000000E+00 -0.00000000000E+00 -0.37277695040E+03  0.37277695040E+03  0.00000000000E+00 0. -1.
         24    2    1    2    0    0 -0.55479720637E+02 -0.80686427437E+02 -0.35755614315E+03  0.37835260200E+03  0.75604212577E+02 0.  0.
         25    2    1    2    0    0  0.51244344742E+02  0.43825038389E+02  0.16635142312E+04  0.16695729712E+04  0.12509073460E+03 0.  0.
        -24    2    1    2    0    0  0.42353758947E+01  0.36861389048E+02  0.10743111354E+04  0.10778975511E+04  0.79636766096E+02 0.  0.
        -13    1    3    3    0    0 -0.38430875388E+02 -0.38110326185E+00 -0.77412657972E+02  0.86427987580E+02  0.00000000000E+00 0.  1.
         14    1    3    3    0    0 -0.17048845249E+02 -0.80305324175E+02 -0.28014348518E+03  0.29192461442E+03  0.00000000000E+00 0. -1.
         13    1    5    5    0    0  0.14750777622E+02  0.49396026795E+02  0.39018154558E+03  0.39357234585E+03  0.00000000000E+00 0. -1.
        -14    1    5    5    0    0 -0.10515401727E+02 -0.12534637747E+02  0.68412958983E+03  0.68432520521E+03  0.00000000000E+00 0.  1.
          5    1    4    4  501    0  0.43720749943E+02 -0.55913226083E+01  0.18559953126E+03  0.19080729878E+03  0.41800000000E+01 0.  1.
         -5    1    4    4    0  501  0.75235947992E+01  0.49416360997E+02  0.14779147000E+04  0.14787656724E+04  0.41800000000E+01 0.  1.
</event>
<event>
11    1  0.8864208E-009  0.1314095E+03  0.7561462E-02  0.1117549E+00
         22   -1    0    0    0    0  0.00000000000E+00  0.00000000000E+00  0.78151976552E+03  0.78151976552E+03  0.00000000000E+00 0.  1.
         22   -1    0    0    0    0 -0.00000000000E+00 -0.00000000000E+00 -0.19046354415E+03  0.19046354415E+03  0.00000000000E+00 0.  1.
        -24    2    1    2    0    0  0.11468520497E+02 -0.37344730867E+02 -0.14773872787E+03  0.17200670511E+03  0.78952004431E+02 0.  0.
         25    2    1    2    0    0 -0.18978483669E+02  0.53896997660E+02  0.14267497385E+03  0.19816264532E+03  0.12508883499E+03 0.  0.
         24    2    1    2    0    0  0.75099631714E+01 -0.16552266793E+02  0.59611997540E+03  0.60181395924E+03  0.80564504507E+02 0.  0.
        -11    1    5    5    0    0  0.24575152062E+02  0.11235493548E+02  0.49121184210E+03  0.49195451846E+03  0.00000000000E+00 0.  1.
         12    1    5    5    0    0 -0.17065188890E+02 -0.27787760342E+02  0.10490813330E+03  0.10985944078E+03  0.00000000000E+00 0. -1.
         11    1    3    3    0    0 -0.23476305696E+01 -0.42371424064E+02 -0.26828180023E+02  0.50205579270E+02  0.00000000000E+00 0. -1.
        -12    1    3    3    0    0  0.13816151067E+02  0.50266931971E+01 -0.12091054785E+03  0.12180112584E+03  0.00000000000E+00 0.  1.
          5    1    4    4  501    0 -0.29060810524E+02 -0.26333656257E+02  0.98106929750E+02  0.10573757244E+03  0.41800000000E+01 0. -1.
         -5    1    4    4    0  501  0.10082326855E+02  0.80230653917E+02  0.44568044098E+02  0.92425072884E+02  0.41800000000E+01 0. -1.
</event>
<event>
11    1  0.8864208E-009  0.1529523E+03  0.7561462E-02  0.1093900E+00
         22   -1    0    0    0    0  0.00000000000E+00  0.00000000000E+00  0.57082242919E+03  0.57082242919E+03  0.00000000000E+00 0. -1.
         22   -1    0    0    0    0 -0.00000000000E+00 -0.00000000000E+00 -0.20832103543E+04  0.20832103543E+04  0.00000000000E+00 0.  1.
         24    2    1    2    0    0 -0.30861867099E+02 -0.68983871188E+01 -0.18019216795E+04  0.18040440056E+04  0.81565878710E+02 0.  0.
         25    2    1    2    0    0  0.83454741219E+02  0.76770253695E+02 -0.24770150194E+03  0.29977101049E+03  0.12509300134E+03 0.  0.
        -24    2    1    2    0    0 -0.52592874120E+02 -0.69871866577E+02  0.53723525638E+03  0.55021776732E+03  0.80434959060E+02 0.  0.
        -13    1    3    3    0    0 -0.17821969648E+02 -0.89634616938E+01 -0.17595508804E+04  0.17596639642E+04  0.00000000000E+00 0.  1.
         14    1    3    3    0    0 -0.13039897451E+02  0.20650745750E+01 -0.42370799132E+02  0.44380041433E+02  0.00000000000E+00 0. -1.
         11    1    5    5    0    0 -0.95169286701E+01 -0.73951534099E+02  0.30461010146E+03  0.31360279852E+03  0.00000000000E+00 0. -1.
        -12    1    5    5    0    0 -0.43075945450E+02  0.40796675228E+01  0.23262515491E+03  0.23661496881E+03  0.00000000000E+00 0.  1.
          5    1    4    4  501    0  0.10488690013E+03  0.43580762264E+02 -0.11679861043E+03  0.16297218308E+03  0.41800000000E+01 0. -1.
         -5    1    4    4    0  501 -0.21432158911E+02  0.33189491431E+02 -0.13090289150E+03  0.13679882741E+03  0.41800000000E+01 0. -1.
</event>
<event>
11    1  0.8864208E-009  0.1528351E+03  0.7561462E-02  0.1094017E+00
         22   -1    0    0    0    0  0.00000000000E+00  0.00000000000E+00  0.14751456585E+03  0.14751456585E+03  0.00000000000E+00 0. -1.
         22   -1    0    0    0    0 -0.00000000000E+00 -0.00000000000E+00 -0.98524556244E+03  0.98524556244E+03  0.00000000000E+00 0.  1.
         24    2    1    2    0    0  0.16707345395E+02  0.80473072179E+02 -0.68381481490E+03  0.69356058626E+03  0.81661098475E+02 0.  0.
         25    2    1    2    0    0  0.15801121497E+02 -0.12513455239E+03 -0.24828285821E+03  0.30528724653E+03  0.12509034164E+03 0.  0.
        -24    2    1    2    0    0 -0.32508466891E+02  0.44661480210E+02  0.94366676516E+02  0.13391229549E+03  0.77304495431E+02 0.  0.
        -13    1    3    3    0    0  0.48011712549E+02  0.39383089613E+02 -0.43771535800E+03  0.44209827744E+03  0.00000000000E+00 0.  1.
         14    1    3    3    0    0 -0.31304367155E+02  0.41089982566E+02 -0.24609945690E+03  0.25146230882E+03  0.00000000000E+00 0. -1.
         11    1    5    5    0    0 -0.32261061042E+02  0.61185074019E+02  0.94835245932E+02  0.11738020793E+03  0.00000000000E+00 0. -1.
        -12    1    5    5    0    0 -0.24740584898E+00 -0.16523593809E+02 -0.46856941646E+00  0.16532087566E+02  0.00000000000E+00 0.  1.
          5    1    4    4  501    0  0.64059584690E+02 -0.30901334571E+02 -0.11047447544E+03  0.13145571495E+03  0.41800000000E+01 0. -1.
         -5    1    4    4    0  501 -0.48258463194E+02 -0.94233217818E+02 -0.13780838276E+03  0.17383153158E+03  0.41800000000E+01 0. -1.
</event>
<event>
11    1  0.8864208E-009  0.1405798E+03  0.7561462E-02  0.1106913E+00
         22   -1    0    0    0    0  0.00000000000E+00  0.00000000000E+00  0.18095572772E+03  0.18095572772E+03  0.00000000000E+00 0. -1.
         22   -1    0    0    0    0 -0.00000000000E+00 -0.00000000000E+00 -0.13591203983E+04  0.13591203983E+04  0.00000000000E+00 0.  1.
        -24    2    1    2    0    0  0.40048133795E+01  0.63338859555E+02 -0.10629375347E+04  0.10675623660E+04  0.76324000581E+02 0.  0.
         25    2    1    2    0    0  0.31969912449E+02 -0.70925279633E+02 -0.26223935261E+03  0.30078092207E+03  0.12508882615E+03 0.  0.
         24    2    1    2    0    0 -0.35974725829E+02  0.75864200783E+01  0.14701221673E+03  0.17173283790E+03  0.80795056021E+02 0.  0.
        -11    1    5    5    0    0 -0.17823751805E+02 -0.21744344632E+02  0.90686969502E+01  0.29542239527E+02  0.00000000000E+00 0.  1.
         12    1    5    5    0    0 -0.18150974024E+02  0.29330764710E+02  0.13794351978E+03  0.14219059838E+03  0.00000000000E+00 0. -1.
         11    1    3    3    0    0  0.29983271938E+02 -0.16205776407E+00 -0.26901513610E+03  0.27068093082E+03  0.00000000000E+00 0. -1.
        -12    1    3    3    0    0 -0.25978458558E+02  0.63500917319E+02 -0.79392239856E+03  0.79688143518E+03  0.00000000000E+00 0.  1.
          5    1    4    4  501    0  0.27520964519E+02  0.17389773356E+02 -0.16920491948E+03  0.17235888397E+03  0.41800000000E+01 0. -1.
         -5    1    4    4    0  501  0.44489479302E+01 -0.88315052989E+02 -0.93034433132E+02  0.12842203810E+03  0.41800000000E+01 0. -1.
</event>
<event>
11    1  0.8864208E-009  0.1380862E+03  0.7561462E-02  0.1109714E+00
         22   -1    0    0    0    0  0.00000000000E+00  0.00000000000E+00  0.85906782358E+03  0.85906782358E+03  0.00000000000E+00 0.  1.
         22   -1    0    0    0    0 -0.00000000000E+00 -0.00000000000E+00 -0.14343772977E+03  0.14343772977E+03  0.00000000000E+00 0.  1.
        -24    2    1    2    0    0 -0.67115984777E+01 -0.46503476063E+02 -0.16487611257E+02  0.95168787415E+02  0.81102638262E+02 0.  0.
         25    2    1    2    0    0 -0.15345690278E+02  0.99053679462E+02 -0.81537234808E+01  0.16049306801E+03  0.12507765607E+03 0.  0.
         24    2    1    2    0    0  0.22057288756E+02 -0.52550203399E+02  0.74027142855E+03  0.74684369793E+03  0.80781639953E+02 0.  0.
        -13    1    5    5    0    0  0.49917668449E+02 -0.27843994896E+02  0.33264759914E+03  0.33752257241E+03  0.00000000000E+00 0.  1.
         14    1    5    5    0    0 -0.27860379693E+02 -0.24706208504E+02  0.40762382941E+03  0.40932112552E+03  0.00000000000E+00 0. -1.
         11    1    3    3    0    0 -0.34916586312E+02 -0.51926487830E+02 -0.10976632681E+01  0.62583807831E+02  0.00000000000E+00 0. -1.
        -12    1    3    3    0    0  0.28204987834E+02  0.54230117669E+01 -0.15389947989E+02  0.32584979584E+02  0.00000000000E+00 0.  1.
          5    1    4    4  501    0 -0.44349469638E+02  0.10239039536E+03  0.26727000259E+02  0.11481495313E+03  0.41800000000E+01 0.  1.
         -5    1    4    4    0  501  0.29003779360E+02 -0.33367159011E+01 -0.34880723740E+02  0.45678114877E+02  0.41800000000E+01 0.  1.
</event>
<event>
11    1  0.8864208E-009  0.5023204E+03  0.7561462E-02  0.9388351E-01
         22   -1    0    0    0    0  0.00000000000E+00  0.00000000000E+00  0.65926191964E+03  0.65926191964E+03  0.00000000000E+00 0. -1.
         22   -1    0    0    0    0 -0.00000000000E+00 -0.00000000000E+00 -0.57934554855E+03  0.57934554855E+03  0.00000000000E+00 0. -1.
         24    2    1    2    0    0  0.75279960719E+02 -0.46917646581E+03 -0.19052706632E+03  0.51813215591E+03  0.79791850639E+02 0.  0.
         25    2    1    2    0    0  0.13999766295E+02  0.51851521056E+03  0.18962213299E+03  0.56626614705E+03  0.12508708541E+03 0.  0.
        -24    2    1    2    0    0 -0.89279727014E+02 -0.49338744750E+02  0.80821304424E+02  0.15420916523E+03  0.82723648382E+02 0.  0.
        -13    1    3    3    0    0  0.94572048969E+01 -0.18708267231E+03 -0.11101237570E+03  0.21774552249E+03  0.00000000000E+00 0.  1.
         14    1    3    3    0    0  0.65822755822E+02 -0.28209379350E+03 -0.79514690623E+02  0.30038663342E+03  0.00000000000E+00 0. -1.
         13    1    5    5    0    0 -0.63241307722E+02  0.79210833763E+01  0.20225377602E+02  0.66867574081E+02  0.00000000000E+00 0. -1.
        -14    1    5    5    0    0 -0.26038419291E+02 -0.57259828127E+02  0.60595926822E+02  0.87341591145E+02  0.00000000000E+00 0.  1.
          5    1    4    4  501    0 -0.55572302018E+02  0.23222358238E+03  0.90429484594E+02  0.25536451799E+03  0.41800000000E+01 0. -1.
         -5    1    4    4    0  501  0.69572068313E+02  0.28629162819E+03  0.99192648397E+02  0.31090162906E+03  0.41800000000E+01 0. -1.
</event>
<event>
11    1  0.8864208E-009  0.1584495E+03  0.7561462E-02  0.1088545E+00
         22   -1    0    0    0    0  0.00000000000E+00  0.00000000000E+00  0.28524570359E+04  0.28524570359E+04  0.00000000000E+00 0.  1.
         22   -1    0    0    0    0 -0.00000000000E+00 -0.00000000000E+00 -0.12828283400E+03  0.12828283400E+03  0.00000000000E+00 0.  1.
        -24    2    1    2    0    0 -0.85687250336E+02  0.49228404797E+02 -0.65044046764E+02  0.14281998719E+03  0.80006749785E+02 0.  0.
         25    2    1    2    0    0  0.49911730673E+02 -0.83704912527E+02  0.24459608238E+03  0.29150049067E+03  0.12509036457E+03 0.  0.
         24    2    1    2    0    0  0.35775519663E+02  0.34476507730E+02  0.25446221662E+04  0.25464193920E+04  0.81738813298E+02 0.  0.
        -11    1    5    5    0    0  0.22883338194E+02  0.94495144708E+00  0.21604051726E+04  0.21605265677E+04  0.00000000000E+00 0.  1.
         12    1    5    5    0    0  0.12892181469E+02  0.33531556283E+02  0.38421699368E+03  0.38589282429E+03  0.00000000000E+00 0. -1.
         13    1    3    3    0    0  0.50153204425E+01 -0.79061490518E+01  0.86403825031E+01  0.12740362702E+02  0.00000000000E+00 0. -1.
        -14    1    3    3    0    0 -0.90702570779E+02  0.57134553849E+02 -0.73684429267E+02  0.13007962448E+03  0.00000000000E+00 0.  1.
          5    1    4    4  501    0 -0.36712225629E+02 -0.20602919074E+02  0.11924961120E+03  0.12653145837E+03  0.41800000000E+01 0. -1.
         -5    1    4    4    0  501  0.86623956302E+02 -0.63101993453E+02  0.12534647118E+03  0.16496903231E+03  0.41800000000E+01 0. -1.
</event>
<event>
11    1  0.8864208E-009  0.1483033E+03  0.7561462E-02  0.1098625E+00
         22   -1    0    0    0    0  0.00000000000E+00  0.00000000000E+00  0.92674830452E+03  0.92674830452E+03  0.00000000000E+00 0.  1.
         22   -1    0    0    0    0 -0.00000000000E+00 -0.00000000000E+00 -0.26488779783E+03  0.26488779783E+03  0.00000000000E+00 0. -1.
        -24    2    1    2    0    0  0.30218618046E+02 -0.68946334610E+02 -0.20110231079E+03  0.22956799967E+03  0.81194612711E+02 0.  0.
         25    2    1    2    0    0 -0.57590811632E+02  0.12535321117E+03  0.14283763305E+03  0.23468947247E+03  0.12508569038E+03 0.  0.
         24    2    1    2    0    0  0.27372193586E+02 -0.56406876560E+02  0.72012518444E+03  0.72737863022E+03  0.81045775496E+02 0.  0.
        -13    1    5    5    0    0 -0.14582512567E+02 -0.57940950894E+02  0.46489203818E+03  0.46871570341E+03  0.00000000000E+00 0.  1.
         14    1    5    5    0    0  0.41954706153E+02  0.15340743342E+01  0.25523314626E+03  0.25866292680E+03  0.00000000000E+00 0. -1.
         13    1    3    3    0    0 -0.17748920731E+02 -0.40424966387E+02 -0.14009194848E+03  0.14688415886E+03  0.00000000000E+00 0. -1.
        -14    1    3    3    0    0  0.47967538777E+02 -0.28521368224E+02 -0.61010362307E+02  0.82683840806E+02  0.00000000000E+00 0.  1.
          5    1    4    4  501    0  0.19258903176E+02  0.76287788255E+02  0.19352830289E+02  0.81134064539E+02  0.41800000000E+01 0. -1.
         -5    1    4    4    0  501 -0.76849714808E+02  0.49065422915E+02  0.12348480276E+03  0.15355540793E+03  0.41800000000E+01 0. -1.
</event>
<event>
11    1  0.8864208E-009  0.2616679E+03  0.7561462E-02  0.1017861E+00
         22   -1    0    0    0    0  0.00000000000E+00  0.00000000000E+00  0.26485954164E+03  0.26485954164E+03  0.00000000000E+00 0.  1.
         22   -1    0    0    0    0 -0.00000000000E+00 -0.00000000000E+00 -0.86511539372E+03  0.86511539372E+03  0.00000000000E+00 0. -1.
        -24    2    1    2    0    0 -0.18159015946E+03 -0.18429763854E+03 -0.56808791062E+03  0.62951038867E+03  0.81356312983E+02 0.  0.
         25    2    1    2    0    0  0.21158085024E+03 -0.10707298570E+02 -0.11587054316E+03  0.27194631546E+03  0.12509082015E+03 0.  0.
         24    2    1    2    0    0 -0.29990690785E+02  0.19500493711E+03  0.83702601709E+02  0.22851823123E+03  0.79297474368E+02 0.  0.
        -11    1    5    5    0    0  0.25053830500E+01  0.16000801492E+03  0.42834009928E+02  0.16566108230E+03  0.00000000000E+00 0.  1.
         12    1    5    5    0    0 -0.32496073835E+02  0.34996922193E+02  0.40868591781E+02  0.62857148932E+02  0.00000000000E+00 0. -1.
         11    1    3    3    0    0 -0.18711422330E+03 -0.16723305480E+03 -0.54704014487E+03  0.60185674980E+03  0.00000000000E+00 0. -1.
        -12    1    3    3    0    0  0.55240638426E+01 -0.17064583738E+02 -0.21047765751E+02  0.27653638867E+02  0.00000000000E+00 0.  1.
          5    1    4    4  501    0  0.82011211948E+02  0.41111586283E+02 -0.92590023630E+02  0.13040853610E+03  0.41800000000E+01 0. -1.
         -5    1    4    4    0  501  0.12956963830E+03 -0.51818884853E+02 -0.23280519533E+02  0.14153777936E+03  0.41800000000E+01 0. -1.
</event>
<event>
11    1  0.8864208E-009  0.1730960E+03  0.7561462E-02  0.1075368E+00
         22   -1    0    0    0    0  0.00000000000E+00  0.00000000000E+00  0.91150606839E+03  0.91150606839E+03  0.00000000000E+00 0. -1.
         22   -1    0    0    0    0 -0.00000000000E+00 -0.00000000000E+00 -0.39158801662E+03  0.39158801662E+03  0.00000000000E+00 0. -1.
         24    2    1    2    0    0  0.10263371417E+03  0.57563621541E+02 -0.34333100170E+03  0.37281765232E+03  0.85261804706E+02 0.  0.
         25    2    1    2    0    0 -0.15464386739E+03 -0.79217860443E+02  0.37134314343E+03  0.42863591239E+03  0.12507126002E+03 0.  0.
        -24    2    1    2    0    0  0.52010153216E+02  0.21654238902E+02  0.49190591004E+03  0.50164052030E+03  0.80609088665E+02 0.  0.
        -13    1    3    3    0    0 -0.72225642177E+01  0.20834225523E+02 -0.21589369241E+02  0.30859864731E+02  0.00000000000E+00 0.  1.
         14    1    3    3    0    0  0.10985627839E+03  0.36729396018E+02 -0.32174163246E+03  0.34195778759E+03  0.00000000000E+00 0. -1.
         13    1    5    5    0    0  0.49235615630E+02  0.49819334072E+02  0.35077823226E+03  0.35770306138E+03  0.00000000000E+00 0. -1.
        -14    1    5    5    0    0  0.27745375862E+01 -0.28165095170E+02  0.14112767778E+03  0.14393745892E+03  0.00000000000E+00 0.  1.
          5    1    4    4  501    0 -0.11599027831E+03 -0.49970218147E+02  0.12576055958E+03  0.17828056011E+03  0.41800000000E+01 0.  1.
         -5    1    4    4    0  501 -0.38653589074E+02 -0.29247642296E+02  0.24558258384E+03  0.25035535228E+03  0.41800000000E+01 0.  1.
</event>
<event>
11    1  0.8864208E-009  0.1350987E+03  0.7561462E-02  0.1113158E+00
         22   -1    0    0    0    0  0.00000000000E+00  0.00000000000E+00  0.27270958775E+03  0.27270958775E+03  0.00000000000E+00 0. -1.
         22   -1    0    0    0    0 -0.00000000000E+00 -0.00000000000E+00 -0.96317162538E+03  0.96317162538E+03  0.00000000000E+00 0. -1.
        -24    2    1    2    0    0 -0.55568457429E+02 -0.51066784336E+01 -0.70021457855E+03  0.70703724028E+03  0.80543599971E+02 0.  0.
         25    2    1    2    0    0  0.28369242230E+02 -0.27672246424E+02 -0.23546466263E+03  0.26955767116E+03  0.12508862302E+03 0.  0.
         24    2    1    2    0    0  0.27199215200E+02  0.32778924857E+02  0.24521720355E+03  0.25928630169E+03  0.72688748154E+02 0.  0.
        -11    1    5    5    0    0  0.21419954913E+02 -0.78945906514E+01  0.19992053268E+02  0.30345036232E+02  0.00000000000E+00 0.  1.
         12    1    5    5    0    0  0.57792602871E+01  0.40673515509E+02  0.22522515028E+03  0.22894126546E+03  0.00000000000E+00 0. -1.
         13    1    3    3    0    0  0.19332505217E+02 -0.14230494190E+01 -0.23701658278E+03  0.23780797157E+03  0.00000000000E+00 0. -1.
        -14    1    3    3    0    0 -0.74900962646E+02 -0.36836290145E+01 -0.46319799577E+03  0.46922926871E+03  0.00000000000E+00 0.  1.
          5    1    4    4  501    0  0.66563647092E+02 -0.48394568290E+02 -0.18688477591E+03  0.20424530648E+03  0.41800000000E+01 0.  1.
         -5    1    4    4    0  501 -0.38194404863E+02  0.20722321866E+02 -0.48579886720E+02  0.65312364680E+02  0.41800000000E+01 0.  1.
</event>
<event>
11    1  0.8864208E-009  0.1331044E+03  0.7561462E-02  0.1115512E+00
         22   -1    0    0    0    0  0.00000000000E+00  0.00000000000E+00  0.11942229079E+04  0.11942229079E+04  0.00000000000E+00 0. -1.
         22   -1    0    0    0    0 -0.00000000000E+00 -0.00000000000E+00 -0.22158911969E+03  0.22158911969E+03  0.00000000000E+00 0. -1.
        -24    2    1    2    0    0 -0.32496581385E+02 -0.27245327720E+02 -0.14283615195E+03  0.16538118709E+03  0.71766531576E+02 0.  0.
         25    2    1    2    0    0 -0.13259420874E+02  0.34326422743E+02 -0.62285900060E+00  0.13039054801E+03  0.12508873458E+03 0.  0.
         24    2    1    2    0    0  0.45756002259E+02 -0.70810950229E+01  0.11160927991E+04  0.11200402925E+04  0.81751861055E+02 0.  0.
        -13    1    5    5    0    0 -0.42651453510E+01 -0.21761295037E+02  0.92503466670E+02  0.95124322718E+02  0.00000000000E+00 0.  1.
         14    1    5    5    0    0  0.50021147610E+02  0.14680200014E+02  0.10235893325E+04  0.10249159697E+04  0.00000000000E+00 0. -1.
         11    1    3    3    0    0 -0.40714494384E+02  0.77811519172E+01 -0.10633945086E+03  0.11413279628E+03  0.00000000000E+00 0. -1.
        -12    1    3    3    0    0  0.82179129982E+01 -0.35026479637E+02 -0.36496701096E+02  0.51248390811E+02  0.00000000000E+00 0.  1.
          5    1    4    4  501    0  0.34099555019E+02  0.35590653059E+02  0.43233182368E+02  0.65696687096E+02  0.41800000000E+01 0.  1.
         -5    1    4    4    0  501 -0.47358975893E+02 -0.12642303161E+01 -0.43856041369E+02  0.64693860918E+02  0.41800000000E+01 0.  1.
</event>
<event>
11    1  0.8864208E-009  0.3007786E+03  0.7561462E-02  0.9998623E-01
         22   -1    0    0    0    0  0.00000000000E+00  0.00000000000E+00  0.53870491594E+03  0.53870491594E+03  0.00000000000E+00 0.  1.
         22   -1    0    0    0    0 -0.00000000000E+00 -0.00000000000E+00 -0.15586504874E+03  0.15586504874E+03  0.00000000000E+00 0. -1.
        -24    2    1    2    0    0  0.17539320456E+02 -0.20510414599E+03  0.17182003262E+02  0.22110041313E+03  0.78834212023E+02 0.  0.
         25    2    1    2    0    0 -0.40112045084E+02  0.90941009783E+02  0.18379440763E+03  0.24353058776E+03  0.12509004547E+03 0.  0.
         24    2    1    2    0    0  0.22572724627E+02  0.11416313621E+03  0.18186345630E+03  0.22993896378E+03  0.79087677684E+02 0.  0.
        -11    1    5    5    0    0  0.36267958910E+02  0.11772938783E+03  0.14392256484E+03  0.18944465755E+03  0.00000000000E+00 0.  1.
         12    1    5    5    0    0 -0.13695234282E+02 -0.35662516232E+01  0.37940891458E+02  0.40494306233E+02  0.00000000000E+00 0. -1.
         11    1    3    3    0    0  0.49339013877E+01 -0.16369693863E+03 -0.18756451060E+02  0.16484185013E+03  0.00000000000E+00 0. -1.
        -12    1    3    3    0    0  0.12605419068E+02 -0.41407207368E+02  0.35938454322E+02  0.56258563002E+02  0.00000000000E+00 0.  1.
          5    1    4    4  501    0  0.31168688531E+02  0.54293620720E+02  0.28903146427E+02  0.69080740218E+02  0.41800000000E+01 0.  1.
         -5    1    4    4    0  501 -0.71280733615E+02  0.36647389063E+02  0.15489126120E+03  0.17444984754E+03  0.41800000000E+01 0.  1.
</event>
<event>
11    1  0.8864208E-009  0.1600433E+03  0.7561462E-02  0.1087037E+00
         22   -1    0    0    0    0  0.00000000000E+00  0.00000000000E+00  0.29155104138E+03  0.29155104138E+03  0.00000000000E+00 0.  1.
         22   -1    0    0    0    0 -0.00000000000E+00 -0.00000000000E+00 -0.41335565862E+03  0.41335565862E+03  0.00000000000E+00 0.  1.
        -24    2    1    2    0    0 -0.35967714174E+02 -0.51352470513E+02 -0.25783760589E+03  0.27671641557E+03  0.78491980119E+02 0.  0.
         25    2    1    2    0    0 -0.66826269281E+02  0.27902323300E+02 -0.87193380801E+02  0.16881115732E+03  0.12510088436E+03 0.  0.
         24    2    1    2    0    0  0.10279398345E+03  0.23450147213E+02  0.22322636945E+03  0.25937912711E+03  0.79567626114E+02 0.  0.
        -11    1    5    5    0    0  0.49912412623E+02 -0.28108549755E+02  0.11311104467E+03  0.12678898978E+03  0.00000000000E+00 0.  1.
         12    1    5    5    0    0  0.52881570832E+02  0.51558696968E+02  0.11011532478E+03  0.13259013733E+03  0.00000000000E+00 0. -1.
         13    1    3    3    0    0 -0.51974413058E+02 -0.37331287823E+02 -0.10924120015E+03  0.12660412503E+03  0.00000000000E+00 0. -1.
        -14    1    3    3    0    0  0.16006698883E+02 -0.14021182690E+02 -0.14859640574E+03  0.15011229054E+03  0.00000000000E+00 0.  1.
          5    1    4    4  501    0  0.14357816863E+02  0.48362464116E+02 -0.64450808341E+02  0.81953974499E+02  0.41800000000E+01 0. -1.
         -5    1    4    4    0  501 -0.81184086144E+02 -0.20460140816E+02 -0.22742572460E+02  0.86857182819E+02  0.41800000000E+01 0. -1.
</event>
<event>
11    1  0.8864208E-009  0.1299451E+03  0.7561462E-02  0.1119336E+00
         22   -1    0    0    0    0  0.00000000000E+00  0.00000000000E+00  0.16627205031E+04  0.16627205031E+04  0.00000000000E+00 0. -1.
         22   -1    0    0    0    0 -0.00000000000E+00 -0.00000000000E+00 -0.25903917199E+02  0.25903917199E+02  0.00000000000E+00 0.  1.
         24    2    1    2    0    0  0.33203905929E+02 -0.88354245731E+01  0.85340341751E+02  0.12231953479E+03  0.80613463910E+02 0.  0.
         25    2    1    2    0    0 -0.36282588427E+02  0.26895540083E+02  0.89203871051E+03  0.90189805223E+03  0.12508892538E+03 0.  0.
        -24    2    1    2    0    0  0.30786824977E+01 -0.18060115510E+02  0.65943753363E+03  0.66440683328E+03  0.79012235088E+02 0.  0.
        -11    1    3    3    0    0  0.42685897212E+02 -0.37863792990E+02  0.57190785212E+02  0.80786994953E+02  0.00000000000E+00 0.  1.
         12    1    3    3    0    0 -0.94819912827E+01  0.29028368417E+02  0.28149556539E+02  0.41532539833E+02  0.00000000000E+00 0. -1.
         11    1    5    5    0    0  0.31304354530E+02 -0.35536012417E+02  0.42501140020E+03  0.42764174386E+03  0.00000000000E+00 0. -1.
        -12    1    5    5    0    0 -0.28225672033E+02  0.17475896907E+02  0.23442613342E+03  0.23676508942E+03  0.00000000000E+00 0.  1.
          5    1    4    4  501    0 -0.27225862353E+02 -0.36452948069E+02  0.14305920357E+03  0.15017813799E+03  0.41800000000E+01 0.  1.
         -5    1    4    4    0  501 -0.90567260742E+01  0.63348488152E+02  0.74897950694E+03  0.75171991423E+03  0.41800000000E+01 0.  1.
</event>
<event>
11    1  0.8864208E-009  0.1360723E+03  0.7561462E-02  0.1112025E+00
         22   -1    0    0    0    0  0.00000000000E+00  0.00000000000E+00  0.27685644094E+04  0.27685644094E+04  0.00000000000E+00 0.  1.
         22   -1    0    0    0    0 -0.00000000000E+00 -0.00000000000E+00 -0.70359423046E+03  0.70359423046E+03  0.00000000000E+00 0.  1.
        -24    2    1    2    0    0 -0.28656613830E+02  0.41412469021E+02 -0.67623593679E+03  0.68253333821E+03  0.77592019226E+02 0.  0.
         25    2    1    2    0    0 -0.76246644892E+01  0.38454365629E+00  0.14483586839E+03  0.19152698780E+03  0.12508746901E+03 0.  0.
         24    2    1    2    0    0  0.36281278319E+02 -0.41797012677E+02  0.25963702473E+04  0.25980983138E+04  0.76896460840E+02 0.  0.
        -13    1    5    5    0    0 -0.16809627344E+01 -0.51624354292E+02  0.18263301346E+04  0.18270603876E+04  0.00000000000E+00 0.  1.
         14    1    5    5    0    0  0.37962241053E+02  0.98273416147E+01  0.77004011279E+03  0.77103792624E+03  0.00000000000E+00 0. -1.
         11    1    3    3    0    0 -0.32513558475E+02  0.40157814362E+01 -0.10341560029E+03  0.10848061748E+03  0.00000000000E+00 0. -1.
        -12    1    3    3    0    0  0.38569446452E+01  0.37396687585E+02 -0.57282033650E+03  0.57405272073E+03  0.00000000000E+00 0.  1.
          5    1    4    4  501    0 -0.17597000454E+00 -0.54045248971E+02  0.11881336759E+03  0.13059482616E+03  0.41800000000E+01 0. -1.
         -5    1    4    4    0  501 -0.74486944846E+01  0.54429792627E+02  0.26022500802E+02  0.60932161647E+02  0.41800000000E+01 0. -1.
</event>
<event>
11    1  0.8864208E-009  0.1353131E+03  0.7561462E-02  0.1112908E+00
         22   -1    0    0    0    0  0.00000000000E+00  0.00000000000E+00  0.51956184197E+03  0.51956184197E+03  0.00000000000E+00 0. -1.
         22   -1    0    0    0    0 -0.00000000000E+00 -0.00000000000E+00 -0.52961070770E+03  0.52961070770E+03  0.00000000000E+00 0.  1.
         24    2    1    2    0    0 -0.44297673217E+02 -0.87576040700E+01 -0.30602174917E+03  0.31951713859E+03  0.80018194220E+02 0.  0.
         25    2    1    2    0    0  0.72776998829E+02  0.21606238070E+02 -0.18789098672E+03  0.23814164080E+03  0.12508036261E+03 0.  0.
        -24    2    1    2    0    0 -0.28479325612E+02 -0.12848634000E+02  0.48386387016E+03  0.49151377028E+03  0.80531870374E+02 0.  0.
        -11    1    3    3    0    0 -0.58522505526E+02  0.18163299907E+02 -0.21301368781E+03  0.22165202528E+03  0.00000000000E+00 0.  1.
         12    1    3    3    0    0  0.14224832309E+02 -0.26920903977E+02 -0.93008061365E+02  0.97865113315E+02  0.00000000000E+00 0. -1.
         13    1    5    5    0    0 -0.52373329756E+02 -0.82355038311E+01  0.41704581642E+03  0.42040219099E+03  0.00000000000E+00 0. -1.
        -14    1    5    5    0    0  0.23894004144E+02 -0.46131301691E+01  0.66818053737E+02  0.71111579290E+02  0.00000000000E+00 0.  1.
          5    1    4    4  501    0  0.15017241863E+02  0.37115816134E+02 -0.17125742497E+03  0.17592520958E+03  0.41800000000E+01 0.  1.
         -5    1    4    4    0  501  0.57759756966E+02 -0.15509578064E+02 -0.16633561748E+02  0.62216431214E+02  0.41800000000E+01 0.  1.
</event>
<event>
11    1  0.8864208E-009  0.1615258E+03  0.7561462E-02  0.1085651E+00
         22   -1    0    0    0    0  0.00000000000E+00  0.00000000000E+00  0.77949757962E+03  0.77949757962E+03  0.00000000000E+00 0. -1.
         22   -1    0    0    0    0 -0.00000000000E+00 -0.00000000000E+00 -0.98903409065E+03  0.98903409065E+03  0.00000000000E+00 0. -1.
        -24    2    1    2    0    0  0.15665907957E+02 -0.68856883109E+02 -0.92403549459E+03  0.93016766015E+03  0.79897369877E+02 0.  0.
         25    2    1    2    0    0 -0.56189828529E+02  0.15461562461E+03  0.13757744520E+03  0.24826818684E+03  0.12508497498E+03 0.  0.
         24    2    1    2    0    0  0.40523920571E+02 -0.85758741497E+02  0.57692153836E+03  0.59009582328E+03  0.79861563703E+02 0.  0.
        -13    1    5    5    0    0 -0.90448078342E+01  0.11381843352E+02  0.53959607950E+02  0.55883756110E+02  0.00000000000E+00 0.  1.
         14    1    5    5    0    0  0.49568728405E+02 -0.97140584849E+02  0.52296193041E+03  0.53421206717E+03  0.00000000000E+00 0. -1.
         11    1    3    3    0    0  0.38879421849E+02 -0.35220248480E+02 -0.72958791617E+03  0.73147153244E+03  0.00000000000E+00 0. -1.
        -12    1    3    3    0    0 -0.23213513892E+02 -0.33636634629E+02 -0.19444757841E+03  0.19869612771E+03  0.00000000000E+00 0.  1.
          5    1    4    4  501    0 -0.28178322485E+02 -0.14354484275E+02  0.39791496036E+02  0.50999065027E+02  0.41800000000E+01 0.  1.
         -5    1    4    4    0  501 -0.28011506044E+02  0.16897010888E+03  0.97785949169E+02  0.19726912181E+03  0.41800000000E+01 0.  1.
</event>
<event>
11    1  0.8864208E-009  0.1266192E+03  0.7561462E-02  0.1123494E+00
         22   -1    0    0    0    0  0.00000000000E+00  0.00000000000E+00  0.23353870798E+03  0.23353870798E+03  0.00000000000E+00 0.  1.
         22   -1    0    0    0    0 -0.00000000000E+00 -0.00000000000E+00 -0.14706034675E+04  0.14706034675E+04  0.00000000000E+00 0.  1.
         24    2    1    2    0    0 -0.38071716477E+00  0.24891306268E+00 -0.12750434235E+04  0.12776299694E+04  0.81255154012E+02 0.  0.
         25    2    1    2    0    0  0.19829946621E+02 -0.27467365174E+01 -0.16478207885E+03  0.20784888860E+03  0.12508899087E+03 0.  0.
        -24    2    1    2    0    0 -0.19449229457E+02  0.24978234547E+01  0.20276074283E+03  0.21866331746E+03  0.79480915442E+02 0.  0.
        -13    1    3    3    0    0 -0.81195192597E+01 -0.21803138729E+02 -0.11601732771E+04  0.11604065392E+04  0.00000000000E+00 0.  1.
         14    1    3    3    0    0  0.77388020949E+01  0.22052051791E+02 -0.11487014640E+03  0.11722343016E+03  0.00000000000E+00 0. -1.
         11    1    5    5    0    0 -0.46918845175E+02  0.82146084599E+01  0.16423643251E+03  0.17100427945E+03  0.00000000000E+00 0. -1.
        -12    1    5    5    0    0  0.27469615718E+02 -0.57167850052E+01  0.38524310317E+02  0.47659038009E+02  0.00000000000E+00 0.  1.
          5    1    4    4  501    0 -0.25589335166E+02 -0.24364339345E+02 -0.73306926934E-01  0.35579669474E+02  0.41800000000E+01 0. -1.
         -5    1    4    4    0  501  0.45419281787E+02  0.21617602828E+02 -0.16470877193E+03  0.17226921913E+03  0.41800000000E+01 0. -1.
</event>
<event>
11    1  0.8864208E-009  0.1402437E+03  0.7561462E-02  0.1107287E+00
         22   -1    0    0    0    0  0.00000000000E+00  0.00000000000E+00  0.21810139130E+03  0.21810139130E+03  0.00000000000E+00 0. -1.
         22   -1    0    0    0    0 -0.00000000000E+00 -0.00000000000E+00 -0.88999748117E+03  0.88999748117E+03  0.00000000000E+00 0. -1.
        -24    2    1    2    0    0 -0.78728207592E+01  0.11975982579E+02 -0.74886946192E+03  0.75339601278E+03  0.81207608090E+02 0.  0.
         25    2    1    2    0    0 -0.23041699221E+02 -0.66423069741E+02 -0.80068134031E+02  0.16431939871E+03  0.12508802743E+03 0.  0.
         24    2    1    2    0    0  0.30914519981E+02  0.54447087163E+02  0.15704150609E+03  0.19038346098E+03  0.87542188322E+02 0.  0.
        -13    1    5    5    0    0  0.99453950096E+01  0.14271241615E+01 -0.98203264212E+01  0.14049426191E+02  0.00000000000E+00 0.  1.
         14    1    5    5    0    0  0.20969124971E+02  0.53019963001E+02  0.16686183251E+03  0.17633403479E+03  0.00000000000E+00 0. -1.
         11    1    3    3    0    0 -0.13738298206E+02  0.11105288163E+01 -0.73373138941E+03  0.73386083552E+03  0.00000000000E+00 0. -1.
        -12    1    3    3    0    0  0.58654774470E+01  0.10865453762E+02 -0.15138072517E+02  0.19535177262E+02  0.00000000000E+00 0.  1.
          5    1    4    4  501    0 -0.29202233062E+02 -0.63942699318E+02 -0.11152602518E+03  0.13189755838E+03  0.41800000000E+01 0.  1.
         -5    1    4    4    0  501  0.61605338410E+01 -0.24803704230E+01  0.31457891154E+02  0.32421840332E+02  0.41800000000E+01 0.  1.
</event>
<event>
11    1  0.8864208E-009  0.1301560E+03  0.7561462E-02  0.1119077E+00
         22   -1    0    0    0    0  0.00000000000E+00  0.00000000000E+00  0.14287156075E+04  0.14287156075E+04  0.00000000000E+00 0. -1.
         22   -1    0    0    0    0 -0.00000000000E+00 -0.00000000000E+00 -0.36389084645E+03  0.36389084645E+03  0.00000000000E+00 0.  1.
         24    2    1    2    0    0  0.32308913262E+02 -0.14933353688E+02 -0.33853185262E+03  0.34762464616E+03  0.70513888399E+02 0.  0.
         25    2    1    2    0    0 -0.56690653554E+02 -0.10064220378E+02  0.22803208008E+03  0.26638701309E+03  0.12509313518E+03 0.  0.
        -24    2    1    2    0    0  0.24381740292E+02  0.24997574066E+02  0.11753245336E+04  0.11785947947E+04  0.80489644466E+02 0.  0.
        -11    1    3    3    0    0 -0.99414406489E+01  0.88935027582E+01 -0.20707685730E+03  0.20750602753E+03  0.00000000000E+00 0.  1.
         12    1    3    3    0    0  0.42250353911E+02 -0.23826856446E+02 -0.13145499532E+03  0.14011861863E+03  0.00000000000E+00 0. -1.
         11    1    5    5    0    0 -0.21472800836E+02  0.28390408516E+02  0.73841500757E+03  0.73927249365E+03  0.00000000000E+00 0. -1.
        -12    1    5    5    0    0  0.45854541128E+02 -0.33928344501E+01  0.43690952602E+03  0.43932230104E+03  0.00000000000E+00 0.  1.
          5    1    4    4  501    0 -0.92806549101E+02  0.27045041787E+01  0.19341993889E+03  0.21459057542E+03  0.41800000000E+01 0. -1.
         -5    1    4    4    0  501  0.36115895547E+02 -0.12768724556E+02  0.34612141181E+02  0.51796437668E+02  0.41800000000E+01 0. -1.
</event>
<event>
11    1  0.8864208E-009  0.2713963E+03  0.7561462E-02  0.1013081E+00
         22   -1    0    0    0    0  0.00000000000E+00  0.00000000000E+00  0.36636945814E+03  0.36636945814E+03  0.00000000000E+00 0. -1.
         22   -1    0    0    0    0 -0.00000000000E+00 -0.00000000000E+00 -0.46283084987E+03  0.46283084987E+03  0.00000000000E+00 0. -1.
         24    2    1    2    0    0 -0.33014329536E+02 -0.24485422454E+03 -0.16553999022E+03  0.30829117851E+03  0.81218379443E+02 0.  0.
         25    2    1    2    0    0  0.15970371440E+03  0.19733124241E+03 -0.90271196397E+02  0.29705321760E+03  0.12508728777E+03 0.  0.
        -24    2    1    2    0    0 -0.12668938486E+03  0.47522982122E+02  0.15934979489E+03  0.22385591190E+03  0.80065461304E+02 0.  0.
        -11    1    3    3    0    0 -0.38736521188E+02 -0.89182681317E+02 -0.99420799920E+02  0.13906316614E+03  0.00000000000E+00 0.  1.
         12    1    3    3    0    0  0.57221916528E+01 -0.15567154322E+03 -0.66119190303E+02  0.16922801237E+03  0.00000000000E+00 0. -1.
         13    1    5    5    0    0 -0.16718513111E+02  0.35112866397E+02  0.14360342139E+02  0.41456501222E+02  0.00000000000E+00 0. -1.
        -14    1    5    5    0    0 -0.10997087175E+03  0.12410115726E+02  0.14498945275E+03  0.18239941067E+03  0.00000000000E+00 0.  1.
          5    1    4    4  501    0  0.16265282177E+03  0.12060158732E+03 -0.86007529895E+02  0.22003511287E+03  0.41800000000E+01 0.  1.
         -5    1    4    4    0  501 -0.29491073730E+01  0.76729655090E+02 -0.42636665012E+01  0.77018104732E+02  0.41800000000E+01 0.  1.
</event>
<event>
11    1  0.8864208E-009  0.1285079E+03  0.7561462E-02  0.1121116E+00
         22   -1    0    0    0    0  0.00000000000E+00  0.00000000000E+00  0.80412060166E+03  0.80412060166E+03  0.00000000000E+00 0. -1.
         22   -1    0    0    0    0 -0.00000000000E+00 -0.00000000000E+00 -0.15237508912E+03  0.15237508912E+03  0.00000000000E+00 0.  1.
         24    2    1    2    0    0 -0.18696229754E+02 -0.21656728041E+02 -0.10700680602E+03  0.13812012905E+03  0.82511518211E+02 0.  0.
         25    2    1    2    0    0  0.18540437099E+02  0.34066095595E+02  0.13080659859E+03  0.18509839433E+03  0.12508718029E+03 0.  0.
        -24    2    1    2    0    0  0.15579265527E+00 -0.12409367554E+02  0.62794571996E+03  0.63327716739E+03  0.81056318987E+02 0.  0.
        -11    1    3    3    0    0 -0.31061304620E+02 -0.13767334578E+02 -0.11602817404E+03  0.12090029494E+03  0.00000000000E+00 0.  1.
         12    1    3    3    0    0  0.12365074866E+02 -0.78893934623E+01  0.90213680214E+01  0.17219834105E+02  0.00000000000E+00 0. -1.
         13    1    5    5    0    0 -0.85742366512E+01 -0.12249485685E+02  0.62312290712E+03  0.62330227403E+03  0.00000000000E+00 0. -1.
        -14    1    5    5    0    0  0.87300293065E+01 -0.15988186854E+00  0.48228128445E+01  0.99748933647E+01  0.00000000000E+00 0.  1.
          5    1    4    4  501    0  0.50673830340E+02  0.24965846810E+02  0.73301430470E+01  0.57116845023E+02  0.41800000000E+01 0.  1.
         -5    1    4    4    0  501 -0.32133393242E+02  0.91002487845E+01  0.12347645555E+03  0.12798154931E+03  0.41800000000E+01 0.  1.
</event>
<event>
11    1  0.8864208E-009  0.1444044E+03  0.7561462E-02  0.1102738E+00
         22   -1    0    0    0    0  0.00000000000E+00  0.00000000000E+00  0.15643642493E+04  0.15643642493E+04  0.00000000000E+00 0. -1.
         22   -1    0    0    0    0 -0.00000000000E+00 -0.00000000000E+00 -0.45681397885E+03  0.45681397885E+03  0.00000000000E+00 0. -1.
         24    2    1    2    0    0 -0.19682215234E+02  0.69973679218E+02 -0.41817151930E+03  0.43199488756E+03  0.80426724052E+02 0.  0.
         25    2    1    2    0    0  0.16765462079E+02 -0.57080737559E+02  0.12586567459E+03  0.18716630785E+03  0.12509903051E+03 0.  0.
        -24    2    1    2    0    0  0.29167531549E+01 -0.12892941659E+02  0.13998561152E+04  0.14020170328E+04  0.76680385947E+02 0.  0.
        -11    1    3    3    0    0 -0.53323833772E+01  0.44305214649E+02 -0.72904530544E+02  0.85477815434E+02  0.00000000000E+00 0.  1.
         12    1    3    3    0    0 -0.14349831856E+02  0.25668464568E+02 -0.34526698876E+03  0.34651707212E+03  0.00000000000E+00 0. -1.
         13    1    5    5    0    0 -0.34891863665E+02 -0.66944415916E+01  0.89706187911E+03  0.89776515451E+03  0.00000000000E+00 0. -1.
        -14    1    5    5    0    0  0.37808616820E+02 -0.61985000672E+01  0.50279423610E+03  0.50425187829E+03  0.00000000000E+00 0.  1.
          5    1    4    4  501    0  0.23301816863E+02 -0.84567877710E+02  0.39672497566E+02  0.96364309123E+02  0.41800000000E+01 0. -1.
         -5    1    4    4    0  501 -0.65363547845E+01  0.27487140151E+02  0.86193177023E+02  0.90801998728E+02  0.41800000000E+01 0. -1.
</event>
<event>
11    1  0.8864208E-009  0.3434958E+03  0.7561462E-02  0.9832970E-01
         22   -1    0    0    0    0  0.00000000000E+00  0.00000000000E+00  0.19205446704E+04  0.19205446704E+04  0.00000000000E+00 0.  1.
         22   -1    0    0    0    0 -0.00000000000E+00 -0.00000000000E+00 -0.13552901444E+03  0.13552901444E+03  0.00000000000E+00 0.  1.
        -24    2    1    2    0    0 -0.85740313302E+02 -0.24318525108E+03  0.39312707261E+03  0.47692493421E+03  0.80112608104E+02 0.  0.
         25    2    1    2    0    0  0.12026498753E+03  0.36792629666E+03  0.38272474715E+03  0.55853276379E+03  0.12508872509E+03 0.  0.
         24    2    1    2    0    0 -0.34524674226E+02 -0.12474104558E+03  0.10091638362E+04  0.10206159868E+04  0.80579542875E+02 0.  0.
        -11    1    5    5    0    0 -0.23696466027E+02 -0.11816621626E+03  0.99194320638E+03  0.99923776042E+03  0.00000000000E+00 0.  1.
         12    1    5    5    0    0 -0.10828208199E+02 -0.65748293202E+01  0.17220629780E+02  0.21378226386E+02  0.00000000000E+00 0. -1.
         11    1    3    3    0    0 -0.79502299269E+02 -0.12848425570E+03  0.26332635580E+03  0.30359444859E+03  0.00000000000E+00 0. -1.
        -12    1    3    3    0    0 -0.62380140332E+01 -0.11470099538E+03  0.12980071681E+03  0.17333048562E+03  0.00000000000E+00 0.  1.
          5    1    4    4  501    0  0.31754859774E+02  0.23092685574E+03  0.16133697579E+03  0.28351838738E+03  0.41800000000E+01 0.  1.
         -5    1    4    4    0  501  0.88510127755E+02  0.13699944092E+03  0.22138777136E+03  0.27501437641E+03  0.41800000000E+01 0.  1.
</event>
<event>
11    1  0.8864208E-009  0.1428342E+03  0.7561462E-02  0.1104434E+00
         22   -1    0    0    0    0  0.00000000000E+00  0.00000000000E+00  0.72472269339E+02  0.72472269339E+02  0.00000000000E+00 0. -1.
         22   -1    0    0    0    0 -0.00000000000E+00 -0.00000000000E+00 -0.19428317888E+04  0.19428317888E+04  0.00000000000E+00 0.  1.
        -24    2    1    2    0    0  0.32124441099E+02 -0.34352899596E+02 -0.16944879847E+04  0.16966668395E+04  0.71949515104E+02 0.  0.
         25    2    1    2    0    0 -0.60414154671E+02  0.81675150608E+02 -0.13585138400E+03  0.21077112199E+03  0.12509263375E+03 0.  0.
         24    2    1    2    0    0  0.28289713572E+02 -0.47322251012E+02 -0.40020150776E+02  0.10786609661E+03  0.83628816774E+02 0.  0.
        -13    1    5    5    0    0 -0.17422625440E+02 -0.50830925009E+02 -0.15766296002E+02  0.55999168780E+02  0.00000000000E+00 0.  1.
         14    1    5    5    0    0  0.45712339012E+02  0.35086739966E+01 -0.24253854774E+02  0.51866927830E+02  0.00000000000E+00 0. -1.
         11    1    3    3    0    0  0.39897645358E+02 -0.17808460823E+02 -0.46621081339E+03  0.46825365552E+03  0.00000000000E+00 0. -1.
        -12    1    3    3    0    0 -0.77732042589E+01 -0.16544438773E+02 -0.12282771713E+04  0.12284131840E+04  0.00000000000E+00 0.  1.
          5    1    4    4  501    0 -0.87534579952E+02  0.20459801381E+02 -0.54031466859E+02  0.10496560375E+03  0.41800000000E+01 0.  1.
         -5    1    4    4    0  501  0.27120425280E+02  0.61215349227E+02 -0.81819917138E+02  0.10580551823E+03  0.41800000000E+01 0.  1.
</event>
<event>
11    1  0.8864208E-009  0.1631786E+03  0.7561462E-02  0.1084125E+00
         22   -1    0    0    0    0  0.00000000000E+00  0.00000000000E+00  0.15146975378E+04  0.15146975378E+04  0.00000000000E+00 0. -1.
         22   -1    0    0    0    0 -0.00000000000E+00 -0.00000000000E+00 -0.65257599762E+02  0.65257599762E+02  0.00000000000E+00 0. -1.
        -24    2    1    2    0    0  0.33617805924E+02 -0.20728621445E+02  0.29837558741E+02  0.93907624377E+02  0.79803066247E+02 0.  0.
         25    2    1    2    0    0 -0.12631826069E+03 -0.22730771016E+02  0.24125310727E+03  0.30054276101E+03  0.12509955433E+03 0.  0.
         24    2    1    2    0    0  0.92700454769E+02  0.43459392461E+02  0.11783492721E+04  0.11855047522E+04  0.80202353060E+02 0.  0.
        -13    1    5    5    0    0  0.97986353368E+02  0.27904232893E+02  0.75576801287E+03  0.76260426234E+03  0.00000000000E+00 0.  1.
         14    1    5    5    0    0 -0.52858985995E+01  0.15555159568E+02  0.42258125919E+03  0.42290048987E+03  0.00000000000E+00 0. -1.
         13    1    3    3    0    0 -0.18712903543E+02 -0.27074153699E+02 -0.82927827818E+00  0.32922184921E+02  0.00000000000E+00 0. -1.
        -14    1    3    3    0    0  0.52330709467E+02  0.63455322536E+01  0.30666837019E+02  0.60985439456E+02  0.00000000000E+00 0.  1.
          5    1    4    4  501    0 -0.35952328117E+02 -0.41914118813E+02  0.16933990570E+02  0.57910238210E+02  0.41800000000E+01 0. -1.
         -5    1    4    4    0  501 -0.90365932576E+02  0.19183347797E+02  0.22431911670E+03  0.24263252280E+03  0.41800000000E+01 0. -1.
</event>
<event>
11    1  0.8864208E-009  0.1755014E+03  0.7561462E-02  0.1073341E+00
         22   -1    0    0    0    0  0.00000000000E+00  0.00000000000E+00  0.27562073562E+04  0.27562073562E+04  0.00000000000E+00 0.  1.
         22   -1    0    0    0    0 -0.00000000000E+00 -0.00000000000E+00 -0.55384901409E+02  0.55384901409E+02  0.00000000000E+00 0. -1.
        -24    2    1    2    0    0  0.96496738659E+02  0.26238111604E+02  0.19189718592E+03  0.23112446099E+03  0.81203001360E+02 0.  0.
         25    2    1    2    0    0 -0.14234499221E+03 -0.61725051547E+02  0.25148841913E+03  0.32087417967E+03  0.12506692380E+03 0.  0.
         24    2    1    2    0    0  0.45848253547E+02  0.35486939943E+02  0.22574368497E+04  0.22595936169E+04  0.79879897014E+02 0.  0.
        -13    1    5    5    0    0  0.56054960574E+02  0.34575190852E+02  0.10247816416E+04  0.10268958152E+04  0.00000000000E+00 0.  1.
         14    1    5    5    0    0 -0.10206707027E+02  0.91174909064E+00  0.12326552081E+04  0.12326978017E+04  0.00000000000E+00 0. -1.
         11    1    3    3    0    0  0.84479191803E+02 -0.97385980828E+01  0.97403361700E+02  0.12930192965E+03  0.00000000000E+00 0. -1.
        -12    1    3    3    0    0  0.12017546855E+02  0.35976709686E+02  0.94493824223E+02  0.10182253134E+03  0.00000000000E+00 0.  1.
          5    1    4    4  501    0 -0.22235251178E+02  0.36396320879E+02  0.40357784731E+02  0.58866983589E+02  0.41800000000E+01 0.  1.
         -5    1    4    4    0  501 -0.12010974103E+03 -0.98121372426E+02  0.21113063440E+03  0.26200719608E+03  0.41800000000E+01 0.  1.
</event>
<event>
11    1  0.8864208E-009  0.1453344E+03  0.7561462E-02  0.1101744E+00
         22   -1    0    0    0    0  0.00000000000E+00  0.00000000000E+00  0.18427170976E+03  0.18427170976E+03  0.00000000000E+00 0.  1.
         22   -1    0    0    0    0 -0.00000000000E+00 -0.00000000000E+00 -0.66719226313E+03  0.66719226313E+03  0.00000000000E+00 0. -1.
         24    2    1    2    0    0 -0.30936261880E+02 -0.79814506604E+02 -0.42542900061E+03  0.44066513575E+03  0.76606263117E+02 0.  0.
         25    2    1    2    0    0  0.77149401589E+01  0.43730762744E+02 -0.20176560125E+03  0.24151353901E+03  0.12509009460E+03 0.  0.
        -24    2    1    2    0    0  0.23221321721E+02  0.36083743859E+02  0.14427404849E+03  0.16928529812E+03  0.77467701255E+02 0.  0.
        -13    1    3    3    0    0  0.18978047415E+02 -0.56072927842E+02 -0.20152485774E+03  0.21003953868E+03  0.00000000000E+00 0.  1.
         14    1    3    3    0    0 -0.49914309295E+02 -0.23741578762E+02 -0.22390414286E+03  0.23062559708E+03  0.00000000000E+00 0. -1.
         11    1    5    5    0    0  0.51370503232E+02  0.28026193723E+02  0.85305450747E+02  0.10344764891E+03  0.00000000000E+00 0. -1.
        -12    1    5    5    0    0 -0.28149181512E+02  0.80575501363E+01  0.58968597745E+02  0.65837649214E+02  0.00000000000E+00 0.  1.
          5    1    4    4  501    0 -0.18015028959E+02  0.60916003828E+02 -0.20039186687E+03  0.21026096523E+03  0.41800000000E+01 0.  1.
         -5    1    4    4    0  501  0.25729969118E+02 -0.17185241084E+02 -0.13737343762E+01  0.31252573783E+02  0.41800000000E+01 0.  1.
</event>
<event>
11    1  0.8864208E-009  0.1753877E+03  0.7561462E-02  0.1073436E+00
         22   -1    0    0    0    0  0.00000000000E+00  0.00000000000E+00  0.15862207334E+04  0.15862207334E+04  0.00000000000E+00 0.  1.
         22   -1    0    0    0    0 -0.00000000000E+00 -0.00000000000E+00 -0.17447699611E+03  0.17447699611E+03  0.00000000000E+00 0.  1.
        -24    2    1    2    0    0  0.55020647343E+02 -0.35282606153E+02 -0.13305641587E+03  0.16883284980E+03  0.80798437091E+02 0.  0.
         25    2    1    2    0    0 -0.32439021290E+02  0.15031781437E+03  0.50980774352E+03  0.54699040615E+03  0.12508730411E+03 0.  0.
         24    2    1    2    0    0 -0.22581626053E+02 -0.11503520822E+03  0.10349924096E+04  0.10448744736E+04  0.82524835793E+02 0.  0.
        -13    1    5    5    0    0 -0.38509959093E+02 -0.76256399424E+02  0.88561453558E+03  0.88972532898E+03  0.00000000000E+00 0.  1.
         14    1    5    5    0    0  0.15928333040E+02 -0.38778808794E+02  0.14937787407E+03  0.15514914459E+03  0.00000000000E+00 0. -1.
         11    1    3    3    0    0  0.53241298052E+02 -0.85572718401E+01 -0.28684944567E+02  0.61079364473E+02  0.00000000000E+00 0. -1.
        -12    1    3    3    0    0  0.17793492907E+01 -0.26725334313E+02 -0.10437147130E+03  0.10775348533E+03  0.00000000000E+00 0.  1.
          5    1    4    4  501    0 -0.44295301611E+02  0.16949785821E+03  0.45484926933E+03  0.48743915301E+03  0.41800000000E+01 0. -1.
         -5    1    4    4    0  501  0.11856280320E+02 -0.19180043839E+02  0.54958474195E+02  0.59551253140E+02  0.41800000000E+01 0. -1.
</event>
<event>
11    1  0.8864208E-009  0.1428848E+03  0.7561462E-02  0.1104379E+00
         22   -1    0    0    0    0  0.00000000000E+00  0.00000000000E+00  0.10752915556E+04  0.10752915556E+04  0.00000000000E+00 0. -1.
         22   -1    0    0    0    0 -0.00000000000E+00 -0.00000000000E+00 -0.58734531942E+03  0.58734531942E+03  0.00000000000E+00 0. -1.
        -24    2    1    2    0    0 -0.70083726497E+02 -0.11012693623E+02 -0.53294646562E+03  0.54362974041E+03  0.80426061047E+02 0.  0.
         25    2    1    2    0    0  0.34655535004E+02  0.17822800510E+02  0.43860392754E+02  0.13816093193E+03  0.12508417459E+03 0.  0.
         24    2    1    2    0    0  0.35428191493E+02 -0.68101068866E+01  0.97703230907E+03  0.98084620272E+03  0.78521373514E+02 0.  0.
        -11    1    5    5    0    0  0.45053745180E+01 -0.39336771698E+02  0.35619407537E+03  0.35838791740E+03  0.00000000000E+00 0.  1.
         12    1    5    5    0    0  0.30922816975E+02  0.32526664811E+02  0.62083823370E+03  0.62245828532E+03  0.00000000000E+00 0. -1.
         13    1    3    3    0    0 -0.58143272062E+02 -0.25744523211E+01 -0.52232584443E+03  0.52555832754E+03  0.00000000000E+00 0. -1.
        -14    1    3    3    0    0 -0.11940454434E+02 -0.84382413019E+01 -0.10620621191E+02  0.18071412863E+02  0.00000000000E+00 0.  1.
          5    1    4    4  501    0  0.68042081018E+02  0.40810901462E+02  0.16214154911E+01  0.79469213257E+02  0.41800000000E+01 0.  1.
         -5    1    4    4    0  501 -0.33386546015E+02 -0.22988100953E+02  0.42238977263E+02  0.58691718670E+02  0.41800000000E+01 0.  1.
</event>
<event>
11    1  0.8864208E-009  0.2293132E+03  0.7561462E-02  0.1035535E+00
         22   -1    0    0    0    0  0.00000000000E+00  0.00000000000E+00  0.11883941564E+04  0.11883941564E+04  0.00000000000E+00 0.  1.
         22   -1    0    0    0    0 -0.00000000000E+00 -0.00000000000E+00 -0.80911780362E+03  0.80911780362E+03  0.00000000000E+00 0.  1.
        -24    2    1    2    0    0 -0.37851917199E+02  0.27448161744E+02 -0.72383484489E+03  0.72977047912E+03  0.80261449567E+02 0.  0.
         25    2    1    2    0    0  0.16165779558E+03  0.11879884308E+03  0.12494412973E+03  0.26740464230E+03  0.12509116348E+03 0.  0.
         24    2    1    2    0    0 -0.12380587838E+03 -0.14624700483E+03  0.97816706799E+03  0.10003368387E+04  0.84539315884E+02 0.  0.
        -13    1    5    5    0    0 -0.10206552432E+03 -0.14336099742E+03  0.93988018214E+03  0.95621362865E+03  0.00000000000E+00 0.  1.
         14    1    5    5    0    0 -0.21740354053E+02 -0.28860074075E+01  0.38286885849E+02  0.44123210005E+02  0.00000000000E+00 0. -1.
         11    1    3    3    0    0 -0.25179443582E+02  0.42580548067E+01 -0.57545768695E+02  0.62957532548E+02  0.00000000000E+00 0. -1.
        -12    1    3    3    0    0 -0.12672473617E+02  0.23190106937E+02 -0.66628907620E+03  0.66681294657E+03  0.00000000000E+00 0.  1.
          5    1    4    4  501    0  0.65140639103E+02  0.24320592928E+02  0.11168719236E+03  0.13162938669E+03  0.41800000000E+01 0.  1.
         -5    1    4    4    0  501  0.96517156472E+02  0.94478250155E+02  0.13256937367E+02  0.13577525560E+03  0.41800000000E+01 0.  1.
</event>
<event>
11    1  0.8864208E-009  0.1448232E+03  0.7561462E-02  0.1102289E+00
         22   -1    0    0    0    0  0.00000000000E+00  0.00000000000E+00  0.32756995210E+03  0.32756995210E+03  0.00000000000E+00 0. -1.
         22   -1    0    0    0    0 -0.00000000000E+00 -0.00000000000E+00 -0.13510523570E+04  0.13510523570E+04  0.00000000000E+00 0.  1.
         24    2    1    2    0    0  0.69336774549E+02 -0.31885004400E+02 -0.67635574787E+03  0.68542043752E+03  0.80745505657E+02 0.  0.
         25    2    1    2    0    0 -0.33908083877E+02  0.71276787711E+02 -0.65449840923E+03  0.67100390392E+03  0.12509169750E+03 0.  0.
        -24    2    1    2    0    0 -0.35428690672E+02 -0.39391783311E+02  0.30737175218E+03  0.32219796768E+03  0.80791284348E+02 0.  0.
        -13    1    3    3    0    0  0.84618972039E+02 -0.39276640944E+02 -0.53817702589E+03  0.54620283426E+03  0.00000000000E+00 0.  1.
         14    1    3    3    0    0 -0.15282197490E+02  0.73916365447E+01 -0.13817872198E+03  0.13921760326E+03  0.00000000000E+00 0. -1.
         11    1    5    5    0    0 -0.15248353405E+02 -0.39504129843E+02  0.29604071723E+03  0.29905383264E+03  0.00000000000E+00 0. -1.
        -12    1    5    5    0    0 -0.20180337267E+02  0.11234653225E+00  0.11331034944E+02  0.23144135042E+02  0.00000000000E+00 0.  1.
          5    1    4    4  501    0  0.20980180423E+02 -0.26956452428E+02 -0.12404270489E+03  0.12872794309E+03  0.41800000000E+01 0. -1.
         -5    1    4    4    0  501 -0.54888264300E+02  0.98233240138E+02 -0.53045570434E+03  0.54227596083E+03  0.41800000000E+01 0. -1.
</event>
<event>
11    1  0.8864208E-009  0.1605932E+03  0.7561462E-02  0.1086521E+00
         22   -1    0    0    0    0  0.00000000000E+00  0.00000000000E+00  0.94421900214E+02  0.94421900214E+02  0.00000000000E+00 0.  1.
         22   -1    0    0    0    0 -0.00000000000E+00 -0.00000000000E+00 -0.24285752095E+04  0.24285752095E+04  0.00000000000E+00 0. -1.
         24    2    1    2    0    0 -0.11123259991E+02 -0.51015141488E+01 -0.15323230814E+04  0.15344577138E+04  0.79979355223E+02 0.  0.
         25    2    1    2    0    0  0.45406472851E+02  0.99291893499E+02 -0.83732808536E+03  0.85363095310E+03  0.12508738416E+03 0.  0.
        -24    2    1    2    0    0 -0.34283212859E+02 -0.94190379350E+02  0.35497857467E+02  0.13490844283E+03  0.83024236310E+02 0.  0.
        -11    1    3    3    0    0 -0.27790078941E+02 -0.38986168733E+01 -0.19290901499E+03  0.19493941563E+03  0.00000000000E+00 0.  1.
         12    1    3    3    0    0  0.16666818950E+02 -0.12028972755E+01 -0.13394140664E+04  0.13395182982E+04  0.00000000000E+00 0. -1.
         13    1    5    5    0    0  0.21585826444E+02 -0.20982566378E+02  0.30237266603E+02  0.42667414811E+02  0.00000000000E+00 0. -1.
        -14    1    5    5    0    0 -0.55869039304E+02 -0.73207812972E+02  0.52605908640E+01  0.92241028014E+02  0.00000000000E+00 0.  1.
          5    1    4    4  501    0  0.65014478621E+01 -0.29805410046E+02 -0.13523974215E+03  0.13870072656E+03  0.41800000000E+01 0.  1.
         -5    1    4    4    0  501  0.38905024988E+02  0.12909730354E+03 -0.70208834321E+03  0.71493022654E+03  0.41800000000E+01 0.  1.
</event>
<event>
11    1  0.8864208E-009  0.1711625E+03  0.7561462E-02  0.1077024E+00
         22   -1    0    0    0    0  0.00000000000E+00  0.00000000000E+00  0.64312206067E+02  0.64312206067E+02  0.00000000000E+00 0.  1.
         22   -1    0    0    0    0 -0.00000000000E+00 -0.00000000000E+00 -0.87024442437E+03  0.87024442437E+03  0.00000000000E+00 0. -1.
         24    2    1    2    0    0 -0.51104644538E+02 -0.36065221023E+02 -0.36726337162E+03  0.38116138173E+03  0.80555756654E+02 0.  0.
         25    2    1    2    0    0  0.15119023465E+03  0.45475775265E+02 -0.32149669158E+03  0.37939277255E+03  0.12510883255E+03 0.  0.
        -24    2    1    2    0    0 -0.10008559011E+03 -0.94105542415E+01 -0.11717215511E+03  0.17400247615E+03  0.80261222869E+02 0.  0.
        -13    1    3    3    0    0 -0.39536530462E+02 -0.20285096847E+02 -0.67831376077E+02  0.81090800807E+02  0.00000000000E+00 0.  1.
         14    1    3    3    0    0 -0.11568114076E+02 -0.15780124176E+02 -0.29943199554E+03  0.30007058092E+03  0.00000000000E+00 0. -1.
         11    1    5    5    0    0 -0.13420217740E+01  0.24245740151E+02 -0.23676351171E+02  0.33914989940E+02  0.00000000000E+00 0. -1.
        -12    1    5    5    0    0 -0.98743568335E+02 -0.33656294392E+02 -0.93495803939E+02  0.14008748621E+03  0.00000000000E+00 0.  1.
          5    1    4    4  501    0  0.92600511828E+02 -0.15677263730E+02 -0.25455393872E+03  0.27135919278E+03  0.41800000000E+01 0.  1.
         -5    1    4    4    0  501  0.58589722819E+02  0.61153038994E+02 -0.66942752856E+02  0.10803357977E+03  0.41800000000E+01 0.  1.
</event>
<event>
11    1  0.8864208E-009  0.2469387E+03  0.7561462E-02  0.1025543E+00
         22   -1    0    0    0    0  0.00000000000E+00  0.00000000000E+00  0.16782982132E+04  0.16782982132E+04  0.00000000000E+00 0. -1.
         22   -1    0    0    0    0 -0.00000000000E+00 -0.00000000000E+00 -0.24948037723E+03  0.24948037723E+03  0.00000000000E+00 0. -1.
         24    2    1    2    0    0  0.22318041110E+01 -0.30794130692E+02 -0.17075276038E+03  0.19060602232E+03  0.78872626019E+02 0.  0.
         25    2    1    2    0    0 -0.21284240534E+03 -0.24413286936E+01  0.19595887254E+03  0.31520741008E+03  0.12509189441E+03 0.  0.
        -24    2    1    2    0    0  0.21061060122E+03  0.33235459385E+02  0.14036117238E+04  0.14219651580E+04  0.79985113139E+02 0.  0.
        -13    1    3    3    0    0 -0.25446264509E+02 -0.84773151613E+01 -0.14763190454E+02  0.30615829929E+02  0.00000000000E+00 0.  1.
         14    1    3    3    0    0  0.27678068620E+02 -0.22316815530E+02 -0.15598956992E+03  0.15999019240E+03  0.00000000000E+00 0. -1.
         11    1    5    5    0    0  0.14906235259E+03  0.14999608882E+02  0.72457962687E+03  0.73990554053E+03  0.00000000000E+00 0. -1.
        -12    1    5    5    0    0  0.61548248632E+02  0.18235850504E+02  0.67903209693E+03  0.68205961749E+03  0.00000000000E+00 0.  1.
          5    1    4    4  501    0 -0.14346261392E+03  0.21357241730E+02  0.19328688204E+03  0.24169183796E+03  0.41800000000E+01 0.  1.
         -5    1    4    4    0  501 -0.69379791419E+02 -0.23798570423E+02  0.26719905020E+01  0.73515572125E+02  0.41800000000E+01 0.  1.
</event>
<event>
11    1  0.8864208E-009  0.1311506E+03  0.7561462E-02  0.1117863E+00
         22   -1    0    0    0    0  0.00000000000E+00  0.00000000000E+00  0.62835363272E+03  0.62835363272E+03  0.00000000000E+00 0.  1.
         22   -1    0    0    0    0 -0.00000000000E+00 -0.00000000000E+00 -0.18968158337E+03  0.18968158337E+03  0.00000000000E+00 0.  1.
         24    2    1    2    0    0 -0.40082769772E+02  0.65864687815E+00 -0.15566627937E+03  0.17936914465E+03  0.79587921657E+02 0.  0.
         25    2    1    2    0    0  0.26705681987E+02  0.53909734502E+01  0.21135700016E+03  0.24710328473E+03  0.12508395486E+03 0.  0.
        -24    2    1    2    0    0  0.13377087786E+02 -0.60496203284E+01  0.38298132855E+03  0.39156278670E+03  0.80194597902E+02 0.  0.
        -13    1    3    3    0    0 -0.51241478383E+02  0.28447362056E+02 -0.11221670279E+03  0.12659988112E+03  0.00000000000E+00 0.  1.
         14    1    3    3    0    0  0.11158708611E+02 -0.27788715178E+02 -0.43449576579E+02  0.52769263535E+02  0.00000000000E+00 0. -1.
         13    1    5    5    0    0  0.82168371280E+01  0.23872263308E+02  0.40409538955E+02  0.47648003173E+02  0.00000000000E+00 0. -1.
        -14    1    5    5    0    0  0.51602506576E+01 -0.29921883637E+02  0.34257178959E+03  0.34391478353E+03  0.00000000000E+00 0.  1.
          5    1    4    4  501    0  0.35858604196E+02  0.60029384408E+02  0.14112631481E+03  0.15755467502E+03  0.41800000000E+01 0. -1.
         -5    1    4    4    0  501 -0.91529222090E+01 -0.54638410958E+02  0.70230685351E+02  0.89548609715E+02  0.41800000000E+01 0. -1.
</event>
<event>
11    1  0.8864208E-009  0.2038862E+03  0.7561462E-02  0.1051809E+00
         22   -1    0    0    0    0  0.00000000000E+00  0.00000000000E+00  0.21643409384E+04  0.21643409384E+04  0.00000000000E+00 0. -1.
         22   -1    0    0    0    0 -0.00000000000E+00 -0.00000000000E+00 -0.23268625501E+03  0.23268625501E+03  0.00000000000E+00 0. -1.
        -24    2    1    2    0    0 -0.61433678446E+02  0.13891291514E+03 -0.12077528270E+03  0.21015042705E+03  0.80657536771E+02 0.  0.
         25    2    1    2    0    0  0.65016067220E+02 -0.19653451861E+03  0.15596530142E+03  0.28779437206E+03  0.12509004493E+03 0.  0.
         24    2    1    2    0    0 -0.35823887746E+01  0.57621603470E+02  0.18964646647E+04  0.18990823943E+04  0.81256589316E+02 0.  0.
        -13    1    5    5    0    0 -0.42500033528E+01  0.76251087637E+02  0.17057762549E+04  0.17074849700E+04  0.00000000000E+00 0.  1.
         14    1    5    5    0    0  0.66761457819E+00 -0.18629484167E+02  0.19068840975E+03  0.19159742431E+03  0.00000000000E+00 0. -1.
         11    1    3    3    0    0 -0.79375400121E+02  0.11204615001E+03 -0.83018306605E+02  0.16045819738E+03  0.00000000000E+00 0. -1.
        -12    1    3    3    0    0  0.17941721675E+02  0.26866765129E+02 -0.37756976096E+02  0.49692229665E+02  0.00000000000E+00 0.  1.
          5    1    4    4  501    0  0.68241323264E+02 -0.20530537521E+03  0.16655426344E+03  0.27306587183E+03  0.41800000000E+01 0.  1.
         -5    1    4    4    0  501 -0.32252560434E+01  0.87708565981E+01 -0.10588962026E+02  0.14728500222E+02  0.41800000000E+01 0.  1.
</event>
<event>
11    1  0.8864208E-009  0.1376569E+03  0.7561462E-02  0.1110203E+00
         22   -1    0    0    0    0  0.00000000000E+00  0.00000000000E+00  0.61092240461E+03  0.61092240461E+03  0.00000000000E+00 0. -1.
         22   -1    0    0    0    0 -0.00000000000E+00 -0.00000000000E+00 -0.43092108354E+03  0.43092108354E+03  0.00000000000E+00 0.  1.
        -24    2    1    2    0    0 -0.34932065958E+02  0.10041316338E+02 -0.38064195659E+03  0.39075837015E+03  0.80515386480E+02 0.  0.
         25    2    1    2    0    0  0.62653596997E+02  0.39026565711E+02  0.91293304361E+02  0.17155908683E+03  0.12509798882E+03 0.  0.
         24    2    1    2    0    0 -0.27721531039E+02 -0.49067882049E+02  0.46934997329E+03  0.47952603116E+03  0.80496439681E+02 0.  0.
        -11    1    5    5    0    0  0.24275580745E+02 -0.12695840992E+02  0.70066021965E+02  0.75231214485E+02  0.00000000000E+00 0.  1.
         12    1    5    5    0    0 -0.51997111783E+02 -0.36372041057E+02  0.39928395133E+03  0.40429481668E+03  0.00000000000E+00 0. -1.
         11    1    3    3    0    0 -0.43666340379E+02  0.15401119328E+02 -0.10301804407E+03  0.11294539018E+03  0.00000000000E+00 0. -1.
        -12    1    3    3    0    0  0.87342744208E+01 -0.53598029902E+01 -0.27762391252E+03  0.27781297997E+03  0.00000000000E+00 0.  1.
          5    1    4    4  501    0 -0.17282883013E+02 -0.11873440072E+02  0.71538712961E+02  0.74665497229E+02  0.41800000000E+01 0.  1.
         -5    1    4    4    0  501  0.79936480010E+02  0.50900005784E+02  0.19754591400E+02  0.96893589605E+02  0.41800000000E+01 0.  1.
</event>
<event>
11    1  0.8864208E-009  0.1357190E+03  0.7561462E-02  0.1112435E+00
         22   -1    0    0    0    0  0.00000000000E+00  0.00000000000E+00  0.45308824689E+03  0.45308824689E+03  0.00000000000E+00 0. -1.
         22   -1    0    0    0    0 -0.00000000000E+00 -0.00000000000E+00 -0.20735680783E+03  0.20735680783E+03  0.00000000000E+00 0. -1.
         24    2    1    2    0    0 -0.43901602751E+02  0.28597635915E+02 -0.14833282815E+03  0.17666597984E+03  0.80393190146E+02 0.  0.
         25    2    1    2    0    0  0.56913181239E+02 -0.12325290841E+02  0.81821718883E+02  0.16041618196E+03  0.12509010657E+03 0.  0.
        -24    2    1    2    0    0 -0.13011578489E+02 -0.16272345074E+02  0.31224254833E+03  0.32336289292E+03  0.81449746142E+02 0.  0.
        -11    1    3    3    0    0  0.39312196071E+01  0.22811208550E+02 -0.27415493037E+01  0.23309264589E+02  0.00000000000E+00 0.  1.
         12    1    3    3    0    0 -0.47832822358E+02  0.57864273651E+01 -0.14559127885E+03  0.15335671525E+03  0.00000000000E+00 0. -1.
         11    1    5    5    0    0 -0.36646339147E+02  0.53085537196E+01  0.25589522275E+03  0.25856043769E+03  0.00000000000E+00 0. -1.
        -12    1    5    5    0    0  0.23634760658E+02 -0.21580898793E+02  0.56347325578E+02  0.64802455231E+02  0.00000000000E+00 0.  1.
          5    1    4    4  501    0  0.10558683075E+02  0.54262825968E+02  0.22540374944E+02  0.59845475793E+02  0.41800000000E+01 0. -1.
         -5    1    4    4    0  501  0.46354498164E+02 -0.66588116809E+02  0.59281343939E+02  0.10057070617E+03  0.41800000000E+01 0. -1.
</event>
<event>
11    1  0.8864208E-009  0.1407648E+03  0.7561462E-02  0.1106707E+00
         22   -1    0    0    0    0  0.00000000000E+00  0.00000000000E+00  0.66854016638E+03  0.66854016638E+03  0.00000000000E+00 0.  1.
         22   -1    0    0    0    0 -0.00000000000E+00 -0.00000000000E+00 -0.35369331160E+03  0.35369331160E+03  0.00000000000E+00 0. -1.
         24    2    1    2    0    0  0.65195457536E+02 -0.63213042763E+00 -0.31925399746E+03  0.33574059587E+03  0.80918388196E+02 0.  0.
         25    2    1    2    0    0 -0.46901760085E+02  0.36315544978E+02  0.19926967751E+03  0.24263752937E+03  0.12508386137E+03 0.  0.
        -24    2    1    2    0    0 -0.18293697451E+02 -0.35683414550E+02  0.43483117473E+03  0.44385535274E+03  0.79507598397E+02 0.  0.
        -13    1    3    3    0    0 -0.64321539014E+01  0.12004562793E+02 -0.73651959576E+01  0.15483159986E+02  0.00000000000E+00 0.  1.
         14    1    3    3    0    0  0.71627611438E+02 -0.12636693221E+02 -0.31188880150E+03  0.32025743588E+03  0.00000000000E+00 0. -1.
         11    1    5    5    0    0 -0.89235211894E+01  0.95988375618E+01  0.99238869538E+01  0.16439295764E+02  0.00000000000E+00 0. -1.
        -12    1    5    5    0    0 -0.93701762614E+01 -0.45282252112E+02  0.42490728778E+03  0.42741605698E+03  0.00000000000E+00 0.  1.
          5    1    4    4  501    0 -0.22593587120E+02  0.63414429833E+02  0.38330086814E+02  0.77579172753E+02  0.41800000000E+01 0. -1.
         -5    1    4    4    0  501 -0.24308172966E+02 -0.27098884855E+02  0.16093959070E+03  0.16505835661E+03  0.41800000000E+01 0. -1.
</event>
<event>
11    1  0.8864208E-009  0.1277090E+03  0.7561462E-02  0.1122116E+00
         22   -1    0    0    0    0  0.00000000000E+00  0.00000000000E+00  0.13146943167E+04  0.13146943167E+04  0.00000000000E+00 0. -1.
         22   -1    0    0    0    0 -0.00000000000E+00 -0.00000000000E+00 -0.17829734959E+04  0.17829734959E+04  0.00000000000E+00 0.  1.
         24    2    1    2    0    0  0.16010122773E+02 -0.20126852242E+02 -0.17612594798E+04  0.17632958258E+04  0.80720504428E+02 0.  0.
         25    2    1    2    0    0 -0.10236431911E+02  0.32638162853E+02  0.19977095309E+03  0.23817045278E+03  0.12508675656E+03 0.  0.
        -24    2    1    2    0    0 -0.57736908620E+01 -0.12511310611E+02  0.10932093475E+04  0.10962015340E+04  0.79757489713E+02 0.  0.
        -13    1    3    3    0    0 -0.63405825356E+00 -0.50228618299E+02 -0.10847433091E+04  0.10859057799E+04  0.00000000000E+00 0.  1.
         14    1    3    3    0    0  0.16644181027E+02  0.30101766057E+02 -0.67651617070E+03  0.67739004591E+03  0.00000000000E+00 0. -1.
         11    1    5    5    0    0 -0.34898848461E+02  0.17530528666E+02  0.54546888615E+03  0.54686520717E+03  0.00000000000E+00 0. -1.
        -12    1    5    5    0    0  0.29125157599E+02 -0.30041839276E+02  0.54774046137E+03  0.54933632679E+03  0.00000000000E+00 0.  1.
          5    1    4    4  501    0 -0.27797080377E+02  0.29023436212E+02  0.21216467056E+03  0.21597767792E+03  0.41800000000E+01 0. -1.
         -5    1    4    4    0  501  0.17560648465E+02  0.36147266405E+01 -0.12393717470E+02  0.22192774859E+02  0.41800000000E+01 0. -1.
</event>
<event>
11    1  0.8864208E-009  0.1583236E+03  0.7561462E-02  0.1088665E+00
         22   -1    0    0    0    0  0.00000000000E+00  0.00000000000E+00  0.14360100396E+04  0.14360100396E+04  0.00000000000E+00 0.  1.
         22   -1    0    0    0    0 -0.00000000000E+00 -0.00000000000E+00 -0.51616167238E+03  0.51616167238E+03  0.00000000000E+00 0.  1.
         24    2    1    2    0    0 -0.54124585402E+02  0.78693703132E+02 -0.45289863815E+03  0.46939841901E+03  0.78073873153E+02 0.  0.
         25    2    1    2    0    0  0.70336949936E+02 -0.10220387802E+03  0.91036856764E+02  0.19831324290E+03  0.12509002283E+03 0.  0.
        -24    2    1    2    0    0 -0.16212364534E+02  0.23510174890E+02  0.12817101486E+04  0.12844600501E+04  0.79000924537E+02 0.  0.
        -13    1    3    3    0    0 -0.17257744746E+02  0.81947595450E+02 -0.35482767153E+03  0.36457634953E+03  0.00000000000E+00 0.  1.
         14    1    3    3    0    0 -0.36866840656E+02 -0.32538923174E+01 -0.98070966617E+02  0.10482206947E+03  0.00000000000E+00 0. -1.
         13    1    5    5    0    0  0.14848540323E+02 -0.16869569266E+02  0.15739742156E+03  0.15899374148E+03  0.00000000000E+00 0. -1.
        -14    1    5    5    0    0 -0.31060904857E+02  0.40379744156E+02  0.11243127271E+04  0.11254663086E+04  0.00000000000E+00 0.  1.
          5    1    4    4  501    0  0.55050742787E+01 -0.88629317849E+02  0.41733491084E+01  0.88996354239E+02  0.41800000000E+01 0.  1.
         -5    1    4    4    0  501  0.64831875657E+02 -0.13574560174E+02  0.86863507656E+02  0.10931688867E+03  0.41800000000E+01 0.  1.
</event>
<event>
11    1  0.8864208E-009  0.1572347E+03  0.7561462E-02  0.1089707E+00
         22   -1    0    0    0    0  0.00000000000E+00  0.00000000000E+00  0.31156821413E+03  0.31156821413E+03  0.00000000000E+00 0. -1.
         22   -1    0    0    0    0 -0.00000000000E+00 -0.00000000000E+00 -0.14407547790E+04  0.14407547790E+04  0.00000000000E+00 0. -1.
        -24    2    1    2    0    0 -0.92208587487E+02  0.60550112076E+02 -0.12102475659E+04  0.12179428742E+04  0.80727532779E+02 0.  0.
         25    2    1    2    0    0  0.27988179009E+01 -0.30100133812E+02 -0.19389058678E+03  0.23271233819E+03  0.12509045234E+03 0.  0.
         24    2    1    2    0    0  0.89409769586E+02 -0.30449978264E+02  0.27495158781E+03  0.30166778066E+03  0.80521836610E+02 0.  0.
        -13    1    5    5    0    0 -0.51760032780E+01  0.39241396002E+01  0.97100056360E+02  0.97317063389E+02  0.00000000000E+00 0.  1.
         14    1    5    5    0    0  0.94585772864E+02 -0.34374117864E+02  0.17785153145E+03  0.20435071727E+03  0.00000000000E+00 0. -1.
         11    1    3    3    0    0 -0.70173099696E+02  0.16641975024E+02 -0.97261949171E+03  0.97528964667E+03  0.00000000000E+00 0. -1.
        -12    1    3    3    0    0 -0.22035487791E+02  0.43908137051E+02 -0.23762807416E+03  0.24265322757E+03  0.00000000000E+00 0.  1.
          5    1    4    4  501    0  0.26830332684E+01  0.49106876753E+02 -0.72559495528E+02  0.87755551410E+02  0.41800000000E+01 0.  1.
         -5    1    4    4    0  501  0.11578463254E+00 -0.79207010565E+02 -0.12133109126E+03  0.14495678678E+03  0.41800000000E+01 0.  1.
</event>
<event>
11    1  0.8864208E-009  0.3143075E+03  0.7561462E-02  0.9943114E-01
         22   -1    0    0    0    0  0.00000000000E+00  0.00000000000E+00  0.23187927451E+03  0.23187927451E+03  0.00000000000E+00 0.  1.
         22   -1    0    0    0    0 -0.00000000000E+00 -0.00000000000E+00 -0.94893156775E+03  0.94893156775E+03  0.00000000000E+00 0.  1.
        -24    2    1    2    0    0  0.13275440972E+03  0.13659971983E+03 -0.28164658542E+03  0.34898438740E+03  0.78626247590E+02 0.  0.
         25    2    1    2    0    0 -0.10664189924E+03  0.18829714816E+03 -0.42961350409E+03  0.49703492732E+03  0.12509054880E+03 0.  0.
         24    2    1    2    0    0 -0.26112510479E+02 -0.32489686799E+03 -0.57922037321E+01  0.33479152754E+03  0.76236338140E+02 0.  0.
        -13    1    5    5    0    0 -0.26790198529E+02 -0.32637584900E+03  0.13398650818E+01  0.32747626599E+03  0.00000000000E+00 0.  1.
         14    1    5    5    0    0  0.67768805046E+00  0.14789810113E+01 -0.71320688139E+01  0.73152615463E+01  0.00000000000E+00 0. -1.
         11    1    3    3    0    0  0.22820451165E+02 -0.24164248121E+01 -0.10942376402E+02  0.25423369202E+02  0.00000000000E+00 0. -1.
        -12    1    3    3    0    0  0.10993395855E+03  0.13901614465E+03 -0.27070420902E+03  0.32356101820E+03  0.00000000000E+00 0.  1.
          5    1    4    4  501    0 -0.11332507655E+03  0.81507990515E+02 -0.28184585779E+03  0.31454838331E+03  0.41800000000E+01 0.  1.
         -5    1    4    4    0  501  0.66831773129E+01  0.10678915764E+03 -0.14776764631E+03  0.18248654401E+03  0.41800000000E+01 0.  1.
</event>
<event>
11    1  0.8864208E-009  0.2019477E+03  0.7561462E-02  0.1053155E+00
         22   -1    0    0    0    0  0.00000000000E+00  0.00000000000E+00  0.69148095268E+03  0.69148095268E+03  0.00000000000E+00 0.  1.
         22   -1    0    0    0    0 -0.00000000000E+00 -0.00000000000E+00 -0.49428706438E+03  0.49428706438E+03  0.00000000000E+00 0. -1.
        -24    2    1    2    0    0  0.97143348066E+01  0.61200731369E+01 -0.39180039256E+03  0.40023975053E+03  0.80947431681E+02 0.  0.
         25    2    1    2    0    0  0.62062068842E+02 -0.14730267097E+03  0.37688844387E+02  0.20644354988E+03  0.12509481617E+03 0.  0.
         24    2    1    2    0    0 -0.71776403649E+02  0.14118259783E+03  0.55130543648E+03  0.57908471665E+03  0.79479851010E+02 0.  0.
        -11    1    5    5    0    0 -0.41598472602E+02  0.14100756044E+03  0.45975990979E+03  0.48269321486E+03  0.00000000000E+00 0.  1.
         12    1    5    5    0    0 -0.30177931047E+02  0.17503739163E+00  0.91545526689E+02  0.96391501789E+02  0.00000000000E+00 0. -1.
         11    1    3    3    0    0 -0.65897181421E+01  0.41799600279E+02 -0.18883339927E+03  0.19351662370E+03  0.00000000000E+00 0. -1.
        -12    1    3    3    0    0  0.16304052949E+02 -0.35679527142E+02 -0.20296699329E+03  0.20672312683E+03  0.00000000000E+00 0.  1.
          5    1    4    4  501    0 -0.61386009543E+01 -0.13196476731E+03  0.16032191411E+02  0.13314235162E+03  0.41800000000E+01 0.  1.
         -5    1    4    4    0  501  0.68200669797E+02 -0.15337903662E+02  0.21656652975E+02  0.73301198268E+02  0.41800000000E+01 0.  1.
</event>
<event>
11    1  0.8864208E-009  0.3528703E+03  0.7561462E-02  0.9800063E-01
         22   -1    0    0    0    0  0.00000000000E+00  0.00000000000E+00  0.99542786106E+03  0.99542786106E+03  0.00000000000E+00 0.  1.
         22   -1    0    0    0    0 -0.00000000000E+00 -0.00000000000E+00 -0.71306535162E+03  0.71306535162E+03  0.00000000000E+00 0. -1.
        -24    2    1    2    0    0 -0.17816065645E+03 -0.28074773549E+03 -0.42920878160E+03  0.54897622298E+03  0.81204708656E+02 0.  0.
         25    2    1    2    0    0  0.13291350420E+03  0.29824914194E+03 -0.82979576491E+02  0.35937338933E+03  0.12508026455E+03 0.  0.
         24    2    1    2    0    0  0.45247152244E+02 -0.17501406446E+02  0.79455086753E+03  0.80014360037E+03  0.81025280724E+02 0.  0.
        -13    1    5    5    0    0  0.67194601777E+02 -0.11115646438E+02  0.67498925795E+03  0.67841666434E+03  0.00000000000E+00 0.  1.
         14    1    5    5    0    0 -0.21947449532E+02 -0.63857600081E+01  0.11956160958E+03  0.12172693603E+03  0.00000000000E+00 0. -1.
         13    1    3    3    0    0 -0.16181213674E+03 -0.28267614066E+03 -0.41133952970E+03  0.52468007089E+03  0.00000000000E+00 0. -1.
        -14    1    3    3    0    0 -0.16348519707E+02  0.19284051662E+01 -0.17869251896E+02  0.24296152090E+02  0.00000000000E+00 0.  1.
          5    1    4    4  501    0  0.23953415705E+02  0.14400896261E+03  0.14584754519E+02  0.14677375412E+03  0.41800000000E+01 0. -1.
         -5    1    4    4    0  501  0.10896008850E+03  0.15424017933E+03 -0.97564331009E+02  0.21259963521E+03  0.41800000000E+01 0. -1.
</event>
<event>
11    1  0.8864208E-009  0.2519278E+03  0.7561462E-02  0.1022877E+00
         22   -1    0    0    0    0  0.00000000000E+00  0.00000000000E+00  0.96281770159E+03  0.96281770159E+03  0.00000000000E+00 0. -1.
         22   -1    0    0    0    0 -0.00000000000E+00 -0.00000000000E+00 -0.75820732543E+03  0.75820732543E+03  0.00000000000E+00 0. -1.
        -24    2    1    2    0    0  0.20069549363E+03  0.79032942358E+02 -0.65573068115E+03  0.69496696756E+03  0.80445463893E+02 0.  0.
         25    2    1    2    0    0 -0.23323496102E+03 -0.11199068710E+03  0.17991476583E+03  0.33905407990E+03  0.12509150686E+03 0.  0.
         24    2    1    2    0    0  0.32539467396E+02  0.32957744745E+02  0.68042629148E+03  0.68700397956E+03  0.82761705606E+02 0.  0.
        -13    1    5    5    0    0  0.29498778926E+02  0.49579460075E+02  0.26377934170E+03  0.27001452170E+03  0.00000000000E+00 0.  1.
         14    1    5    5    0    0  0.30406884701E+01 -0.16621715329E+02  0.41664694978E+03  0.41698945786E+03  0.00000000000E+00 0. -1.
         11    1    3    3    0    0  0.12443779173E+03  0.88630304028E+02 -0.41253346010E+03  0.43991357163E+03  0.00000000000E+00 0. -1.
        -12    1    3    3    0    0  0.76257701896E+02 -0.95973616704E+01 -0.24319722105E+03  0.25505339593E+03  0.00000000000E+00 0.  1.
          5    1    4    4  501    0 -0.31442308882E+02  0.19554577836E+02  0.58272345551E+02  0.69167470376E+02  0.41800000000E+01 0.  1.
         -5    1    4    4    0  501 -0.20179265214E+03 -0.13154526494E+03  0.12164242028E+03  0.26988660952E+03  0.41800000000E+01 0.  1.
</event>
<event>
11    1  0.8864208E-009  0.1402377E+03  0.7561462E-02  0.1107293E+00
         22   -1    0    0    0    0  0.00000000000E+00  0.00000000000E+00  0.28910200869E+03  0.28910200869E+03  0.00000000000E+00 0. -1.
         22   -1    0    0    0    0 -0.00000000000E+00 -0.00000000000E+00 -0.60588085687E+03  0.60588085687E+03  0.00000000000E+00 0.  1.
         24    2    1    2    0    0  0.35319325125E+01 -0.42542505764E+02 -0.48546530037E+03  0.49456156378E+03  0.84215456798E+02 0.  0.
         25    2    1    2    0    0  0.67425102143E+01 -0.24095300332E+02 -0.66137725744E+02  0.14369150532E+03  0.12508798901E+03 0.  0.
        -24    2    1    2    0    0 -0.10274442727E+02  0.66637806096E+02  0.23482417792E+03  0.25672979646E+03  0.78877325497E+02 0.  0.
        -11    1    3    3    0    0 -0.33265778904E+02 -0.39386304113E+02 -0.36317258808E+03  0.36681360625E+03  0.00000000000E+00 0.  1.
         12    1    3    3    0    0  0.36797711416E+02 -0.31562016510E+01 -0.12229271229E+03  0.12774795753E+03  0.00000000000E+00 0. -1.
         13    1    5    5    0    0  0.12148406825E+02 -0.83584371739E+01  0.97949144114E+02  0.99052925717E+02  0.00000000000E+00 0. -1.
        -14    1    5    5    0    0 -0.22422849552E+02  0.74996243270E+02  0.13687503381E+03  0.15767687074E+03  0.00000000000E+00 0.  1.
          5    1    4    4  501    0  0.42412174182E+02 -0.61906946857E+02 -0.43520534988E+02  0.86849133292E+02  0.41800000000E+01 0.  1.
         -5    1    4    4    0  501 -0.35669663968E+02  0.37811646526E+02 -0.22617190756E+02  0.56842372032E+02  0.41800000000E+01 0.  1.
</event>
<event>
11    1  0.8864208E-009  0.1367756E+03  0.7561462E-02  0.1111213E+00
         22   -1    0    0    0    0  0.00000000000E+00  0.00000000000E+00  0.24702909411E+04  0.24702909411E+04  0.00000000000E+00 0.  1.
         22   -1    0    0    0    0 -0.00000000000E+00 -0.00000000000E+00 -0.12165493173E+03  0.12165493173E+03  0.00000000000E+00 0. -1.
         24    2    1    2    0    0  0.48319125858E+02 -0.25612219990E+02 -0.91236158978E+02  0.13280244824E+03  0.79509306476E+02 0.  0.
         25    2    1    2    0    0 -0.50150070488E+02  0.74663870906E+02  0.69846117305E+03  0.71524526769E+03  0.12505222711E+03 0.  0.
        -24    2    1    2    0    0  0.18309446306E+01 -0.49051650915E+02  0.17414109953E+04  0.17438981569E+04  0.79114538978E+02 0.  0.
        -13    1    3    3    0    0  0.18076888283E+02 -0.24039987341E+02  0.62503410579E+01  0.30720703844E+02  0.00000000000E+00 0.  1.
         14    1    3    3    0    0  0.30242237575E+02 -0.15722326495E+01 -0.97486500036E+02  0.10208174439E+03  0.00000000000E+00 0. -1.
         13    1    5    5    0    0 -0.18869435528E+02  0.16040781947E+02  0.44283451442E+03  0.44352651493E+03  0.00000000000E+00 0. -1.
        -14    1    5    5    0    0  0.20700380158E+02 -0.65092432862E+02  0.12985764809E+04  0.13003716420E+04  0.00000000000E+00 0.  1.
          5    1    4    4  501    0  0.35991746659E+02  0.46192725099E+02  0.36256208996E+03  0.36728451527E+03  0.41800000000E+01 0. -1.
         -5    1    4    4    0  501 -0.86141817147E+02  0.28471145807E+02  0.33589908309E+03  0.34796075242E+03  0.41800000000E+01 0. -1.
</event>
<event>
11    1  0.8864208E-009  0.1709334E+03  0.7561462E-02  0.1077222E+00
         22   -1    0    0    0    0  0.00000000000E+00  0.00000000000E+00  0.10900027760E+04  0.10900027760E+04  0.00000000000E+00 0. -1.
         22   -1    0    0    0    0 -0.00000000000E+00 -0.00000000000E+00 -0.37361336653E+03  0.37361336653E+03  0.00000000000E+00 0.  1.
         24    2    1    2    0    0 -0.10549806134E+03  0.36953213431E+02 -0.27074412619E+03  0.30359671949E+03  0.79832357403E+02 0.  0.
         25    2    1    2    0    0  0.13322447214E+03 -0.69601075218E+02  0.29037638830E+02  0.19769663361E+03  0.12509078633E+03 0.  0.
        -24    2    1    2    0    0 -0.27726410803E+02  0.32647861787E+02  0.95809589686E+03  0.96232278946E+03  0.79263906007E+02 0.  0.
        -13    1    3    3    0    0 -0.95368355926E+02  0.52186110040E+02 -0.26129253012E+03  0.28300582978E+03  0.00000000000E+00 0.  1.
         14    1    3    3    0    0 -0.10129705411E+02 -0.15232896609E+02 -0.94515960769E+01  0.20590889714E+02  0.00000000000E+00 0. -1.
         13    1    5    5    0    0  0.66780683609E+01  0.49757610601E+02  0.62644432874E+03  0.62845279331E+03  0.00000000000E+00 0. -1.
        -14    1    5    5    0    0 -0.34404479164E+02 -0.17109748814E+02  0.33165156813E+03  0.33386999615E+03  0.00000000000E+00 0.  1.
          5    1    4    4  501    0  0.87654590499E+02 -0.85737859072E+01 -0.38127091704E+02  0.96062399315E+02  0.41800000000E+01 0.  1.
         -5    1    4    4    0  501  0.45569881640E+02 -0.61027289311E+02  0.67164730533E+02  0.10163423430E+03  0.41800000000E+01 0.  1.
</event>
<event>
11    1  0.8864208E-009  0.1963490E+03  0.7561462E-02  0.1057136E+00
         22   -1    0    0    0    0  0.00000000000E+00  0.00000000000E+00  0.12040002596E+03  0.12040002596E+03  0.00000000000E+00 0.  1.
         22   -1    0    0    0    0 -0.00000000000E+00 -0.00000000000E+00 -0.12729543232E+04  0.12729543232E+04  0.00000000000E+00 0. -1.
        -24    2    1    2    0    0 -0.59084026619E+02 -0.46560839607E+01 -0.37388635829E+03  0.38276365960E+03  0.56607498377E+02 0.  0.
         25    2    1    2    0    0  0.13969052244E+03  0.12930083512E+03 -0.80780195202E+03  0.83929981903E+03  0.12509214412E+03 0.  0.
         24    2    1    2    0    0 -0.80606495820E+02 -0.12464475116E+03  0.29134013100E+02  0.17129087050E+03  0.80361996225E+02 0.  0.
        -13    1    5    5    0    0 -0.73898301925E+02 -0.13322952023E+03  0.38255941468E+02  0.15708144749E+03  0.00000000000E+00 0.  1.
         14    1    5    5    0    0 -0.67081938948E+01  0.85847690646E+01 -0.91219283685E+01  0.14209423014E+02  0.00000000000E+00 0. -1.
         13    1    3    3    0    0 -0.52899940943E+02  0.16016098837E+02 -0.19837644003E+03  0.20593234601E+03  0.00000000000E+00 0. -1.
        -14    1    3    3    0    0 -0.61840856762E+01 -0.20672182798E+02 -0.17550991826E+03  0.17683131359E+03  0.00000000000E+00 0.  1.
          5    1    4    4  501    0  0.16080508055E+02  0.79785752792E+02 -0.18107976006E+03  0.19857417000E+03  0.41800000000E+01 0. -1.
         -5    1    4    4    0  501  0.12361001438E+03  0.49515082332E+02 -0.62672219196E+03  0.64072564903E+03  0.41800000000E+01 0. -1.
</event>
<event>
11    1  0.8864208E-009  0.1468341E+03  0.7561462E-02  0.1100158E+00
         22   -1    0    0    0    0  0.00000000000E+00  0.00000000000E+00  0.79255367619E+03  0.79255367619E+03  0.00000000000E+00 0. -1.
         22   -1    0    0    0    0 -0.00000000000E+00 -0.00000000000E+00 -0.25622152787E+03  0.25622152787E+03  0.00000000000E+00 0. -1.
        -24    2    1    2    0    0  0.12450536770E+01  0.59290323495E+02 -0.20557827263E+03  0.22860731543E+03  0.80510781088E+02 0.  0.
         25    2    1    2    0    0 -0.20169614927E+02 -0.12590567016E+03  0.20114020307E+03  0.26900487790E+03  0.12508873609E+03 0.  0.
         24    2    1    2    0    0  0.18924561250E+02  0.66615346668E+02  0.54077021788E+03  0.55116301074E+03  0.80947467137E+02 0.  0.
        -11    1    5    5    0    0 -0.16378570198E+01  0.41206605865E+00 -0.27567924787E+01  0.32329984264E+01  0.00000000000E+00 0.  1.
         12    1    5    5    0    0  0.20562418270E+02  0.66203280610E+02  0.54352701036E+03  0.54793001232E+03  0.00000000000E+00 0. -1.
         11    1    3    3    0    0  0.25874934527E+02  0.15602785777E+02 -0.19671338661E+02  0.36054413398E+02  0.00000000000E+00 0. -1.
        -12    1    3    3    0    0 -0.24629880850E+02  0.43687537718E+02 -0.18590693397E+03  0.19255290203E+03  0.00000000000E+00 0.  1.
          5    1    4    4  501    0  0.12294954593E+02 -0.10683362246E+03  0.20437982227E+03  0.23098305771E+03  0.41800000000E+01 0.  1.
         -5    1    4    4    0  501 -0.32464569520E+02 -0.19072047705E+02 -0.32396192071E+01  0.38021820187E+02  0.41800000000E+01 0.  1.
</event>
<event>
11    1  0.8864208E-009  0.2141373E+03  0.7561462E-02  0.1044953E+00
         22   -1    0    0    0    0  0.00000000000E+00  0.00000000000E+00  0.17081707795E+04  0.17081707795E+04  0.00000000000E+00 0. -1.
         22   -1    0    0    0    0 -0.00000000000E+00 -0.00000000000E+00 -0.12799670125E+04  0.12799670125E+04  0.00000000000E+00 0.  1.
        -24    2    1    2    0    0  0.10834003132E+03  0.13463399487E+03 -0.12290721867E+04  0.12438501578E+04  0.81736772214E+02 0.  0.
         25    2    1    2    0    0 -0.25025647898E+03 -0.13336998969E+03  0.61405408646E+03  0.68784106911E+03  0.12508819227E+03 0.  0.
         24    2    1    2    0    0  0.14191644766E+03 -0.12640051772E+01  0.10432218673E+04  0.10564465650E+04  0.87324707441E+02 0.  0.
        -13    1    5    5    0    0  0.33972156472E+02  0.38556654254E+02  0.29907289953E+03  0.30345563471E+03  0.00000000000E+00 0.  1.
         14    1    5    5    0    0  0.10794429119E+03 -0.39820659431E+02  0.74414896773E+03  0.75299093028E+03  0.00000000000E+00 0. -1.
         11    1    3    3    0    0  0.78427260838E+01 -0.82557469922E+00 -0.81806980749E+01  0.11362823021E+02  0.00000000000E+00 0. -1.
        -12    1    3    3    0    0  0.10049730524E+03  0.13545956957E+03 -0.12208914887E+04  0.12324873348E+04  0.00000000000E+00 0.  1.
          5    1    4    4  501    0 -0.98584140415E+02 -0.12191155075E+03  0.33838587373E+03  0.37296612566E+03  0.41800000000E+01 0.  1.
         -5    1    4    4    0  501 -0.15167233857E+03 -0.11458438940E+02  0.27566821273E+03  0.31487494346E+03  0.41800000000E+01 0.  1.
</event>
<event>
11    1  0.8864208E-009  0.1346993E+03  0.7561462E-02  0.1113626E+00
         22   -1    0    0    0    0  0.00000000000E+00  0.00000000000E+00  0.20350112302E+04  0.20350112302E+04  0.00000000000E+00 0. -1.
         22   -1    0    0    0    0 -0.00000000000E+00 -0.00000000000E+00 -0.43178567533E+03  0.43178567533E+03  0.00000000000E+00 0.  1.
        -24    2    1    2    0    0  0.43469668856E+01  0.49723794868E+02 -0.40977581572E+03  0.42052082038E+03  0.80188461293E+02 0.  0.
         25    2    1    2    0    0 -0.30459368183E+02 -0.50014633465E+02  0.28425958817E+03  0.31603891579E+03  0.12509135124E+03 0.  0.
         24    2    1    2    0    0  0.26112401297E+02  0.29083859667E+00  0.17287417825E+04  0.17302371694E+04  0.67011714456E+02 0.  0.
        -11    1    5    5    0    0 -0.58543484030E+01 -0.67074695525E+01  0.33005846668E+02  0.34185515314E+02  0.00000000000E+00 0.  1.
         12    1    5    5    0    0  0.31966749700E+02  0.69983081492E+01  0.16957359358E+04  0.16960516541E+04  0.00000000000E+00 0. -1.
         11    1    3    3    0    0 -0.12286471862E+02 -0.94864630710E+01 -0.17249383600E+02  0.23205421931E+02  0.00000000000E+00 0. -1.
        -12    1    3    3    0    0  0.16633438747E+02  0.59210257939E+02 -0.39252643212E+03  0.39731539845E+03  0.00000000000E+00 0.  1.
          5    1    4    4  501    0 -0.44772410655E+02 -0.81788342487E+02  0.25056807678E+03  0.26738686435E+03  0.41800000000E+01 0.  1.
         -5    1    4    4    0  501  0.14313042472E+02  0.31773709022E+02  0.33691511387E+02  0.48652051441E+02  0.41800000000E+01 0.  1.
</event>
<event>
11    1  0.8864208E-009  0.3356154E+03  0.7561462E-02  0.9861516E-01
         22   -1    0    0    0    0  0.00000000000E+00  0.00000000000E+00  0.35977272316E+04  0.35977272316E+04  0.00000000000E+00 0. -1.
         22   -1    0    0    0    0 -0.00000000000E+00 -0.00000000000E+00 -0.36923262473E+03  0.36923262473E+03  0.00000000000E+00 0. -1.
        -24    2    1    2    0    0  0.30579392159E+03 -0.13568184309E+02 -0.23940378785E+03  0.39704357790E+03  0.81458032178E+02 0.  0.
         25    2    1    2    0    0 -0.35983028664E+03  0.23781259399E+02  0.67584778513E+03  0.77618598019E+03  0.12510421133E+03 0.  0.
         24    2    1    2    0    0  0.54036365046E+02 -0.10213075091E+02  0.27920506096E+04  0.27937302983E+04  0.79737928065E+02 0.  0.
        -11    1    5    5    0    0 -0.10092132584E+02  0.50897083486E+00  0.15086022571E+04  0.15086360993E+04  0.00000000000E+00 0.  1.
         12    1    5    5    0    0  0.64128497630E+02 -0.10722045926E+02  0.12834483525E+04  0.12850941989E+04  0.00000000000E+00 0. -1.
         13    1    3    3    0    0  0.64589596797E+02  0.30457000169E+02 -0.59143949466E+02  0.92722444058E+02  0.00000000000E+00 0. -1.
        -14    1    3    3    0    0  0.24120432480E+03 -0.44025184478E+02 -0.18025983838E+03  0.30432113384E+03  0.00000000000E+00 0.  1.
          5    1    4    4  501    0 -0.26570798793E+03 -0.37343928052E+02  0.50183489575E+03  0.56907911472E+03  0.41800000000E+01 0.  1.
         -5    1    4    4    0  501 -0.94122298710E+02  0.61125187451E+02  0.17401288938E+03  0.20710686547E+03  0.41800000000E+01 0.  1.
</event>
<event>
11    1  0.8864208E-009  0.1380777E+03  0.7561462E-02  0.1109724E+00
         22   -1    0    0    0    0  0.00000000000E+00  0.00000000000E+00  0.15468180496E+04  0.15468180496E+04  0.00000000000E+00 0. -1.
         22   -1    0    0    0    0 -0.00000000000E+00 -0.00000000000E+00 -0.55420641679E+03  0.55420641679E+03  0.00000000000E+00 0. -1.
         24    2    1    2    0    0  0.48759462958E+02 -0.35179557884E+02 -0.51878359137E+03  0.52938846088E+03  0.86606242927E+02 0.  0.
         25    2    1    2    0    0 -0.20269063179E+01 -0.83687740343E+01  0.11607249048E+03  0.17085823962E+03  0.12508225403E+03 0.  0.
        -24    2    1    2    0    0 -0.46732556640E+02  0.43548331919E+02  0.13953227337E+04  0.14007777659E+04  0.10569971212E+03 0.  0.
        -13    1    3    3    0    0  0.49976327698E+02  0.15604509416E+02 -0.31784436184E+03  0.32212757162E+03  0.00000000000E+00 0.  1.
         14    1    3    3    0    0 -0.12168647402E+01 -0.50784067301E+02 -0.20093922953E+03  0.20726088925E+03  0.00000000000E+00 0. -1.
         11    1    5    5    0    0 -0.64641591050E+01  0.50276310152E+02  0.12077526525E+04  0.12088159340E+04  0.00000000000E+00 0. -1.
        -12    1    5    5    0    0 -0.40268397535E+02 -0.67279782337E+01  0.18757008126E+03  0.19196183192E+03  0.00000000000E+00 0.  1.
          5    1    4    4  501    0 -0.47551219206E+02  0.17502602026E+02  0.90524540539E+01  0.51641832365E+02  0.41800000000E+01 0. -1.
         -5    1    4    4    0  501  0.45524312888E+02 -0.25871376060E+02  0.10702003642E+03  0.11921640726E+03  0.41800000000E+01 0. -1.
</event>
<event>
11    1  0.8864208E-009  0.1417479E+03  0.7561462E-02  0.1105622E+00
         22   -1    0    0    0    0  0.00000000000E+00  0.00000000000E+00  0.39323589064E+03  0.39323589064E+03  0.00000000000E+00 0.  1.
         22   -1    0    0    0    0 -0.00000000000E+00 -0.00000000000E+00 -0.68832559333E+03  0.68832559333E+03  0.00000000000E+00 0. -1.
        -24    2    1    2    0    0  0.54758343008E+02  0.10098758299E+02 -0.50807526024E+03  0.51752161042E+03  0.81164562025E+02 0.  0.
         25    2    1    2    0    0 -0.85012240175E+02 -0.67798007339E+02 -0.12702246761E+03  0.20882158831E+03  0.12509235663E+03 0.  0.
         24    2    1    2    0    0  0.30253897167E+02  0.57699249040E+02  0.34000802517E+03  0.35521828524E+03  0.79561745567E+02 0.  0.
        -13    1    5    5    0    0  0.54641766743E+02  0.56009350860E+02  0.25098362734E+03  0.26289836677E+03  0.00000000000E+00 0.  1.
         14    1    5    5    0    0 -0.24387869576E+02  0.16898981803E+01  0.89024397825E+02  0.92319918471E+02  0.00000000000E+00 0. -1.
         11    1    3    3    0    0  0.56159837883E+02  0.26096175401E+02 -0.48751881204E+03  0.49143619103E+03  0.00000000000E+00 0. -1.
        -12    1    3    3    0    0 -0.14014948751E+01 -0.15997417103E+02 -0.20556448207E+02  0.26085419389E+02  0.00000000000E+00 0.  1.
          5    1    4    4  501    0 -0.86921234063E+02  0.31427554893E+01 -0.38292973675E+02  0.95126242835E+02  0.41800000000E+01 0. -1.
         -5    1    4    4    0  501  0.19089938879E+01 -0.70940762828E+02 -0.88729493934E+02  0.11369534547E+03  0.41800000000E+01 0. -1.
</event>
<event>
11    1  0.8864208E-009  0.1476364E+03  0.7561462E-02  0.1099319E+00
         22   -1    0    0    0    0  0.00000000000E+00  0.00000000000E+00  0.13805310511E+04  0.13805310511E+04  0.00000000000E+00 0. -1.
         22   -1    0    0    0    0 -0.00000000000E+00 -0.00000000000E+00 -0.27067247673E+03  0.27067247673E+03  0.00000000000E+00 0.  1.
        -24    2    1    2    0    0 -0.76124841076E+02 -0.11978683547E+02 -0.20686055498E+03  0.23450708317E+03  0.79144188442E+02 0.  0.
         25    2    1    2    0    0  0.99700996077E+02 -0.50326842826E+02  0.99379604635E+02  0.19492211558E+03  0.12508095618E+03 0.  0.
         24    2    1    2    0    0 -0.23576155000E+02  0.62305526373E+02  0.12173395247E+04  0.12217743291E+04  0.79869763081E+02 0.  0.
        -11    1    5    5    0    0 -0.35255945699E+02  0.17978861855E+02  0.23065265701E+03  0.23402322399E+03  0.00000000000E+00 0.  1.
         12    1    5    5    0    0  0.11679790698E+02  0.44326664518E+02  0.98668686771E+03  0.98775110509E+03  0.00000000000E+00 0. -1.
         11    1    3    3    0    0 -0.25755299927E+02  0.11986756185E+02 -0.10352553358E+02  0.30235627316E+02  0.00000000000E+00 0. -1.
        -12    1    3    3    0    0 -0.50369541149E+02 -0.23965439731E+02 -0.19650800162E+03  0.20427145585E+03  0.00000000000E+00 0.  1.
          5    1    4    4  501    0  0.43883720302E+02 -0.32391595704E+02 -0.22858341516E+02  0.59287203988E+02  0.41800000000E+01 0. -1.
         -5    1    4    4    0  501  0.55817275775E+02 -0.17935247122E+02  0.12223794615E+03  0.13563491160E+03  0.41800000000E+01 0. -1.
</event>
<event>
11    1  0.8864208E-009  0.1477632E+03  0.7561462E-02  0.1099186E+00
         22   -1    0    0    0    0  0.00000000000E+00  0.00000000000E+00  0.54997573445E+03  0.54997573445E+03  0.00000000000E+00 0.  1.
         22   -1    0    0    0    0 -0.00000000000E+00 -0.00000000000E+00 -0.33414377230E+03  0.33414377230E+03  0.00000000000E+00 0. -1.
         24    2    1    2    0    0  0.25528959008E+02  0.74975726325E+02 -0.29588859055E+03  0.31746821554E+03  0.83444128445E+02 0.  0.
         25    2    1    2    0    0  0.40992918123E+01 -0.71102016576E+02  0.22156404904E+03  0.26421816974E+03  0.12509321500E+03 0.  0.
        -24    2    1    2    0    0 -0.29628250820E+02 -0.38737097490E+01  0.29015650366E+03  0.30243312147E+03  0.79888406343E+02 0.  0.
        -13    1    3    3    0    0  0.48431437324E+02  0.61619636634E+02 -0.15052543948E+03  0.16970707607E+03  0.00000000000E+00 0.  1.
         14    1    3    3    0    0 -0.22902478317E+02  0.13356089692E+02 -0.14536315108E+03  0.14776113946E+03  0.00000000000E+00 0. -1.
         13    1    5    5    0    0 -0.48120858501E+01 -0.24057320457E+02  0.23862225788E+02  0.34224503756E+02  0.00000000000E+00 0. -1.
        -14    1    5    5    0    0 -0.24816164970E+02  0.20183610708E+02  0.26629427787E+03  0.26820861771E+03  0.00000000000E+00 0.  1.
          5    1    4    4  501    0  0.15508666029E+02  0.19556813509E+01  0.17709363547E+03  0.17783130078E+03  0.41800000000E+01 0. -1.
         -5    1    4    4    0  501 -0.11409374217E+02 -0.73057697927E+02  0.44470413567E+02  0.86386868963E+02  0.41800000000E+01 0. -1.
</event>
<event>
11    1  0.8864208E-009  0.1359187E+03  0.7561462E-02  0.1112203E+00
         22   -1    0    0    0    0  0.00000000000E+00  0.00000000000E+00  0.25728136441E+03  0.25728136441E+03  0.00000000000E+00 0.  1.
         22   -1    0    0    0    0 -0.00000000000E+00 -0.00000000000E+00 -0.20225649770E+03  0.20225649770E+03  0.00000000000E+00 0.  1.
        -24    2    1    2    0    0 -0.29871960094E+01  0.50051007143E+02 -0.10601366769E+03  0.14190557897E+03  0.79901620450E+02 0.  0.
         25    2    1    2    0    0  0.43522198147E+01 -0.65211316743E+02  0.39675556523E+01  0.14119314644E+03  0.12509318709E+03 0.  0.
         24    2    1    2    0    0 -0.13650238054E+01  0.15160309600E+02  0.15707097875E+03  0.17643913670E+03  0.78916274105E+02 0.  0.
        -13    1    5    5    0    0  0.11484538198E+02  0.43617439592E+02  0.11862987211E+03  0.12691501964E+03  0.00000000000E+00 0.  1.
         14    1    5    5    0    0 -0.12849562004E+02 -0.28457129992E+02  0.38441106639E+02  0.49524117061E+02  0.00000000000E+00 0. -1.
         11    1    3    3    0    0  0.22771613404E+02  0.45142814833E+01 -0.80342802123E+02  0.83629486231E+02  0.00000000000E+00 0. -1.
        -12    1    3    3    0    0 -0.25758809413E+02  0.45536725660E+02 -0.25670865564E+02  0.58276092740E+02  0.00000000000E+00 0.  1.
          5    1    4    4  501    0  0.13878457553E+02 -0.66585662087E+02 -0.51073939414E+02  0.85160329185E+02  0.41800000000E+01 0.  1.
         -5    1    4    4    0  501 -0.95262377383E+01  0.13743453443E+01  0.55041495066E+02  0.56032817256E+02  0.41800000000E+01 0.  1.
</event>
<event>
11    1  0.8864208E-009  0.1632669E+03  0.7561462E-02  0.1084044E+00
         22   -1    0    0    0    0  0.00000000000E+00  0.00000000000E+00  0.40206733838E+03  0.40206733838E+03  0.00000000000E+00 0. -1.
         22   -1    0    0    0    0 -0.00000000000E+00 -0.00000000000E+00 -0.20329383012E+04  0.20329383012E+04  0.00000000000E+00 0.  1.
        -24    2    1    2    0    0  0.87763399448E+02  0.58668883018E+02 -0.18687798441E+04  0.18734223173E+04  0.78921614999E+02 0.  0.
         25    2    1    2    0    0 -0.78087839920E+02 -0.52572760606E+02 -0.11814333851E+03  0.19612826528E+03  0.12508733791E+03 0.  0.
         24    2    1    2    0    0 -0.96755595274E+01 -0.60961224123E+01  0.35605221975E+03  0.36545505700E+03  0.81568598982E+02 0.  0.
        -11    1    5    5    0    0 -0.17898583923E+01 -0.17675276927E+02  0.12750597411E+02  0.21867710027E+02  0.00000000000E+00 0.  1.
         12    1    5    5    0    0 -0.78857011350E+01  0.11579154514E+02  0.34330162234E+03  0.34358734698E+03  0.00000000000E+00 0. -1.
         13    1    3    3    0    0  0.26883390590E+02 -0.15427541236E+02 -0.27093275506E+03  0.27269998805E+03  0.00000000000E+00 0. -1.
        -14    1    3    3    0    0  0.60880008858E+02  0.74096424255E+02 -0.15978470890E+04  0.16007223293E+04  0.00000000000E+00 0.  1.
          5    1    4    4  501    0 -0.61233778585E+02 -0.14917170860E+02  0.76985766896E+01  0.63630480977E+02  0.41800000000E+01 0.  1.
         -5    1    4    4    0  501 -0.16854061335E+02 -0.37655589746E+02 -0.12584191520E+03  0.13249778430E+03  0.41800000000E+01 0.  1.
</event>
<event>
11    1  0.8864208E-009  0.1340691E+03  0.7561462E-02  0.1114368E+00
         22   -1    0    0    0    0  0.00000000000E+00  0.00000000000E+00  0.59065952627E+03  0.59065952627E+03  0.00000000000E+00 0. -1.
         22   -1    0    0    0    0 -0.00000000000E+00 -0.00000000000E+00 -0.44248205053E+03  0.44248205053E+03  0.00000000000E+00 0.  1.
         24    2    1    2    0    0  0.50416001144E+02  0.69910358858E+01 -0.36866541670E+03  0.38076420968E+03  0.80476991442E+02 0.  0.
         25    2    1    2    0    0 -0.22097916868E+02  0.13508823259E+02 -0.42808290161E+00  0.12774326353E+03  0.12508937559E+03 0.  0.
        -24    2    1    2    0    0 -0.28318084276E+02 -0.20499859145E+02  0.51727097534E+03  0.52463410359E+03  0.80308919787E+02 0.  0.
        -13    1    3    3    0    0  0.37644028478E+02  0.36661258136E+02 -0.30368708487E+03  0.30819955588E+03  0.00000000000E+00 0.  1.
         14    1    3    3    0    0  0.12771972666E+02 -0.29670222250E+02 -0.64978331827E+02  0.72564653800E+02  0.00000000000E+00 0. -1.
         13    1    5    5    0    0 -0.46167929747E+02 -0.16673513870E+02  0.48563046553E+03  0.48810494041E+03  0.00000000000E+00 0. -1.
        -14    1    5    5    0    0  0.17849845471E+02 -0.38263452743E+01  0.31640509809E+02  0.36529163177E+02  0.00000000000E+00 0.  1.
          5    1    4    4  501    0  0.43817918871E+01 -0.52126486531E+02 -0.16568349207E+02  0.55030476044E+02  0.41800000000E+01 0. -1.
         -5    1    4    4    0  501 -0.26479708755E+02  0.65635309789E+02  0.16140266305E+02  0.72712787481E+02  0.41800000000E+01 0. -1.
</event>
<event>
11    1  0.8864208E-009  0.1299713E+03  0.7561462E-02  0.1119304E+00
         22   -1    0    0    0    0  0.00000000000E+00  0.00000000000E+00  0.65932637778E+03  0.65932637778E+03  0.00000000000E+00 0. -1.
         22   -1    0    0    0    0 -0.00000000000E+00 -0.00000000000E+00 -0.56737050460E+03  0.56737050460E+03  0.00000000000E+00 0. -1.
         24    2    1    2    0    0  0.34450684939E+02 -0.30469771975E+01 -0.51191503980E+03  0.51971147092E+03  0.82745823231E+02 0.  0.
         25    2    1    2    0    0 -0.54231397262E+02 -0.18567115626E+02  0.49778338373E+02  0.14632754892E+03  0.12509231139E+03 0.  0.
        -24    2    1    2    0    0  0.19780712324E+02  0.21614092823E+02  0.55409257461E+03  0.56065786255E+03  0.80375444036E+02 0.  0.
        -13    1    3    3    0    0 -0.19005301464E+02  0.12911473264E+02 -0.58064798150E+02  0.62445403432E+02  0.00000000000E+00 0.  1.
         14    1    3    3    0    0  0.53455986403E+02 -0.15958450462E+02 -0.45385024166E+03  0.45726606749E+03  0.00000000000E+00 0. -1.
         11    1    5    5    0    0 -0.39745218720E+00  0.16259866068E+02  0.52272681097E+03  0.52297978940E+03  0.00000000000E+00 0. -1.
        -12    1    5    5    0    0  0.20178164511E+02  0.53542267554E+01  0.31365763647E+02  0.37678073150E+02  0.00000000000E+00 0.  1.
          5    1    4    4  501    0 -0.60509728907E+00  0.41257200352E+01 -0.39345033785E+02  0.39785572662E+02  0.41800000000E+01 0. -1.
         -5    1    4    4    0  501 -0.53626299973E+02 -0.22692835661E+02  0.89123372157E+02  0.10654197625E+03  0.41800000000E+01 0. -1.
</event>
<event>
11    1  0.8864208E-009  0.1736128E+03  0.7561462E-02  0.1074930E+00
         22   -1    0    0    0    0  0.00000000000E+00  0.00000000000E+00  0.47303935046E+02  0.47303935046E+02  0.00000000000E+00 0.  1.
         22   -1    0    0    0    0 -0.00000000000E+00 -0.00000000000E+00 -0.33671204708E+04  0.33671204708E+04  0.00000000000E+00 0. -1.
         24    2    1    2    0    0  0.42068124436E+02  0.13135755222E+02 -0.21441786092E+04  0.21461514016E+04  0.80756764996E+02 0.  0.
         25    2    1    2    0    0  0.70680114348E+01 -0.12354983993E+03 -0.10809656246E+04  0.10951934967E+04  0.12509034295E+03 0.  0.
        -24    2    1    2    0    0 -0.49136135871E+02  0.11041408471E+03 -0.94672301845E+02  0.17307950749E+03  0.79925222710E+02 0.  0.
        -11    1    3    3    0    0  0.31528169850E+02 -0.31395528047E+02 -0.84965884941E+03  0.85082305156E+03  0.00000000000E+00 0.  1.
         12    1    3    3    0    0  0.10539954586E+02  0.44531283269E+02 -0.12945197598E+04  0.12953283500E+04  0.00000000000E+00 0. -1.
         11    1    5    5    0    0  0.13818958873E+01 -0.56562751854E+01 -0.30696834178E+02  0.31244178878E+02  0.00000000000E+00 0. -1.
        -12    1    5    5    0    0 -0.50518031758E+02  0.11607035989E+03 -0.63975467666E+02  0.14183532861E+03  0.00000000000E+00 0.  1.
          5    1    4    4  501    0  0.31642928087E+02 -0.12194277790E+03 -0.10369535289E+04  0.10445867170E+04  0.41800000000E+01 0. -1.
         -5    1    4    4    0  501 -0.24574916652E+02 -0.16070620344E+01 -0.44012095770E+02  0.50606779693E+02  0.41800000000E+01 0. -1.
</event>
<event>
11    1  0.8864208E-009  0.1488525E+03  0.7561462E-02  0.1098057E+00
         22   -1    0    0    0    0  0.00000000000E+00  0.00000000000E+00  0.22031172149E+04  0.22031172149E+04  0.00000000000E+00 0. -1.
         22   -1    0    0    0    0 -0.00000000000E+00 -0.00000000000E+00 -0.61826939090E+02  0.61826939090E+02  0.00000000000E+00 0. -1.
        -24    2    1    2    0    0  0.59717065451E+02 -0.46924162949E+02  0.37074374564E+02  0.11661838220E+03  0.80357531343E+02 0.  0.
         25    2    1    2    0    0 -0.10699549751E+03  0.23295224261E+02  0.31149353371E+03  0.35307981246E+03  0.12508568449E+03 0.  0.
         24    2    1    2    0    0  0.47278432056E+02  0.23628938688E+02  0.17927223675E+04  0.17952459593E+04  0.79126421215E+02 0.  0.
        -11    1    5    5    0    0 -0.71077941227E+01 -0.53828207226E+01  0.26722786042E+02  0.28170956499E+02  0.00000000000E+00 0.  1.
         12    1    5    5    0    0  0.54386226179E+02  0.29011759411E+02  0.17659995815E+04  0.17670750028E+04  0.00000000000E+00 0. -1.
         13    1    3    3    0    0  0.79480017941E+02 -0.42352045715E+02  0.27336962836E+02  0.94117365907E+02  0.00000000000E+00 0. -1.
        -14    1    3    3    0    0 -0.19762952490E+02 -0.45721172340E+01  0.97374117274E+01  0.22501016295E+02  0.00000000000E+00 0.  1.
          5    1    4    4  501    0 -0.20010660611E+02 -0.40013582333E+02  0.16666709328E+03  0.17261780236E+03  0.41800000000E+01 0. -1.
         -5    1    4    4    0  501 -0.86984836896E+02  0.63308806594E+02  0.14482644043E+03  0.18046201010E+03  0.41800000000E+01 0. -1.
</event>
<event>
11    1  0.8864208E-009  0.5031320E+03  0.7561462E-02  0.9386550E-01
         22   -1    0    0    0    0  0.00000000000E+00  0.00000000000E+00  0.18973718866E+04  0.18973718866E+04  0.00000000000E+00 0. -1.
         22   -1    0    0    0    0 -0.00000000000E+00 -0.00000000000E+00 -0.31566078730E+03  0.31566078730E+03  0.00000000000E+00 0. -1.
        -24    2    1    2    0    0  0.73860799535E+02 -0.13275628076E+03 -0.99168249117E+02  0.19875230240E+03  0.81169503427E+02 0.  0.
         25    2    1    2    0    0  0.41409377978E+03 -0.44860664953E+02  0.27781209908E+03  0.51605539183E+03  0.12508983703E+03 0.  0.
         24    2    1    2    0    0 -0.48795457932E+03  0.17761694571E+03  0.14030672494E+04  0.14982249797E+04  0.80205565040E+02 0.  0.
        -13    1    5    5    0    0 -0.96459982154E+01  0.46348209562E+01  0.80806923294E+02  0.81512487994E+02  0.00000000000E+00 0.  1.
         14    1    5    5    0    0 -0.47830858110E+03  0.17298212476E+03  0.13222603261E+04  0.14167124917E+04  0.00000000000E+00 0. -1.
         13    1    3    3    0    0  0.63931391222E+02 -0.55984665596E+02 -0.18539797937E+02  0.86978328755E+02  0.00000000000E+00 0. -1.
        -14    1    3    3    0    0  0.99294083131E+01 -0.76771615165E+02 -0.80628451180E+02  0.11177397364E+03  0.00000000000E+00 0.  1.
          5    1    4    4  501    0  0.35432326948E+03 -0.58922901740E+02  0.27846470423E+03  0.45450737238E+03  0.41800000000E+01 0. -1.
         -5    1    4    4    0  501  0.59770510298E+02  0.14062236786E+02 -0.65260514974E+00  0.61548019450E+02  0.41800000000E+01 0. -1.
</event>
<event>
11    1  0.8864208E-009  0.1430879E+03  0.7561462E-02  0.1104158E+00
         22   -1    0    0    0    0  0.00000000000E+00  0.00000000000E+00  0.12628644369E+04  0.12628644369E+04  0.00000000000E+00 0. -1.
         22   -1    0    0    0    0 -0.00000000000E+00 -0.00000000000E+00 -0.15991475815E+04  0.15991475815E+04  0.00000000000E+00 0. -1.
         24    2    1    2    0    0 -0.63748668554E+02  0.22227361226E+02 -0.13744643465E+04  0.13784950949E+04  0.80861230468E+02 0.  0.
         25    2    1    2    0    0  0.79440808674E+02 -0.71323754130E+02 -0.19021867050E+03  0.25145332508E+03  0.12509081541E+03 0.  0.
        -24    2    1    2    0    0 -0.15692140120E+02  0.49096392904E+02  0.12283998724E+04  0.12320635985E+04  0.79735594340E+02 0.  0.
        -11    1    3    3    0    0  0.17359400467E+02  0.16507698894E+02 -0.33515577977E+03  0.33601078795E+03  0.00000000000E+00 0.  1.
         12    1    3    3    0    0 -0.81108069020E+02  0.57196623314E+01 -0.10393085667E+04  0.10424843069E+04  0.00000000000E+00 0. -1.
         11    1    5    5    0    0 -0.10368025148E+01  0.49743028529E+02  0.11886891080E+04  0.11897299019E+04  0.00000000000E+00 0. -1.
        -12    1    5    5    0    0 -0.14655337605E+02 -0.64663562425E+00  0.39710764399E+02  0.42333696592E+02  0.00000000000E+00 0.  1.
          5    1    4    4  501    0  0.87846732454E+02 -0.61113956263E+02 -0.64598093882E+02  0.12506938149E+03  0.41800000000E+01 0.  1.
         -5    1    4    4    0  501 -0.84059237800E+01 -0.10209797867E+02 -0.12562057662E+03  0.12638394359E+03  0.41800000000E+01 0.  1.
</event>
<event>
11    1  0.8864208E-009  0.2378723E+03  0.7561462E-02  0.1030566E+00
         22   -1    0    0    0    0  0.00000000000E+00  0.00000000000E+00  0.76944495255E+03  0.76944495255E+03  0.00000000000E+00 0. -1.
         22   -1    0    0    0    0 -0.00000000000E+00 -0.00000000000E+00 -0.24156542359E+03  0.24156542359E+03  0.00000000000E+00 0.  1.
        -24    2    1    2    0    0  0.35097530293E+02  0.16948865289E+02 -0.65204836574E+02  0.11118756472E+03  0.81190536198E+02 0.  0.
         25    2    1    2    0    0 -0.22735408989E+02 -0.21706594445E+03 -0.17440724570E+02  0.25215810238E+03  0.12508000106E+03 0.  0.
         24    2    1    2    0    0 -0.12362121304E+02  0.20011707916E+03  0.61052509010E+03  0.64766470903E+03  0.80802365516E+02 0.  0.
        -11    1    5    5    0    0 -0.28723793043E+02  0.72439936859E+02  0.32907492779E+03  0.33817585490E+03  0.00000000000E+00 0.  1.
         12    1    5    5    0    0  0.16361671739E+02  0.12767714230E+03  0.28145016231E+03  0.30948885413E+03  0.00000000000E+00 0. -1.
         13    1    3    3    0    0 -0.30107096190E+01  0.29422951059E+02 -0.64640567865E+02  0.71085704860E+02  0.00000000000E+00 0. -1.
        -14    1    3    3    0    0  0.38108239912E+02 -0.12474085769E+02 -0.56426870855E+00  0.40101859859E+02  0.00000000000E+00 0.  1.
          5    1    4    4  501    0 -0.71963350136E+01  0.15499920836E+02 -0.65809532191E+01  0.18783400353E+02  0.41800000000E+01 0.  1.
         -5    1    4    4    0  501 -0.15539073976E+02 -0.23256586528E+03 -0.10859771350E+02  0.23337470203E+03  0.41800000000E+01 0.  1.
</event>
<event>
11    1  0.8864208E-009  0.1379297E+03  0.7561462E-02  0.1109893E+00
         22   -1    0    0    0    0  0.00000000000E+00  0.00000000000E+00  0.15263226782E+03  0.15263226782E+03  0.00000000000E+00 0. -1.
         22   -1    0    0    0    0 -0.00000000000E+00 -0.00000000000E+00 -0.13453388394E+04  0.13453388394E+04  0.00000000000E+00 0. -1.
         24    2    1    2    0    0 -0.14034609015E+02 -0.85947507683E+01 -0.99085666387E+03  0.99424059976E+03  0.80290733519E+02 0.  0.
         25    2    1    2    0    0 -0.22034002454E+02 -0.37990631364E+02 -0.32099636143E+03  0.34729808322E+03  0.12509400153E+03 0.  0.
        -24    2    1    2    0    0  0.36068611469E+02  0.46585382132E+02  0.11914645372E+03  0.15643242425E+03  0.82486867799E+02 0.  0.
        -13    1    3    3    0    0 -0.42086395677E+01 -0.29756366876E+02 -0.14595402270E+03  0.14901587419E+03  0.00000000000E+00 0.  1.
         14    1    3    3    0    0 -0.98259694472E+01  0.21161616108E+02 -0.84490264116E+03  0.84522472557E+03  0.00000000000E+00 0. -1.
         11    1    5    5    0    0 -0.51098261113E+01 -0.15565475077E+02  0.57202632631E+02  0.59502399255E+02  0.00000000000E+00 0. -1.
        -12    1    5    5    0    0  0.41178437581E+02  0.62150857209E+02  0.61943821091E+02  0.96930024991E+02  0.00000000000E+00 0.  1.
          5    1    4    4  501    0  0.40275224623E+02 -0.29613826658E+02 -0.23725074904E+03  0.24249631496E+03  0.41800000000E+01 0.  1.
         -5    1    4    4    0  501 -0.62309227078E+02 -0.83768047062E+01 -0.83745612394E+02  0.10480176826E+03  0.41800000000E+01 0.  1.
</event>
<event>
11    1  0.8864208E-009  0.1445406E+03  0.7561462E-02  0.1102591E+00
         22   -1    0    0    0    0  0.00000000000E+00  0.00000000000E+00  0.90735986006E+02  0.90735986006E+02  0.00000000000E+00 0.  1.
         22   -1    0    0    0    0 -0.00000000000E+00 -0.00000000000E+00 -0.18593010446E+04  0.18593010446E+04  0.00000000000E+00 0.  1.
        -24    2    1    2    0    0 -0.36732752429E+02 -0.40605580618E+02 -0.13585512614E+04  0.13620471256E+04  0.80701512734E+02 0.  0.
         25    2    1    2    0    0  0.21998809723E+02 -0.33878073919E+02 -0.45251226079E+03  0.47121148888E+03  0.12506498137E+03 0.  0.
         24    2    1    2    0    0  0.14733942707E+02  0.74483654537E+02  0.42498463590E+02  0.11677841616E+03  0.77885654724E+02 0.  0.
        -11    1    5    5    0    0  0.45617697587E+02  0.57904588486E+02  0.29224049786E+02  0.79296663150E+02  0.00000000000E+00 0.  1.
         12    1    5    5    0    0 -0.30883754880E+02  0.16579066051E+02  0.13274413804E+02  0.37481753007E+02  0.00000000000E+00 0. -1.
         13    1    3    3    0    0 -0.15963870233E+02  0.11842265782E+02 -0.86855886888E+02  0.89101231747E+02  0.00000000000E+00 0. -1.
        -14    1    3    3    0    0 -0.20768882196E+02 -0.52447846400E+02 -0.12716953745E+04  0.12729458938E+04  0.00000000000E+00 0.  1.
          5    1    4    4  501    0 -0.33755744178E+01 -0.58730666473E+02 -0.94333916577E+02  0.11125217258E+03  0.41800000000E+01 0. -1.
         -5    1    4    4    0  501  0.25374384140E+02  0.24852592555E+02 -0.35817834421E+03  0.35995931630E+03  0.41800000000E+01 0. -1.
</event>
<event>
11    1  0.8864208E-009  0.1287395E+03  0.7561462E-02  0.1120828E+00
         22   -1    0    0    0    0  0.00000000000E+00  0.00000000000E+00  0.24354888680E+03  0.24354888680E+03  0.00000000000E+00 0. -1.
         22   -1    0    0    0    0 -0.00000000000E+00 -0.00000000000E+00 -0.27443588227E+03  0.27443588227E+03  0.00000000000E+00 0.  1.
        -24    2    1    2    0    0  0.34558310586E+01 -0.78398471421E+01 -0.20165993301E+03  0.21759158361E+03  0.81277073686E+02 0.  0.
         25    2    1    2    0    0  0.22709293685E+02 -0.10087009668E+02  0.23117252373E+02  0.12961403751E+03  0.12509169269E+03 0.  0.
         24    2    1    2    0    0 -0.26165124743E+02  0.17926856810E+02  0.14765568517E+03  0.17077914793E+03  0.79732866871E+02 0.  0.
        -13    1    5    5    0    0  0.12408896624E+02 -0.24296100351E+02  0.62574563388E+02  0.68263146653E+02  0.00000000000E+00 0.  1.
         14    1    5    5    0    0 -0.38574021367E+02  0.42222957161E+02  0.85081121779E+02  0.10251600128E+03  0.00000000000E+00 0. -1.
         11    1    3    3    0    0 -0.94717327596E+01 -0.42376763964E+02 -0.12894732211E+03  0.13606217596E+03  0.00000000000E+00 0. -1.
        -12    1    3    3    0    0  0.12927563818E+02  0.34536916822E+02 -0.72712610894E+02  0.81529407657E+02  0.00000000000E+00 0.  1.
          5    1    4    4  501    0  0.65418973738E+02 -0.26706782934E+02  0.39140390342E+02  0.80884713857E+02  0.41800000000E+01 0.  1.
         -5    1    4    4    0  501 -0.42709680054E+02  0.16619773266E+02 -0.16023137969E+02  0.48729323657E+02  0.41800000000E+01 0.  1.
</event>
<event>
11    1  0.8864208E-009  0.2259256E+03  0.7561462E-02  0.1037568E+00
         22   -1    0    0    0    0  0.00000000000E+00  0.00000000000E+00  0.27823974468E+03  0.27823974468E+03  0.00000000000E+00 0. -1.
         22   -1    0    0    0    0 -0.00000000000E+00 -0.00000000000E+00 -0.19481273473E+04  0.19481273473E+04  0.00000000000E+00 0.  1.
        -24    2    1    2    0    0 -0.72870378812E+02  0.17723957418E+03 -0.18032283857E+04  0.18151800756E+04  0.80759748289E+02 0.  0.
         25    2    1    2    0    0  0.27429239866E+02 -0.14521624795E+03 -0.53291559239E+02  0.20081882903E+03  0.12509232566E+03 0.  0.
         24    2    1    2    0    0  0.45441138946E+02 -0.32023326229E+02  0.18663234236E+03  0.21036818736E+03  0.79578593269E+02 0.  0.
        -11    1    5    5    0    0  0.43448439469E+02 -0.37664093519E+02  0.58261866729E+02  0.81858389599E+02  0.00000000000E+00 0.  1.
         12    1    5    5    0    0  0.19926994773E+01  0.56407672909E+01  0.12837047563E+03  0.12850979776E+03  0.00000000000E+00 0. -1.
         13    1    3    3    0    0 -0.75359587346E+02  0.10113689773E+03 -0.90775784537E+03  0.91647806593E+03  0.00000000000E+00 0. -1.
        -14    1    3    3    0    0  0.24892085338E+01  0.76102676443E+02 -0.89547054035E+03  0.89870200966E+03  0.00000000000E+00 0.  1.
          5    1    4    4  501    0 -0.22531383437E+02 -0.83567913584E+02  0.24054186154E+02  0.89929615211E+02  0.41800000000E+01 0.  1.
         -5    1    4    4    0  501  0.49960623304E+02 -0.61648334364E+02 -0.77345745393E+02  0.11088921382E+03  0.41800000000E+01 0.  1.
</event>
<event>
11    1  0.8864208E-009  0.1413679E+03  0.7561462E-02  0.1106041E+00
         22   -1    0    0    0    0  0.00000000000E+00  0.00000000000E+00  0.53087673582E+03  0.53087673582E+03  0.00000000000E+00 0.  1.
         22   -1    0    0    0    0 -0.00000000000E+00 -0.00000000000E+00 -0.21426734985E+03  0.21426734985E+03  0.00000000000E+00 0. -1.
        -24    2    1    2    0    0  0.55926360488E+02 -0.33349696649E+02 -0.13940455550E+03  0.17552936248E+03  0.84480571335E+02 0.  0.
         25    2    1    2    0    0 -0.61945446810E+02  0.32957271002E+02  0.43938762954E+02  0.14998813348E+03  0.12506960143E+03 0.  0.
         24    2    1    2    0    0  0.60190863223E+01  0.39242564680E+00  0.41207517852E+03  0.41962658971E+03  0.79019862324E+02 0.  0.
        -13    1    5    5    0    0  0.34144017850E+02 -0.17369003272E+02  0.12797054327E+03  0.13358127179E+03  0.00000000000E+00 0.  1.
         14    1    5    5    0    0 -0.28124931527E+02  0.17761428919E+02  0.28410463525E+03  0.28604531792E+03  0.00000000000E+00 0. -1.
         13    1    3    3    0    0  0.27787842803E+02  0.25060422450E+01 -0.12448148300E+03  0.12756991834E+03  0.00000000000E+00 0. -1.
        -14    1    3    3    0    0  0.28138517685E+02 -0.35855738894E+02 -0.14923072502E+02  0.47959444138E+02  0.00000000000E+00 0.  1.
          5    1    4    4  501    0 -0.52451627790E+02 -0.35017803527E+02 -0.81442868668E+01  0.63727714774E+02  0.41800000000E+01 0.  1.
         -5    1    4    4    0  501 -0.94938190199E+01  0.67975074529E+02  0.52083049821E+02  0.86260418707E+02  0.41800000000E+01 0.  1.
</event>
<event>
11    1  0.8864208E-009  0.1393854E+03  0.7561462E-02  0.1108247E+00
         22   -1    0    0    0    0  0.00000000000E+00  0.00000000000E+00  0.46790551733E+02  0.46790551733E+02  0.00000000000E+00 0.  1.
         22   -1    0    0    0    0 -0.00000000000E+00 -0.00000000000E+00 -0.13464855329E+04  0.13464855329E+04  0.00000000000E+00 0.  1.
        -24    2    1    2    0    0  0.44653970518E+02 -0.44439319003E+02 -0.10488251096E+04  0.10537071491E+04  0.79346175443E+02 0.  0.
         25    2    1    2    0    0 -0.46472808231E+02  0.22264913656E+02 -0.20459454098E+03  0.24527921353E+03  0.12509003999E+03 0.  0.
         24    2    1    2    0    0  0.18188377131E+01  0.22174405347E+02 -0.46275330581E+02  0.94289721914E+02  0.79083076666E+02 0.  0.
        -11    1    5    5    0    0 -0.24343460329E+02  0.38568152767E+02 -0.10068039204E+02  0.46706229585E+02  0.00000000000E+00 0.  1.
         12    1    5    5    0    0  0.26162298042E+02 -0.16393747419E+02 -0.36207291378E+02  0.47583492329E+02  0.00000000000E+00 0. -1.
         11    1    3    3    0    0 -0.21197250995E+02 -0.24213002018E+02 -0.36910823501E+03  0.37050841026E+03  0.00000000000E+00 0. -1.
        -12    1    3    3    0    0  0.65851221513E+02 -0.20226316985E+02 -0.67971687455E+03  0.68319873889E+03  0.00000000000E+00 0.  1.
          5    1    4    4  501    0 -0.83603386779E+02 -0.17326793537E+01 -0.16811162879E+03  0.18780713670E+03  0.41800000000E+01 0.  1.
         -5    1    4    4    0  501  0.37130578549E+02  0.23997593010E+02 -0.36482912184E+02  0.57472076829E+02  0.41800000000E+01 0.  1.
</event>
<event>
11    1  0.8864208E-009  0.1500627E+03  0.7561462E-02  0.1096815E+00
         22   -1    0    0    0    0  0.00000000000E+00  0.00000000000E+00  0.14364690058E+04  0.14364690058E+04  0.00000000000E+00 0.  1.
         22   -1    0    0    0    0 -0.00000000000E+00 -0.00000000000E+00 -0.57159774039E+02  0.57159774039E+02  0.00000000000E+00 0. -1.
        -24    2    1    2    0    0 -0.45288523503E+02 -0.30908902249E+02  0.11399764763E+02  0.95694681886E+02  0.77595791802E+02 0.  0.
         25    2    1    2    0    0 -0.51391762146E+02  0.31281921890E+02  0.46046110964E+03  0.48092764974E+03  0.12508916396E+03 0.  0.
         24    2    1    2    0    0  0.96680285649E+02 -0.37301964106E+00  0.90744835732E+03  0.91700644818E+03  0.89950475340E+02 0.  0.
        -11    1    5    5    0    0  0.40742162390E+02  0.37462617532E+02  0.58196571747E+03  0.58459171036E+03  0.00000000000E+00 0.  1.
         12    1    5    5    0    0  0.55938123259E+02 -0.37835637173E+02  0.32548263985E+03  0.33241473782E+03  0.00000000000E+00 0. -1.
         13    1    3    3    0    0 -0.62522109857E+02 -0.37560928345E+02 -0.18511884245E+01  0.72960704888E+02  0.00000000000E+00 0. -1.
        -14    1    3    3    0    0  0.17233586354E+02  0.66520260965E+01  0.13250953187E+02  0.22733976999E+02  0.00000000000E+00 0.  1.
          5    1    4    4  501    0 -0.85627987429E+01 -0.46419084939E+02  0.11860318862E+03  0.12771938662E+03  0.41800000000E+01 0.  1.
         -5    1    4    4    0  501 -0.42828963403E+02  0.77701006829E+02  0.34185792102E+03  0.35320826312E+03  0.41800000000E+01 0.  1.
</event>
<event>
11    1  0.8864208E-009  0.8958958E+03  0.7561462E-02  0.8784870E-01
         22   -1    0    0    0    0  0.00000000000E+00  0.00000000000E+00  0.31999735232E+04  0.31999735232E+04  0.00000000000E+00 0.  1.
         22   -1    0    0    0    0 -0.00000000000E+00 -0.00000000000E+00 -0.40860776203E+03  0.40860776203E+03  0.00000000000E+00 0. -1.
        -24    2    1    2    0    0 -0.87876828937E+03 -0.91419759730E+02  0.39068981665E+03  0.96981911756E+03  0.85552960664E+02 0.  0.
         25    2    1    2    0    0  0.88797390897E+03  0.12634253895E+03  0.16439886279E+04  0.18769140737E+04  0.12509089111E+03 0.  0.
         24    2    1    2    0    0 -0.92056196055E+01 -0.34922779221E+02  0.75668731662E+03  0.76184809403E+03  0.80823754585E+02 0.  0.
        -13    1    5    5    0    0  0.67942388421E+01 -0.51013390590E+02  0.67810711439E+03  0.68005719340E+03  0.00000000000E+00 0.  1.
         14    1    5    5    0    0 -0.15999858448E+02  0.16090611369E+02  0.78580202230E+02  0.81790900638E+02  0.00000000000E+00 0. -1.
         13    1    3    3    0    0 -0.76134074313E+03 -0.65647807592E+02  0.30798259571E+03  0.82389479974E+03  0.00000000000E+00 0. -1.
        -14    1    3    3    0    0 -0.11742754624E+03 -0.25771952138E+02  0.82707220945E+02  0.14592431782E+03  0.00000000000E+00 0.  1.
          5    1    4    4  501    0  0.68699908121E+03  0.13691085237E+03  0.12017649999E+04  0.13910315980E+04  0.41800000000E+01 0. -1.
         -5    1    4    4    0  501  0.20097482776E+03 -0.10568313420E+02  0.44222362800E+03  0.48588247571E+03  0.41800000000E+01 0. -1.
</event>
<event>
11    1  0.8864208E-009  0.1350216E+03  0.7561462E-02  0.1113249E+00
         22   -1    0    0    0    0  0.00000000000E+00  0.00000000000E+00  0.66352502721E+03  0.66352502721E+03  0.00000000000E+00 0. -1.
         22   -1    0    0    0    0 -0.00000000000E+00 -0.00000000000E+00 -0.71164803972E+03  0.71164803972E+03  0.00000000000E+00 0. -1.
        -24    2    1    2    0    0  0.17534893855E+02  0.46878042698E+02 -0.64235271935E+03  0.64956509014E+03  0.82539486794E+02 0.  0.
         25    2    1    2    0    0 -0.56497203870E+02 -0.52033867269E+02  0.23952353138E+02  0.14873581302E+03  0.12509664051E+03 0.  0.
         24    2    1    2    0    0  0.38962310015E+02  0.51558245708E+01  0.57027735371E+03  0.57687216377E+03  0.77592454859E+02 0.  0.
        -11    1    5    5    0    0  0.32315155043E+01 -0.30367726264E+02  0.12166548255E+03  0.12543975101E+03  0.00000000000E+00 0.  1.
         12    1    5    5    0    0  0.35730794511E+02  0.35523550834E+02  0.44861187116E+03  0.45143241276E+03  0.00000000000E+00 0. -1.
         13    1    3    3    0    0  0.47706945813E+02  0.28670869140E+02 -0.49197227820E+03  0.49511078955E+03  0.00000000000E+00 0. -1.
        -14    1    3    3    0    0 -0.30172051958E+02  0.18207173558E+02 -0.15038044116E+03  0.15445430059E+03  0.00000000000E+00 0.  1.
          5    1    4    4  501    0 -0.33810711063E+02 -0.25376846101E+02  0.75297144700E+02  0.86453923570E+02  0.41800000000E+01 0.  1.
         -5    1    4    4    0  501 -0.22686492807E+02 -0.26657021168E+02 -0.51344791562E+02  0.62281889454E+02  0.41800000000E+01 0.  1.
</event>
<event>
11    1  0.8864208E-009  0.1640721E+03  0.7561462E-02  0.1083309E+00
         22   -1    0    0    0    0  0.00000000000E+00  0.00000000000E+00  0.17929328508E+04  0.17929328508E+04  0.00000000000E+00 0.  1.
         22   -1    0    0    0    0 -0.00000000000E+00 -0.00000000000E+00 -0.17015176231E+04  0.17015176231E+04  0.00000000000E+00 0.  1.
        -24    2    1    2    0    0  0.32790551351E+02  0.16381427233E+01 -0.16744150231E+04  0.16769984174E+04  0.87063877670E+02 0.  0.
         25    2    1    2    0    0 -0.84894156113E+02  0.88829713229E+02  0.31361381473E+03  0.35930344559E+03  0.12509038942E+03 0.  0.
         24    2    1    2    0    0  0.52103604762E+02 -0.90467855952E+02  0.14522164360E+04  0.14581486109E+04  0.79784558878E+02 0.  0.
        -13    1    5    5    0    0  0.50391624712E+02 -0.48289045947E+02  0.48334581593E+03  0.48835880823E+03  0.00000000000E+00 0.  1.
         14    1    5    5    0    0  0.17119800503E+01 -0.42178810005E+02  0.96887062008E+03  0.96978980266E+03  0.00000000000E+00 0. -1.
         13    1    3    3    0    0  0.94658958229E+01 -0.39542213134E+01 -0.20633948168E+02  0.23043412658E+02  0.00000000000E+00 0. -1.
        -14    1    3    3    0    0  0.23324655528E+02  0.55923640367E+01 -0.16537810749E+04  0.16539550048E+04  0.00000000000E+00 0.  1.
          5    1    4    4  501    0 -0.92761305168E+02  0.59078401981E+02  0.30886354958E+03  0.32788577581E+03  0.41800000000E+01 0.  1.
         -5    1    4    4    0  501  0.78671490555E+01  0.29751311247E+02  0.47502651503E+01  0.31417669777E+02  0.41800000000E+01 0.  1.
</event>
<event>
11    1  0.8864208E-009  0.1310026E+03  0.7561462E-02  0.1118043E+00
         22   -1    0    0    0    0  0.00000000000E+00  0.00000000000E+00  0.95988188919E+03  0.95988188919E+03  0.00000000000E+00 0.  1.
         22   -1    0    0    0    0 -0.00000000000E+00 -0.00000000000E+00 -0.12965588324E+04  0.12965588324E+04  0.00000000000E+00 0.  1.
        -24    2    1    2    0    0 -0.32253145321E+02  0.27301183619E+02 -0.99423223607E+03  0.99808529762E+03  0.76752212211E+02 0.  0.
         25    2    1    2    0    0  0.15705033403E+02 -0.58638062044E+01 -0.28516282716E+03  0.31184239079E+03  0.12508719520E+03 0.  0.
         24    2    1    2    0    0  0.16548111918E+02 -0.21437377415E+02  0.94271811998E+03  0.94651303323E+03  0.80225103121E+02 0.  0.
        -11    1    5    5    0    0  0.77023537375E+00 -0.34161024753E+02  0.87867143193E+03  0.87933557540E+03  0.00000000000E+00 0.  1.
         12    1    5    5    0    0  0.15777876544E+02  0.12723647339E+02  0.64046688054E+02  0.67177457830E+02  0.00000000000E+00 0. -1.
         13    1    3    3    0    0 -0.51089234117E+02 -0.31675856252E+01 -0.64144989031E+03  0.64348900940E+03  0.00000000000E+00 0. -1.
        -14    1    3    3    0    0  0.18836088796E+02  0.30468769244E+02 -0.35278234576E+03  0.35459628822E+03  0.00000000000E+00 0.  1.
          5    1    4    4  501    0  0.21561664838E+02 -0.62855349941E+02 -0.12395063847E+03  0.14070157634E+03  0.41800000000E+01 0.  1.
         -5    1    4    4    0  501 -0.58566314354E+01  0.56991543737E+02 -0.16121218870E+03  0.17114081446E+03  0.41800000000E+01 0.  1.
</event>
<event>
11    1  0.8864208E-009  0.1453019E+03  0.7561462E-02  0.1101778E+00
         22   -1    0    0    0    0  0.00000000000E+00  0.00000000000E+00  0.24648223365E+03  0.24648223365E+03  0.00000000000E+00 0. -1.
         22   -1    0    0    0    0 -0.00000000000E+00 -0.00000000000E+00 -0.21422355737E+04  0.21422355737E+04  0.00000000000E+00 0.  1.
        -24    2    1    2    0    0 -0.16031016513E+02 -0.39213837873E+02 -0.20085318647E+04  0.20105899223E+04  0.80478974247E+02 0.  0.
         25    2    1    2    0    0 -0.46791662199E+02  0.76503581001E+02 -0.67298161544E+02  0.16798976763E+03  0.12509701005E+03 0.  0.
         24    2    1    2    0    0  0.62822678713E+02 -0.37289743127E+02  0.18007668628E+03  0.21013811741E+03  0.79957498348E+02 0.  0.
        -13    1    5    5    0    0 -0.15640684760E+02 -0.39768562070E+01  0.77967053839E+01  0.17923030433E+02  0.00000000000E+00 0.  1.
         14    1    5    5    0    0  0.78463363473E+02 -0.33312886920E+02  0.17227998090E+03  0.19221508697E+03  0.00000000000E+00 0. -1.
         11    1    3    3    0    0 -0.18246347585E+02 -0.29910335799E+02 -0.30114888017E+03  0.30318015340E+03  0.00000000000E+00 0. -1.
        -12    1    3    3    0    0  0.22153310716E+01 -0.93035020741E+01 -0.17073829846E+04  0.17074097689E+04  0.00000000000E+00 0.  1.
          5    1    4    4  501    0 -0.83506663541E+02  0.73478001654E+02 -0.29739505782E+02  0.11521410585E+03  0.41800000000E+01 0. -1.
         -5    1    4    4    0  501  0.36715001341E+02  0.30255793471E+01 -0.37558655762E+02  0.52775661782E+02  0.41800000000E+01 0. -1.
</event>
<event>
11    1  0.8864208E-009  0.4172388E+03  0.7561462E-02  0.9600220E-01
         22   -1    0    0    0    0  0.00000000000E+00  0.00000000000E+00  0.36864935136E+03  0.36864935136E+03  0.00000000000E+00 0.  1.
         22   -1    0    0    0    0 -0.00000000000E+00 -0.00000000000E+00 -0.21150723289E+04  0.21150723289E+04  0.00000000000E+00 0.  1.
        -24    2    1    2    0    0 -0.44803941015E+02  0.31026463508E+03 -0.19791689840E+04  0.20059572002E+04  0.92102579984E+02 0.  0.
         25    2    1    2    0    0 -0.49866999467E+02 -0.99804793741E+02  0.58823699752E+02  0.17764220322E+03  0.12509520463E+03 0.  0.
         24    2    1    2    0    0  0.94670940482E+02 -0.21045984134E+03  0.17392230665E+03  0.30012227682E+03  0.81046162808E+02 0.  0.
        -13    1    5    5    0    0  0.16351421496E+02 -0.13341527203E+03  0.88115293664E+02  0.16072121444E+03  0.00000000000E+00 0.  1.
         14    1    5    5    0    0  0.78319518986E+02 -0.77044569319E+02  0.85807012983E+02  0.13940106238E+03  0.00000000000E+00 0. -1.
         11    1    3    3    0    0 -0.42004841059E+02  0.49030456751E+02 -0.33547316736E+03  0.34162938747E+03  0.00000000000E+00 0. -1.
        -12    1    3    3    0    0 -0.27990999567E+01  0.26123417833E+03 -0.16436958166E+04  0.16643278128E+04  0.00000000000E+00 0.  1.
          5    1    4    4  501    0 -0.86095013379E+02 -0.37940898827E+02  0.21050902721E+02  0.96501171173E+02  0.41800000000E+01 0.  1.
         -5    1    4    4    0  501  0.36228013911E+02 -0.61863894914E+02  0.37772797031E+02  0.81141032045E+02  0.41800000000E+01 0.  1.
</event>
<event>
11    1  0.8864208E-009  0.1641261E+03  0.7561462E-02  0.1083259E+00
         22   -1    0    0    0    0  0.00000000000E+00  0.00000000000E+00  0.86812523751E+02  0.86812523751E+02  0.00000000000E+00 0. -1.
         22   -1    0    0    0    0 -0.00000000000E+00 -0.00000000000E+00 -0.24023667839E+04  0.24023667839E+04  0.00000000000E+00 0. -1.
        -24    2    1    2    0    0  0.47501171450E+02 -0.96612672836E+02 -0.22031024047E+04  0.22073551717E+04  0.84653874427E+02 0.  0.
         25    2    1    2    0    0 -0.56888199250E+01  0.87210422493E+02 -0.11415707559E+03  0.19057013976E+03  0.12508844790E+03 0.  0.
         24    2    1    2    0    0 -0.41812351525E+02  0.94022503430E+01  0.17052202132E+01  0.91253996144E+02  0.80546315774E+02 0.  0.
        -11    1    5    5    0    0 -0.10261249538E+02  0.13842027480E+02 -0.37182185500E+02  0.40980603771E+02  0.00000000000E+00 0.  1.
         12    1    5    5    0    0 -0.31551101987E+02 -0.44397771372E+01  0.38887405713E+02  0.50273392373E+02  0.00000000000E+00 0. -1.
         11    1    3    3    0    0 -0.51128928980E+01 -0.72797793457E+02 -0.15453597756E+04  0.15470819294E+04  0.00000000000E+00 0. -1.
        -12    1    3    3    0    0  0.52614064348E+02 -0.23814879379E+02 -0.65774262916E+03  0.66027324227E+03  0.00000000000E+00 0.  1.
          5    1    4    4  501    0 -0.13771713091E+02  0.60298219770E+02  0.10361453223E+02  0.62851949069E+02  0.41800000000E+01 0. -1.
         -5    1    4    4    0  501  0.80828931658E+01  0.26912202723E+02 -0.12451852881E+03  0.12771819069E+03  0.41800000000E+01 0. -1.
</event>
<event>
11    1  0.8864208E-009  0.1697586E+03  0.7561462E-02  0.1078242E+00
         22   -1    0    0    0    0  0.00000000000E+00  0.00000000000E+00  0.58762805130E+03  0.58762805130E+03  0.00000000000E+00 0. -1.
         22   -1    0    0    0    0 -0.00000000000E+00 -0.00000000000E+00 -0.26695536989E+03  0.26695536989E+03  0.00000000000E+00 0. -1.
        -24    2    1    2    0    0  0.36047398397E+02 -0.10985013922E+03 -0.20078859283E+03  0.24486908202E+03  0.79235978568E+02 0.  0.
         25    2    1    2    0    0 -0.97570350322E+02  0.78017699161E+02  0.17681904397E+03  0.25004123058E+03  0.12509559560E+03 0.  0.
         24    2    1    2    0    0  0.61522951925E+02  0.31832440060E+02  0.34464223027E+03  0.35967310859E+03  0.76079565580E+02 0.  0.
        -13    1    5    5    0    0  0.48139219499E+01 -0.22961398480E+02  0.64077607047E+02  0.68237375312E+02  0.00000000000E+00 0.  1.
         14    1    5    5    0    0  0.56709029975E+02  0.54793838540E+02  0.28056462323E+03  0.29143573327E+03  0.00000000000E+00 0. -1.
         11    1    3    3    0    0  0.43957019780E+02 -0.11948557140E+03 -0.17727710290E+03  0.21825717073E+03  0.00000000000E+00 0. -1.
        -12    1    3    3    0    0 -0.79096213836E+01  0.96354321826E+01 -0.23511489930E+02  0.26611911290E+02  0.00000000000E+00 0.  1.
          5    1    4    4  501    0 -0.12083319581E+03  0.62145019939E+02  0.17488367745E+03  0.22150493844E+03  0.41800000000E+01 0. -1.
         -5    1    4    4    0  501  0.23262845490E+02  0.15872679221E+02  0.19353665149E+01  0.28536292147E+02  0.41800000000E+01 0. -1.
</event>
<event>
11    1  0.1617138E-008  0.1987314E+03  0.7561462E-02  0.1055424E+00
         22   -1    0    0    0    0  0.00000000000E+00  0.00000000000E+00  0.19198089097E+04  0.19198089097E+04  0.00000000000E+00 0.  1.
         22   -1    0    0    0    0 -0.00000000000E+00 -0.00000000000E+00 -0.30507811797E+03  0.30507811797E+03  0.00000000000E+00 0.  1.
         24    2    1    2    0    0 -0.11767549522E+02  0.41388788049E+02 -0.12761406541E+03  0.15466859908E+03  0.76062598247E+02 0.  0.
         25    2    1    2    0    0  0.91702014944E+02 -0.17229757080E+03 -0.75753684785E+02  0.24388812959E+03  0.12508831499E+03 0.  0.
        -24    2    1    2    0    0 -0.79934465421E+02  0.13090878275E+03  0.18180985419E+04  0.18263302990E+04  0.80457595798E+02 0.  0.
        -13    1    3    3    0    0 -0.32511122040E+02  0.15228485550E+02 -0.11237170009E+03  0.11796727856E+03  0.00000000000E+00 0.  1.
         14    1    3    3    0    0  0.20743572517E+02  0.26160302498E+02 -0.15242365322E+02  0.36701320524E+02  0.00000000000E+00 0. -1.
         11    1    5    5    0    0 -0.74126450836E+02  0.44354941199E+02  0.93370580588E+03  0.93769324593E+03  0.00000000000E+00 0. -1.
        -12    1    5    5    0    0 -0.58080145850E+01  0.86553841549E+02  0.88439273601E+03  0.88863705304E+03  0.00000000000E+00 0.  1.
          5    1    4    4  501    0  0.96208809181E+02 -0.16406912392E+03 -0.24732760639E+02  0.19184367135E+03  0.41800000000E+01 0.  1.
         -5    1    4    4    0  501 -0.45067942373E+01 -0.82284468722E+01 -0.51020924146E+02  0.52044458235E+02  0.41800000000E+01 0.  1.
</event>
<event>
11    1  0.8864208E-009  0.1856813E+03  0.7561462E-02  0.1065138E+00
         22   -1    0    0    0    0  0.00000000000E+00  0.00000000000E+00  0.17582768002E+03  0.17582768002E+03  0.00000000000E+00 0. -1.
         22   -1    0    0    0    0 -0.00000000000E+00 -0.00000000000E+00 -0.38447271566E+03  0.38447271566E+03  0.00000000000E+00 0.  1.
         24    2    1    2    0    0  0.96220395490E+02  0.78359767220E+02 -0.14644876080E+03  0.20799493242E+03  0.80100154478E+02 0.  0.
         25    2    1    2    0    0 -0.18369827003E+03 -0.48770858376E+02 -0.36419829313E+02  0.23042753218E+03  0.12508713994E+03 0.  0.
        -24    2    1    2    0    0  0.87477874544E+02 -0.29588908845E+02 -0.25776445536E+02  0.12187793108E+03  0.75245749911E+02 0.  0.
        -13    1    3    3    0    0  0.20868857555E+02  0.59987512895E+02 -0.97231687127E+02  0.11613790036E+03  0.00000000000E+00 0.  1.
         14    1    3    3    0    0  0.75351537936E+02  0.18372254325E+02 -0.49217073668E+02  0.91857032059E+02  0.00000000000E+00 0. -1.
         11    1    5    5    0    0  0.85434136224E+00  0.11510598150E+02 -0.23259357163E+02  0.25965774869E+02  0.00000000000E+00 0. -1.
        -12    1    5    5    0    0  0.86623533182E+02 -0.41099506995E+02 -0.25170883734E+01  0.95912156216E+02  0.00000000000E+00 0.  1.
          5    1    4    4  501    0 -0.10084157029E+03 -0.13164055613E+02  0.42706525971E+02  0.11037950181E+03  0.41800000000E+01 0.  1.
         -5    1    4    4    0  501 -0.82856699745E+02 -0.35606802762E+02 -0.79126355284E+02  0.12004803037E+03  0.41800000000E+01 0.  1.
</event>
<event>
11    1  0.8864208E-009  0.2076166E+03  0.7561462E-02  0.1049264E+00
         22   -1    0    0    0    0  0.00000000000E+00  0.00000000000E+00  0.96028358725E+02  0.96028358725E+02  0.00000000000E+00 0.  1.
         22   -1    0    0    0    0 -0.00000000000E+00 -0.00000000000E+00 -0.72549429210E+03  0.72549429210E+03  0.00000000000E+00 0.  1.
         24    2    1    2    0    0 -0.10916789049E+03 -0.11517262789E+03 -0.38961493273E+03  0.42818045536E+03  0.79726683228E+02 0.  0.
         25    2    1    2    0    0  0.13160668466E+03  0.12814417530E+03 -0.20190721030E+03  0.30025857004E+03  0.12508972062E+03 0.  0.
        -24    2    1    2    0    0 -0.22438794170E+02 -0.12971547414E+02 -0.37943790345E+02  0.93083625418E+02  0.80951031922E+02 0.  0.
        -13    1    3    3    0    0 -0.62516648759E+02 -0.19596509311E+02 -0.98993443476E+02  0.11870996757E+03  0.00000000000E+00 0.  1.
         14    1    3    3    0    0 -0.46651241727E+02 -0.95576118578E+02 -0.29062148926E+03  0.30947048779E+03  0.00000000000E+00 0. -1.
         11    1    5    5    0    0 -0.53240954264E+01 -0.19474025673E+02 -0.60646432405E+02  0.63918490529E+02  0.00000000000E+00 0. -1.
        -12    1    5    5    0    0 -0.17114698744E+02  0.65024782588E+01  0.22702642060E+02  0.29165134889E+02  0.00000000000E+00 0.  1.
          5    1    4    4  501    0  0.12800750649E+03  0.14147660292E+03 -0.20996479463E+03  0.28373268807E+03  0.41800000000E+01 0. -1.
         -5    1    4    4    0  501  0.35991781679E+01 -0.13332427622E+02  0.80575843361E+01  0.16525881977E+02  0.41800000000E+01 0. -1.
</event>
<event>
11    1  0.8864208E-009  0.1573567E+03  0.7561462E-02  0.1089590E+00
         22   -1    0    0    0    0  0.00000000000E+00  0.00000000000E+00  0.23940016789E+04  0.23940016789E+04  0.00000000000E+00 0. -1.
         22   -1    0    0    0    0 -0.00000000000E+00 -0.00000000000E+00 -0.40279937325E+03  0.40279937325E+03  0.00000000000E+00 0.  1.
         24    2    1    2    0    0  0.54099937616E+02  0.51637620212E+02 -0.36264086899E+03  0.37885161495E+03  0.80167943816E+02 0.  0.
         25    2    1    2    0    0 -0.14376426037E+03 -0.71109859862E+02  0.31224432121E+03  0.37265142467E+03  0.12509114056E+03 0.  0.
        -24    2    1    2    0    0  0.89664322751E+02  0.19472239650E+02  0.20415988534E+04  0.20452980125E+04  0.81848780731E+02 0.  0.
        -11    1    3    3    0    0  0.53367786503E+02  0.11064028088E+02 -0.29483396222E+03  0.29982928248E+03  0.00000000000E+00 0.  1.
         12    1    3    3    0    0  0.73215111350E+00  0.40573592125E+02 -0.67806906774E+02  0.79022332473E+02  0.00000000000E+00 0. -1.
         11    1    5    5    0    0  0.27762316806E+02 -0.17363566847E+02  0.12499249156E+04  0.12503537637E+04  0.00000000000E+00 0. -1.
        -12    1    5    5    0    0  0.61902005945E+02  0.36835806497E+02  0.79167393774E+03  0.79494424878E+03  0.00000000000E+00 0.  1.
          5    1    4    4  501    0 -0.44065020872E+02  0.31286955877E+02  0.13121249650E+03  0.14196757133E+03  0.41800000000E+01 0. -1.
         -5    1    4    4    0  501 -0.99699239495E+02 -0.10239681574E+03  0.18103182472E+03  0.23068385334E+03  0.41800000000E+01 0. -1.
</event>
<event>
11    1  0.8864208E-009  0.2608710E+03  0.7561462E-02  0.1018262E+00
         22   -1    0    0    0    0  0.00000000000E+00  0.00000000000E+00  0.16121659013E+04  0.16121659013E+04  0.00000000000E+00 0.  1.
         22   -1    0    0    0    0 -0.00000000000E+00 -0.00000000000E+00 -0.42974249617E+04  0.42974249617E+04  0.00000000000E+00 0.  1.
        -24    2    1    2    0    0  0.47875426523E+00  0.57556889051E+02 -0.38685384605E+04  0.38698333927E+04  0.81900196247E+02 0.  0.
         25    2    1    2    0    0 -0.21781748802E+03 -0.12817539780E+03 -0.37143830520E+03  0.46635491708E+03  0.12508838243E+03 0.  0.
         24    2    1    2    0    0  0.21733873376E+03  0.70618508751E+02  0.15547177054E+04  0.15734025533E+04  0.78900901555E+02 0.  0.
        -13    1    5    5    0    0  0.18854356519E+03  0.53718712285E+02  0.10902370367E+04  0.11077234186E+04  0.00000000000E+00 0.  1.
         14    1    5    5    0    0  0.28795168572E+02  0.16899796466E+02  0.46448066869E+03  0.46567913464E+03  0.00000000000E+00 0. -1.
         11    1    3    3    0    0  0.30382542588E+02  0.38166544526E+02 -0.11177235862E+04  0.11187876471E+04  0.00000000000E+00 0. -1.
        -12    1    3    3    0    0 -0.29903788323E+02  0.19390344526E+02 -0.27508148743E+04  0.27510457457E+04  0.00000000000E+00 0.  1.
          5    1    4    4  501    0 -0.10284002059E+03 -0.53964738115E+02 -0.27598198566E+03  0.29945248639E+03  0.41800000000E+01 0.  1.
         -5    1    4    4    0  501 -0.11497746743E+03 -0.74210659687E+02 -0.95456319539E+02  0.16690243069E+03  0.41800000000E+01 0.  1.
</event>
<event>
11    1  0.8864208E-009  0.1535661E+03  0.7561462E-02  0.1093290E+00
         22   -1    0    0    0    0  0.00000000000E+00  0.00000000000E+00  0.22660807906E+04  0.22660807906E+04  0.00000000000E+00 0.  1.
         22   -1    0    0    0    0 -0.00000000000E+00 -0.00000000000E+00 -0.29919022128E+03  0.29919022128E+03  0.00000000000E+00 0. -1.
         24    2    1    2    0    0 -0.91301872358E+01  0.23136482750E+02 -0.26929456818E+03  0.28212983200E+03  0.80368031565E+02 0.  0.
         25    2    1    2    0    0 -0.36763817933E+02 -0.98096132082E+02  0.28591898718E+03  0.32919853887E+03  0.12509029267E+03 0.  0.
        -24    2    1    2    0    0  0.45894005169E+02  0.74959649332E+02  0.19502661504E+04  0.19539426411E+04  0.81416082901E+02 0.  0.
        -11    1    3    3    0    0  0.36591846705E+01  0.44797175565E+02 -0.85237966440E+02  0.96362272150E+02  0.00000000000E+00 0.  1.
         12    1    3    3    0    0 -0.12789371906E+02 -0.21660692815E+02 -0.18405660174E+03  0.18576755985E+03  0.00000000000E+00 0. -1.
         13    1    5    5    0    0  0.39025299926E+02  0.11776175587E+02  0.34193140154E+03  0.34435263278E+03  0.00000000000E+00 0. -1.
        -14    1    5    5    0    0  0.68687052433E+01  0.63183473745E+02  0.16083347488E+04  0.16095900083E+04  0.00000000000E+00 0.  1.
          5    1    4    4  501    0 -0.16072631173E+02 -0.77852931638E+02  0.28902496953E+03  0.29978711421E+03  0.41800000000E+01 0.  1.
         -5    1    4    4    0  501 -0.20691186760E+02 -0.20243200443E+02 -0.31059823460E+01  0.29411424652E+02  0.41800000000E+01 0.  1.
</event>
<event>
11    1  0.8864208E-009  0.1619927E+03  0.7561462E-02  0.1085218E+00
         22   -1    0    0    0    0  0.00000000000E+00  0.00000000000E+00  0.17519623064E+04  0.17519623064E+04  0.00000000000E+00 0. -1.
         22   -1    0    0    0    0 -0.00000000000E+00 -0.00000000000E+00 -0.97100115226E+02  0.97100115226E+02  0.00000000000E+00 0.  1.
        -24    2    1    2    0    0 -0.75152455122E+01  0.48602983293E+02 -0.47792891792E+02  0.10546702994E+03  0.80127429754E+02 0.  0.
         25    2    1    2    0    0 -0.80936228330E+02 -0.95752126349E+02  0.43404135406E+03  0.46878347707E+03  0.12508760362E+03 0.  0.
         24    2    1    2    0    0  0.88451473842E+02  0.47149143056E+02  0.12686137289E+04  0.12748119146E+04  0.75616926473E+02 0.  0.
        -13    1    5    5    0    0  0.16246786719E+01  0.37797249623E+02  0.43153636168E+03  0.43319153167E+03  0.00000000000E+00 0.  1.
         14    1    5    5    0    0  0.86826795170E+02  0.93518934331E+01  0.83707736725E+03  0.84162038297E+03  0.00000000000E+00 0. -1.
         11    1    3    3    0    0  0.92088569421E+00 -0.12362712983E+02  0.13692149973E+02  0.18470508213E+02  0.00000000000E+00 0. -1.
        -12    1    3    3    0    0 -0.84361312064E+01  0.60965696276E+02 -0.61485041765E+02  0.86996521729E+02  0.00000000000E+00 0.  1.
          5    1    4    4  501    0 -0.98565141269E+02 -0.22519337612E+02  0.26542226775E+03  0.28405749464E+03  0.41800000000E+01 0.  1.
         -5    1    4    4    0  501  0.17628912940E+02 -0.73232788737E+02  0.16861908631E+03  0.18472598243E+03  0.41800000000E+01 0.  1.
</event>
<event>
11    1  0.8864208E-009  0.1710328E+03  0.7561462E-02  0.1077136E+00
         22   -1    0    0    0    0  0.00000000000E+00  0.00000000000E+00  0.11265804951E+04  0.11265804951E+04  0.00000000000E+00 0. -1.
         22   -1    0    0    0    0 -0.00000000000E+00 -0.00000000000E+00 -0.45963676785E+03  0.45963676785E+03  0.00000000000E+00 0.  1.
        -24    2    1    2    0    0  0.11579373780E+03 -0.43639445448E-01 -0.42392549041E+03  0.44588575062E+03  0.75452565006E+02 0.  0.
         25    2    1    2    0    0 -0.15581782305E+03  0.48865015386E+02  0.50015092158E+03  0.54080372203E+03  0.12510290844E+03 0.  0.
         24    2    1    2    0    0  0.40024085258E+02 -0.48821375941E+02  0.59071829607E+03  0.59952779029E+03  0.80622651059E+02 0.  0.
        -11    1    5    5    0    0  0.50138810484E+02 -0.48093394176E+02  0.27479058315E+03  0.28343736428E+03  0.00000000000E+00 0.  1.
         12    1    5    5    0    0 -0.10114725226E+02 -0.72798176429E+00  0.31592771292E+03  0.31609042601E+03  0.00000000000E+00 0. -1.
         11    1    3    3    0    0  0.17583089778E+02 -0.29867578814E+02 -0.13062051266E+03  0.13514050332E+03  0.00000000000E+00 0. -1.
        -12    1    3    3    0    0  0.98210648017E+02  0.29823939368E+02 -0.29330497775E+03  0.31074524730E+03  0.00000000000E+00 0.  1.
          5    1    4    4  501    0 -0.16671323649E+03  0.70555308211E+02  0.43896307346E+03  0.47484461353E+03  0.41800000000E+01 0.  1.
         -5    1    4    4    0  501  0.10895413441E+02 -0.21690292825E+02  0.61187848114E+02  0.65959108497E+02  0.41800000000E+01 0.  1.
</event>
<event>
11    1  0.8864208E-009  0.1538268E+03  0.7561462E-02  0.1093031E+00
         22   -1    0    0    0    0  0.00000000000E+00  0.00000000000E+00  0.76816144229E+02  0.76816144229E+02  0.00000000000E+00 0. -1.
         22   -1    0    0    0    0 -0.00000000000E+00 -0.00000000000E+00 -0.21789476001E+04  0.21789476001E+04  0.00000000000E+00 0. -1.
        -24    2    1    2    0    0  0.93694425414E+02  0.14616079252E+02 -0.18034803990E+04  0.18078415202E+04  0.82201810819E+02 0.  0.
         25    2    1    2    0    0 -0.56719650572E+02  0.21989907902E+01 -0.32552613295E+03  0.35332086108E+03  0.12508562394E+03 0.  0.
         24    2    1    2    0    0 -0.36974774842E+02 -0.16815070042E+02  0.26875076031E+02  0.94601363032E+02  0.81100355244E+02 0.  0.
        -11    1    5    5    0    0 -0.51234520544E+02  0.12184715754E+02  0.14606350462E+00  0.52663694590E+02  0.00000000000E+00 0.  1.
         12    1    5    5    0    0  0.14259745701E+02 -0.28999785796E+02  0.26729012526E+02  0.41937668442E+02  0.00000000000E+00 0. -1.
         13    1    3    3    0    0  0.43050776120E+02 -0.18129898619E+00 -0.14305194014E+04  0.14311670623E+04  0.00000000000E+00 0. -1.
        -14    1    3    3    0    0  0.50643649295E+02  0.14797378238E+02 -0.37296099752E+03  0.37667445797E+03  0.00000000000E+00 0.  1.
          5    1    4    4  501    0 -0.59687602642E+02 -0.54166358364E+02 -0.18643058233E+03  0.20315127053E+03  0.41800000000E+01 0. -1.
         -5    1    4    4    0  501  0.29679520694E+01  0.56365349154E+02 -0.13909555062E+03  0.15016959055E+03  0.41800000000E+01 0. -1.
</event>
<event>
11    1  0.8864208E-009  0.2669143E+03  0.7561462E-02  0.1015256E+00
         22   -1    0    0    0    0  0.00000000000E+00  0.00000000000E+00  0.14024101470E+03  0.14024101470E+03  0.00000000000E+00 0. -1.
         22   -1    0    0    0    0 -0.00000000000E+00 -0.00000000000E+00 -0.87961601674E+03  0.87961601674E+03  0.00000000000E+00 0. -1.
         24    2    1    2    0    0  0.12589118683E+03 -0.16832947664E+03 -0.33861813241E+03  0.40663627657E+03  0.80668570044E+02 0.  0.
         25    2    1    2    0    0 -0.26452897587E+02  0.27036858413E+03 -0.22450473089E+03  0.37396556525E+03  0.12509573425E+03 0.  0.
        -24    2    1    2    0    0 -0.99438289242E+02 -0.10203910749E+03 -0.17625213874E+03  0.23925518962E+03  0.76669919296E+02 0.  0.
        -13    1    3    3    0    0  0.56933318486E+02 -0.11635797482E+03 -0.14382365509E+03  0.19356090727E+03  0.00000000000E+00 0.  1.
         14    1    3    3    0    0  0.68957868344E+02 -0.51971501828E+02 -0.19479447732E+03  0.21307536930E+03  0.00000000000E+00 0. -1.
         11    1    5    5    0    0 -0.47960242727E+02 -0.19010531592E+02 -0.20738630406E+02  0.55602841518E+02  0.00000000000E+00 0. -1.
        -12    1    5    5    0    0 -0.51478046516E+02 -0.83028575896E+02 -0.15551350834E+03  0.18365234810E+03  0.00000000000E+00 0.  1.
          5    1    4    4  501    0  0.42684903964E+02  0.14670527608E+03 -0.84092585274E+02  0.17445192563E+03  0.41800000000E+01 0. -1.
         -5    1    4    4    0  501 -0.69137801551E+02  0.12366330805E+03 -0.14041214561E+03  0.19951363962E+03  0.41800000000E+01 0. -1.
</event>
<event>
11    1  0.8864208E-009  0.1311221E+03  0.7561462E-02  0.1117898E+00
         22   -1    0    0    0    0  0.00000000000E+00  0.00000000000E+00  0.34743880659E+03  0.34743880659E+03  0.00000000000E+00 0. -1.
         22   -1    0    0    0    0 -0.00000000000E+00 -0.00000000000E+00 -0.56515010644E+03  0.56515010644E+03  0.00000000000E+00 0. -1.
         24    2    1    2    0    0 -0.29679859916E+02  0.15003454883E+02 -0.47766373852E+03  0.48581842223E+03  0.82163827447E+02 0.  0.
         25    2    1    2    0    0  0.61887872379E+02  0.44774612976E+01 -0.11708156129E+02  0.14012580375E+03  0.12509198036E+03 0.  0.
        -24    2    1    2    0    0 -0.32208012464E+02 -0.19480916180E+02  0.27166059480E+03  0.28664468705E+03  0.83359676615E+02 0.  0.
        -11    1    3    3    0    0 -0.45345425751E+02  0.35334558688E+01 -0.13212104235E+03  0.13973067945E+03  0.00000000000E+00 0.  1.
         12    1    3    3    0    0  0.15665565836E+02  0.11469999014E+02 -0.34554269617E+03  0.34608774279E+03  0.00000000000E+00 0. -1.
         13    1    5    5    0    0  0.13516650753E+02 -0.29594143733E+02  0.18777530286E+03  0.19057302421E+03  0.00000000000E+00 0. -1.
        -14    1    5    5    0    0 -0.45724663216E+02  0.10113227553E+02  0.83885291932E+02  0.96071662838E+02  0.00000000000E+00 0.  1.
          5    1    4    4  501    0  0.34388129494E+01  0.37242865628E+02 -0.50197651247E+02  0.62738609049E+02  0.41800000000E+01 0.  1.
         -5    1    4    4    0  501  0.58449059430E+02 -0.32765404330E+02  0.38489495118E+02  0.77387194701E+02  0.41800000000E+01 0.  1.
</event>
<event>
11    1  0.8864208E-009  0.1500315E+03  0.7561462E-02  0.1096847E+00
         22   -1    0    0    0    0  0.00000000000E+00  0.00000000000E+00  0.50474251985E+03  0.50474251985E+03  0.00000000000E+00 0.  1.
         22   -1    0    0    0    0 -0.00000000000E+00 -0.00000000000E+00 -0.19460407064E+03  0.19460407064E+03  0.00000000000E+00 0.  1.
        -24    2    1    2    0    0 -0.37744085630E+02 -0.64430035327E+02 -0.10208745949E+03  0.15085871972E+03  0.82223223474E+02 0.  0.
         25    2    1    2    0    0  0.48625917004E+02  0.11691007632E+03  0.66311861051E+02  0.18994009130E+03  0.12509008601E+03 0.  0.
         24    2    1    2    0    0 -0.10881831374E+02 -0.52480040995E+02  0.34591404765E+03  0.35854777947E+03  0.77636414403E+02 0.  0.
        -11    1    5    5    0    0  0.16889028142E+02 -0.32695915234E+02  0.29490238314E+03  0.29718963261E+03  0.00000000000E+00 0.  1.
         12    1    5    5    0    0 -0.27770859516E+02 -0.19784125761E+02  0.51011664507E+02  0.61358146861E+02  0.00000000000E+00 0. -1.
         13    1    3    3    0    0 -0.18265924151E+02  0.18428871005E+02 -0.24450341652E+02  0.35652299764E+02  0.00000000000E+00 0. -1.
        -14    1    3    3    0    0 -0.19478161479E+02 -0.82858906331E+02 -0.77637117841E+02  0.11520641996E+03  0.00000000000E+00 0.  1.
          5    1    4    4  501    0  0.88443799339E+02  0.74649572772E+02  0.62502883092E+02  0.13160147093E+03  0.41800000000E+01 0.  1.
         -5    1    4    4    0  501 -0.39817882334E+02  0.42260503550E+02  0.38089779587E+01  0.58338620372E+02  0.41800000000E+01 0.  1.
</event>
<event>
11    1  0.8864208E-009  0.1825722E+03  0.7561462E-02  0.1067581E+00
         22   -1    0    0    0    0  0.00000000000E+00  0.00000000000E+00  0.13163125209E+04  0.13163125209E+04  0.00000000000E+00 0.  1.
         22   -1    0    0    0    0 -0.00000000000E+00 -0.00000000000E+00 -0.18273038715E+03  0.18273038715E+03  0.00000000000E+00 0.  1.
        -24    2    1    2    0    0  0.36735787434E+01  0.66869367909E+01 -0.11093310692E+03  0.13680932438E+03  0.79702112393E+02 0.  0.
         25    2    1    2    0    0  0.15608316301E+02  0.12551232917E+03  0.93504930585E+02  0.20097299251E+03  0.12509998946E+03 0.  0.
         24    2    1    2    0    0 -0.19281895045E+02 -0.13219926596E+03  0.11510103101E+04  0.11612605912E+04  0.76504831593E+02 0.  0.
        -11    1    5    5    0    0 -0.31918600947E+01 -0.96659227939E+02  0.51157696355E+03  0.52063824673E+03  0.00000000000E+00 0.  1.
         12    1    5    5    0    0 -0.16090034950E+02 -0.35540038022E+02  0.63943334653E+03  0.64062234442E+03  0.00000000000E+00 0. -1.
         11    1    3    3    0    0 -0.78045249563E+00 -0.81368428532E+01  0.11107490944E+02  0.13791072213E+02  0.00000000000E+00 0. -1.
        -12    1    3    3    0    0  0.44540312390E+01  0.14823779644E+02 -0.12204059787E+03  0.12301825216E+03  0.00000000000E+00 0.  1.
          5    1    4    4  501    0  0.37865036241E+02 -0.73013754846E+01  0.40813924663E+02  0.56305593860E+02  0.41800000000E+01 0. -1.
         -5    1    4    4    0  501 -0.22256719940E+02  0.13281370465E+03  0.52691005922E+02  0.14466739865E+03  0.41800000000E+01 0. -1.
</event>
<event>
11    1  0.8864208E-009  0.2241646E+03  0.7561462E-02  0.1038640E+00
         22   -1    0    0    0    0  0.00000000000E+00  0.00000000000E+00  0.22082624753E+03  0.22082624753E+03  0.00000000000E+00 0.  1.
         22   -1    0    0    0    0 -0.00000000000E+00 -0.00000000000E+00 -0.10472717384E+04  0.10472717384E+04  0.00000000000E+00 0.  1.
         24    2    1    2    0    0  0.46324470234E+02  0.19731361147E+02 -0.78920225434E+03  0.79453162293E+03  0.76844117705E+02 0.  0.
         25    2    1    2    0    0  0.86430283670E+02  0.12756172496E+03 -0.13339680539E+03  0.23913354495E+03  0.12509179438E+03 0.  0.
        -24    2    1    2    0    0 -0.13275475390E+03 -0.14729308611E+03  0.96153568813E+02  0.23443281809E+03  0.79963488565E+02 0.  0.
        -11    1    3    3    0    0 -0.65297263368E+01  0.11789723424E+02 -0.51459230879E+03  0.51476876282E+03  0.00000000000E+00 0.  1.
         12    1    3    3    0    0  0.52854196570E+02  0.79416377229E+01 -0.27460994555E+03  0.27976286011E+03  0.00000000000E+00 0. -1.
         11    1    5    5    0    0 -0.30696637412E+02 -0.74490052533E+02  0.75537852373E+01  0.80920400062E+02  0.00000000000E+00 0. -1.
        -12    1    5    5    0    0 -0.10205811649E+03 -0.72803033577E+02  0.88599783576E+02  0.15351241803E+03  0.00000000000E+00 0.  1.
          5    1    4    4  501    0  0.14300300610E+02 -0.13979446421E+02 -0.61325121447E+02  0.64638737923E+02  0.41800000000E+01 0. -1.
         -5    1    4    4    0  501  0.72129983060E+02  0.14154117138E+03 -0.72071683946E+02  0.17449480703E+03  0.41800000000E+01 0. -1.
</event>
<event>
11    1  0.8864208E-009  0.2020817E+03  0.7561462E-02  0.1053061E+00
         22   -1    0    0    0    0  0.00000000000E+00  0.00000000000E+00  0.24789956721E+03  0.24789956721E+03  0.00000000000E+00 0. -1.
         22   -1    0    0    0    0 -0.00000000000E+00 -0.00000000000E+00 -0.55342457113E+03  0.55342457113E+03  0.00000000000E+00 0. -1.
         24    2    1    2    0    0 -0.16240234430E+03  0.28404208502E+01 -0.34236973210E+03  0.38771496568E+03  0.81995559221E+02 0.  0.
         25    2    1    2    0    0  0.14949791219E+03  0.24619980439E+02 -0.12118224535E+03  0.23084262714E+03  0.12508961879E+03 0.  0.
        -24    2    1    2    0    0  0.12904432112E+02 -0.27460401289E+02  0.15802697353E+03  0.18276654551E+03  0.86663070497E+02 0.  0.
        -11    1    3    3    0    0 -0.37811057626E+01 -0.12316332720E+02 -0.36559984516E+01  0.13392353681E+02  0.00000000000E+00 0.  1.
         12    1    3    3    0    0 -0.15862123854E+03  0.15156753570E+02 -0.33871373365E+03  0.37432261200E+03  0.00000000000E+00 0. -1.
         13    1    5    5    0    0 -0.11301862033E+02 -0.56864381475E+01  0.14822596396E+03  0.14876492885E+03  0.00000000000E+00 0. -1.
        -14    1    5    5    0    0  0.24206294145E+02 -0.21773963142E+02  0.98010095750E+01  0.34001616665E+02  0.00000000000E+00 0.  1.
          5    1    4    4  501    0  0.91204243314E+02 -0.25420872002E+02 -0.12126089255E+03  0.15390292783E+03  0.41800000000E+01 0.  1.
         -5    1    4    4    0  501  0.58293668878E+02  0.50040852441E+02  0.78647198865E-01  0.76939699309E+02  0.41800000000E+01 0.  1.
</event>
<event>
11    1  0.8864208E-009  0.1621799E+03  0.7561462E-02  0.1085045E+00
         22   -1    0    0    0    0  0.00000000000E+00  0.00000000000E+00  0.25065563133E+03  0.25065563133E+03  0.00000000000E+00 0. -1.
         22   -1    0    0    0    0 -0.00000000000E+00 -0.00000000000E+00 -0.47556406619E+03  0.47556406619E+03  0.00000000000E+00 0.  1.
        -24    2    1    2    0    0 -0.46220286625E+02  0.93890975546E+02 -0.37295805748E+03  0.39541322587E+03  0.79385618181E+02 0.  0.
         25    2    1    2    0    0  0.59012292055E+02 -0.74755637003E+02 -0.28464760485E+01  0.15724822451E+03  0.12509214927E+03 0.  0.
         24    2    1    2    0    0 -0.12792005430E+02 -0.19135338542E+02  0.15089609866E+03  0.17355824712E+03  0.82601670498E+02 0.  0.
        -13    1    5    5    0    0 -0.64748704170E+01  0.14758358775E+01 -0.95711571480E+01  0.11649424347E+02  0.00000000000E+00 0.  1.
         14    1    5    5    0    0 -0.63171350126E+01 -0.20611174420E+02  0.16046725581E+03  0.16190882278E+03  0.00000000000E+00 0. -1.
         11    1    3    3    0    0  0.12150523751E+02 -0.56407065660E+01 -0.19984957753E+02  0.24059329466E+02  0.00000000000E+00 0. -1.
        -12    1    3    3    0    0 -0.58370810376E+02  0.99531682112E+02 -0.35297309973E+03  0.37135389641E+03  0.00000000000E+00 0.  1.
          5    1    4    4  501    0 -0.12615026334E+02 -0.83703543697E+02  0.20597060005E+01  0.84776983349E+02  0.41800000000E+01 0. -1.
         -5    1    4    4    0  501  0.71627318388E+02  0.89479066943E+01 -0.49061820489E+01  0.72471241165E+02  0.41800000000E+01 0. -1.
</event>
<event>
11    1  0.8864208E-009  0.1529780E+03  0.7561462E-02  0.1093874E+00
         22   -1    0    0    0    0  0.00000000000E+00  0.00000000000E+00  0.53051587050E+03  0.53051587050E+03  0.00000000000E+00 0. -1.
         22   -1    0    0    0    0 -0.00000000000E+00 -0.00000000000E+00 -0.98689281177E+03  0.98689281177E+03  0.00000000000E+00 0.  1.
        -24    2    1    2    0    0 -0.79879751459E+02 -0.38038393006E+02 -0.86745768060E+03  0.87538748367E+03  0.77412692019E+02 0.  0.
         25    2    1    2    0    0  0.96451339147E+02 -0.14198288151E+02 -0.53631171442E+02  0.16741867330E+03  0.12509299505E+03 0.  0.
         24    2    1    2    0    0 -0.16571587688E+02  0.52236681157E+02  0.46471191078E+03  0.47460252530E+03  0.79291289739E+02 0.  0.
        -11    1    5    5    0    0 -0.26892006153E+02 -0.18942526196E+01  0.55545260671E+02  0.61741753870E+02  0.00000000000E+00 0.  1.
         12    1    5    5    0    0  0.10320418465E+02  0.54130933777E+02  0.40916665011E+03  0.41286077143E+03  0.00000000000E+00 0. -1.
         11    1    3    3    0    0 -0.11057884678E+02  0.89313104878E+01 -0.41985420485E+03  0.42009474937E+03  0.00000000000E+00 0. -1.
        -12    1    3    3    0    0 -0.68821866780E+02 -0.46969703494E+02 -0.44760347575E+03  0.45529273429E+03  0.00000000000E+00 0.  1.
          5    1    4    4  501    0  0.46410945753E+02  0.50662053141E+02  0.10410170151E+01  0.68841670742E+02  0.41800000000E+01 0.  1.
         -5    1    4    4    0  501  0.50040393394E+02 -0.64860341292E+02 -0.54672188457E+02  0.98577002562E+02  0.41800000000E+01 0.  1.
</event>
<event>
11    1  0.8864208E-009  0.1382517E+03  0.7561462E-02  0.1109527E+00
         22   -1    0    0    0    0  0.00000000000E+00  0.00000000000E+00  0.85417425236E+02  0.85417425236E+02  0.00000000000E+00 0.  1.
         22   -1    0    0    0    0 -0.00000000000E+00 -0.00000000000E+00 -0.11738455599E+04  0.11738455599E+04  0.00000000000E+00 0.  1.
         24    2    1    2    0    0 -0.27735566507E+02  0.50227315886E+02 -0.97855149657E+03  0.98333650981E+03  0.78074420676E+02 0.  0.
         25    2    1    2    0    0  0.19413635548E+02 -0.83822498341E+02 -0.11043510678E+03  0.18774081728E+03  0.12509037210E+03 0.  0.
        -24    2    1    2    0    0  0.83219309586E+01  0.33595182455E+02  0.55846869359E+00  0.88185658040E+02  0.81107999468E+02 0.  0.
        -13    1    3    3    0    0  0.21751320649E+02  0.35682800382E+02 -0.57228713802E+03  0.57381090138E+03  0.00000000000E+00 0.  1.
         14    1    3    3    0    0 -0.49486887156E+02  0.14544515504E+02 -0.40626435855E+03  0.40952560843E+03  0.00000000000E+00 0. -1.
         11    1    5    5    0    0  0.21787579428E+02  0.57058866820E+02  0.18065995476E+01  0.61103819046E+02  0.00000000000E+00 0. -1.
        -12    1    5    5    0    0 -0.13465648470E+02 -0.23463684365E+02 -0.12481308540E+01  0.27081838994E+02  0.00000000000E+00 0.  1.
          5    1    4    4  501    0 -0.31670924435E+02 -0.64278884954E+01  0.11443623154E+02  0.34536851564E+02  0.41800000000E+01 0. -1.
         -5    1    4    4    0  501  0.51084559983E+02 -0.77394609846E+02 -0.12187872993E+03  0.15320396572E+03  0.41800000000E+01 0. -1.
</event>
<event>
11    1  0.8864208E-009  0.1270591E+03  0.7561462E-02  0.1122936E+00
         22   -1    0    0    0    0  0.00000000000E+00  0.00000000000E+00  0.68685315143E+03  0.68685315143E+03  0.00000000000E+00 0. -1.
         22   -1    0    0    0    0 -0.00000000000E+00 -0.00000000000E+00 -0.13441359510E+04  0.13441359510E+04  0.00000000000E+00 0. -1.
        -24    2    1    2    0    0 -0.61841399358E+01 -0.20705574694E+02 -0.12140353750E+04  0.12168595807E+04  0.79989892766E+02 0.  0.
         25    2    1    2    0    0  0.10459703004E+02  0.37011338203E+02 -0.92134468295E+02  0.16004853939E+03  0.12509008822E+03 0.  0.
         24    2    1    2    0    0 -0.42755630677E+01 -0.16305763509E+02  0.64888704374E+03  0.65408098233E+03  0.80519423447E+02 0.  0.
        -11    1    5    5    0    0  0.20826250633E+02  0.16377622773E+02  0.93906551803E+02  0.97572535657E+02  0.00000000000E+00 0.  1.
         12    1    5    5    0    0 -0.25101813701E+02 -0.32683386282E+02  0.55498049194E+03  0.55650844667E+03  0.00000000000E+00 0. -1.
         13    1    3    3    0    0 -0.93987935120E+01 -0.27657294652E+02 -0.12033943884E+04  0.12037488598E+04  0.00000000000E+00 0. -1.
        -14    1    3    3    0    0  0.32146535762E+01  0.69517199578E+01 -0.10640986563E+02  0.13110720919E+02  0.00000000000E+00 0.  1.
          5    1    4    4  501    0 -0.52474401625E+02 -0.35844842385E+01 -0.21362679356E+02  0.56923174739E+02  0.41800000000E+01 0. -1.
         -5    1    4    4    0  501  0.62934104628E+02  0.40595822442E+02 -0.70771788940E+02  0.10312536465E+03  0.41800000000E+01 0. -1.
</event>
<event>
11    1  0.8864208E-009  0.1518636E+03  0.7561462E-02  0.1094990E+00
         22   -1    0    0    0    0  0.00000000000E+00  0.00000000000E+00  0.12379761837E+04  0.12379761837E+04  0.00000000000E+00 0. -1.
         22   -1    0    0    0    0 -0.00000000000E+00 -0.00000000000E+00 -0.87584658312E+02  0.87584658312E+02  0.00000000000E+00 0.  1.
        -24    2    1    2    0    0  0.59201386054E+01  0.86896560175E+01 -0.46987304549E+02  0.94897968791E+02  0.81775665873E+02 0.  0.
         25    2    1    2    0    0  0.66088538151E+02  0.43578393430E+02  0.45230807149E+03  0.47591726572E+03  0.12509149064E+03 0.  0.
         24    2    1    2    0    0 -0.72008676756E+02 -0.52268049448E+02  0.74507075850E+03  0.75474560755E+03  0.81199128214E+02 0.  0.
        -13    1    5    5    0    0 -0.11983820935E+02 -0.72664229171E+01  0.13909131312E+02  0.19745298176E+02  0.00000000000E+00 0.  1.
         14    1    5    5    0    0 -0.60024855821E+02 -0.45001626530E+02  0.73116162719E+03  0.73500030937E+03  0.00000000000E+00 0. -1.
         13    1    3    3    0    0  0.12369515155E+02 -0.31839418989E+02 -0.23144666773E+01  0.34236095903E+02  0.00000000000E+00 0. -1.
        -14    1    3    3    0    0 -0.64493765498E+01  0.40529075006E+02 -0.44672837871E+02  0.60661872887E+02  0.00000000000E+00 0.  1.
          5    1    4    4  501    0  0.76982978873E+02 -0.22908900969E+02  0.25478826240E+03  0.26718107687E+03  0.41800000000E+01 0.  1.
         -5    1    4    4    0  501 -0.10894440723E+02  0.66487294400E+02  0.19751980909E+03  0.20873618885E+03  0.41800000000E+01 0.  1.
</event>
<event>
11    1  0.8864208E-009  0.2924543E+03  0.7561462E-02  0.1003436E+00
         22   -1    0    0    0    0  0.00000000000E+00  0.00000000000E+00  0.40991006220E+03  0.40991006220E+03  0.00000000000E+00 0.  1.
         22   -1    0    0    0    0 -0.00000000000E+00 -0.00000000000E+00 -0.99988758413E+03  0.99988758413E+03  0.00000000000E+00 0. -1.
         24    2    1    2    0    0 -0.24947439467E+03  0.41245876292E+02 -0.69483292850E+03  0.74367332016E+03  0.79489072695E+02 0.  0.
         25    2    1    2    0    0  0.30701281334E+03 -0.67291387921E+02 -0.16590761415E+03  0.37677183189E+03  0.12508668368E+03 0.  0.
        -24    2    1    2    0    0 -0.57538418666E+02  0.26045511629E+02  0.27076302072E+03  0.28935249428E+03  0.80144957784E+02 0.  0.
        -13    1    3    3    0    0 -0.13359868754E+03  0.97950825380E+00 -0.26640586564E+03  0.29802961933E+03  0.00000000000E+00 0.  1.
         14    1    3    3    0    0 -0.11587570713E+03  0.40266368039E+02 -0.42842706286E+03  0.44564370082E+03  0.00000000000E+00 0. -1.
         11    1    5    5    0    0 -0.43263406458E+02  0.32982473429E+02  0.73453093589E+02  0.91405267078E+02  0.00000000000E+00 0. -1.
        -12    1    5    5    0    0 -0.14275012208E+02 -0.69369617999E+01  0.19730992713E+03  0.19794722720E+03  0.00000000000E+00 0.  1.
          5    1    4    4  501    0  0.20964641038E+03  0.13820646714E+02 -0.11954645858E+03  0.24176735888E+03  0.41800000000E+01 0.  1.
         -5    1    4    4    0  501  0.97366402955E+02 -0.81112034635E+02 -0.46361155562E+02  0.13500447301E+03  0.41800000000E+01 0.  1.
</event>
<event>
11    1  0.8864208E-009  0.1941934E+03  0.7561462E-02  0.1058707E+00
         22   -1    0    0    0    0  0.00000000000E+00  0.00000000000E+00  0.12986272124E+04  0.12986272124E+04  0.00000000000E+00 0. -1.
         22   -1    0    0    0    0 -0.00000000000E+00 -0.00000000000E+00 -0.11776293045E+04  0.11776293045E+04  0.00000000000E+00 0.  1.
         24    2    1    2    0    0 -0.30866673732E+02  0.60066724759E+01 -0.11118154391E+04  0.11150251103E+04  0.78476712957E+02 0.  0.
         25    2    1    2    0    0 -0.26995217431E+01  0.13994516489E+03  0.94256768525E+02  0.21005944966E+03  0.12509475362E+03 0.  0.
        -24    2    1    2    0    0  0.33566195475E+02 -0.14595183737E+03  0.11385565784E+04  0.11511719569E+04  0.80356479460E+02 0.  0.
        -11    1    3    3    0    0  0.18429872033E+02  0.15749317742E+02 -0.65607666697E+03  0.65652440483E+03  0.00000000000E+00 0.  1.
         12    1    3    3    0    0 -0.49296545765E+02 -0.97426452661E+01 -0.45573877209E+03  0.45850070550E+03  0.00000000000E+00 0. -1.
         11    1    5    5    0    0 -0.19188091968E+02 -0.55268523816E+02  0.57196492593E+03  0.57494927523E+03  0.00000000000E+00 0. -1.
        -12    1    5    5    0    0  0.52754287442E+02 -0.90683313554E+02  0.56659165246E+03  0.57622268164E+03  0.00000000000E+00 0.  1.
          5    1    4    4  501    0 -0.12477072462E+02 -0.21476971468E+02  0.19478500428E+02  0.31840571910E+02  0.41800000000E+01 0. -1.
         -5    1    4    4    0  501  0.97775507186E+01  0.16142213636E+03  0.74778268097E+02  0.17821887775E+03  0.41800000000E+01 0. -1.
</event>
<event>
11    1  0.8864208E-009  0.2153055E+03  0.7561462E-02  0.1044199E+00
         22   -1    0    0    0    0  0.00000000000E+00  0.00000000000E+00  0.79302117719E+03  0.79302117719E+03  0.00000000000E+00 0.  1.
         22   -1    0    0    0    0 -0.00000000000E+00 -0.00000000000E+00 -0.38845438671E+03  0.38845438671E+03  0.00000000000E+00 0. -1.
         24    2    1    2    0    0 -0.18124418836E+03  0.34104334493E+02 -0.32076395380E+03  0.37862813522E+03  0.80356638068E+02 0.  0.
         25    2    1    2    0    0  0.94419020730E+02 -0.61556425021E+02  0.18985362075E+03  0.25376665455E+03  0.12509585409E+03 0.  0.
        -24    2    1    2    0    0  0.86825167629E+02  0.27452090528E+02  0.53547712353E+03  0.54908077413E+03  0.80384822495E+02 0.  0.
        -11    1    3    3    0    0 -0.22967767279E+02  0.25937649739E+02 -0.10734837786E+03  0.11280050637E+03  0.00000000000E+00 0.  1.
         12    1    3    3    0    0 -0.15827642108E+03  0.81666847547E+01 -0.21341557594E+03  0.26582762885E+03  0.00000000000E+00 0. -1.
         11    1    5    5    0    0  0.49378612560E+02 -0.90939294070E+01  0.11663514842E+03  0.12698308855E+03  0.00000000000E+00 0. -1.
        -12    1    5    5    0    0  0.37446555068E+02  0.36546019935E+02  0.41884197510E+03  0.42209768557E+03  0.00000000000E+00 0.  1.
          5    1    4    4  501    0  0.63280618802E+02 -0.18303943471E+02  0.10777305570E+02  0.66881191511E+02  0.41800000000E+01 0. -1.
         -5    1    4    4    0  501  0.31138401928E+02 -0.43252481551E+02  0.17907631518E+03  0.18688546304E+03  0.41800000000E+01 0. -1.
</event>
<event>
11    1  0.8864208E-009  0.1820321E+03  0.7561462E-02  0.1068011E+00
         22   -1    0    0    0    0  0.00000000000E+00  0.00000000000E+00  0.14025342356E+04  0.14025342356E+04  0.00000000000E+00 0.  1.
         22   -1    0    0    0    0 -0.00000000000E+00 -0.00000000000E+00 -0.10956896685E+04  0.10956896685E+04  0.00000000000E+00 0.  1.
         24    2    1    2    0    0  0.10780852539E+03 -0.75596626162E+02 -0.10462726396E+04  0.10573505410E+04  0.77241194004E+02 0.  0.
         25    2    1    2    0    0 -0.11335773029E+03  0.11246980997E+03  0.20150291190E+03  0.28591930700E+03  0.12508794281E+03 0.  0.
        -24    2    1    2    0    0  0.55492048965E+01 -0.36873183812E+02  0.11516142948E+04  0.11549540561E+04  0.79454152678E+02 0.  0.
        -13    1    3    3    0    0  0.77972076118E+02 -0.56219644954E+02 -0.45676390744E+03  0.46676927949E+03  0.00000000000E+00 0.  1.
         14    1    3    3    0    0  0.29836449276E+02 -0.19376981208E+02 -0.58950873218E+03  0.59058126149E+03  0.00000000000E+00 0. -1.
         13    1    5    5    0    0  0.15138673737E+02 -0.30483873552E+02  0.17540150209E+03  0.17867325744E+03  0.00000000000E+00 0. -1.
        -14    1    5    5    0    0 -0.95894688410E+01 -0.63893102601E+01  0.97621279271E+03  0.97628079867E+03  0.00000000000E+00 0.  1.
          5    1    4    4  501    0  0.12171065069E+02  0.62963633379E+02  0.41183543676E+02  0.76328963198E+02  0.41800000000E+01 0.  1.
         -5    1    4    4    0  501 -0.12552879536E+03  0.49506176595E+02  0.16031936823E+03  0.20959034380E+03  0.41800000000E+01 0.  1.
</event>
<event>
11    1  0.8864208E-009  0.2610100E+03  0.7561462E-02  0.1018192E+00
         22   -1    0    0    0    0  0.00000000000E+00  0.00000000000E+00  0.75192504837E+03  0.75192504837E+03  0.00000000000E+00 0. -1.
         22   -1    0    0    0    0 -0.00000000000E+00 -0.00000000000E+00 -0.23273952354E+04  0.23273952354E+04  0.00000000000E+00 0.  1.
         24    2    1    2    0    0 -0.10057702378E+03  0.20536326457E+03 -0.22336307913E+04  0.22467652525E+04  0.80980118398E+02 0.  0.
         25    2    1    2    0    0  0.10994852643E+03 -0.21685357057E+03  0.13855951197E+03  0.30652865909E+03  0.12508769306E+03 0.  0.
        -24    2    1    2    0    0 -0.93715026455E+01  0.11490305994E+02  0.51960109239E+03  0.52602637216E+03  0.80613874689E+02 0.  0.
        -11    1    3    3    0    0 -0.11368219531E+03  0.19370756099E+03 -0.21037535302E+04  0.21157091427E+04  0.00000000000E+00 0.  1.
         12    1    3    3    0    0  0.13105171527E+02  0.11655703586E+02 -0.12987726119E+03  0.13105610982E+03  0.00000000000E+00 0. -1.
         11    1    5    5    0    0  0.16030831613E+02 -0.12054839003E+02  0.42174034488E+03  0.42221703567E+03  0.00000000000E+00 0. -1.
        -12    1    5    5    0    0 -0.25402334258E+02  0.23545144998E+02  0.97860747513E+02  0.10380933649E+03  0.00000000000E+00 0.  1.
          5    1    4    4  501    0  0.10583479663E+02 -0.13668435365E+03  0.33639294900E+02  0.14122215526E+03  0.41800000000E+01 0.  1.
         -5    1    4    4    0  501  0.99365046764E+02 -0.80169216922E+02  0.10492021707E+03  0.16530650383E+03  0.41800000000E+01 0.  1.
</event>
<event>
11    1  0.8864208E-009  0.1312039E+03  0.7561462E-02  0.1117799E+00
         22   -1    0    0    0    0  0.00000000000E+00  0.00000000000E+00  0.10125685346E+04  0.10125685346E+04  0.00000000000E+00 0. -1.
         22   -1    0    0    0    0 -0.00000000000E+00 -0.00000000000E+00 -0.54454043343E+03  0.54454043343E+03  0.00000000000E+00 0. -1.
        -24    2    1    2    0    0  0.35686281193E+02  0.14520613885E+02 -0.48936840494E+03  0.49800619604E+03  0.83930784901E+02 0.  0.
         25    2    1    2    0    0 -0.53155027053E+02 -0.40775498945E+02  0.54458793945E+02  0.15199231577E+03  0.12509118914E+03 0.  0.
         24    2    1    2    0    0  0.17468745860E+02  0.26254885060E+02  0.90293771219E+03  0.90711045624E+03  0.80983897461E+02 0.  0.
        -11    1    5    5    0    0 -0.28420565004E+02  0.16827231916E+02  0.20904810182E+03  0.21164118957E+03  0.00000000000E+00 0.  1.
         12    1    5    5    0    0  0.45889310864E+02  0.94276531441E+01  0.69388961037E+03  0.69546926667E+03  0.00000000000E+00 0. -1.
         11    1    3    3    0    0  0.22210731935E+02 -0.30843661000E+02 -0.31661473238E+03  0.31888796904E+03  0.00000000000E+00 0. -1.
        -12    1    3    3    0    0  0.13475549259E+02  0.45364274885E+02 -0.17275367255E+03  0.17911822700E+03  0.00000000000E+00 0.  1.
          5    1    4    4  501    0 -0.28651797517E+02 -0.65218219079E+02  0.81168683568E+02  0.10807483145E+03  0.41800000000E+01 0.  1.
         -5    1    4    4    0  501 -0.24503229536E+02  0.24442720134E+02 -0.26709889624E+02  0.43917484320E+02  0.41800000000E+01 0.  1.
</event>
<event>
11    1  0.8864208E-009  0.1592879E+03  0.7561462E-02  0.1087749E+00
         22   -1    0    0    0    0  0.00000000000E+00  0.00000000000E+00  0.97184808723E+03  0.97184808723E+03  0.00000000000E+00 0. -1.
         22   -1    0    0    0    0 -0.00000000000E+00 -0.00000000000E+00 -0.28072070009E+03  0.28072070009E+03  0.00000000000E+00 0. -1.
         24    2    1    2    0    0  0.74760342066E+02 -0.65024469016E+02 -0.15345147538E+03  0.20026827948E+03  0.82114177548E+02 0.  0.
         25    2    1    2    0    0 -0.77665806173E+02  0.58993599289E+02 -0.40454418054E+02  0.16369804033E+03  0.12509303043E+03 0.  0.
        -24    2    1    2    0    0  0.29054641066E+01  0.60308697276E+01  0.88503328058E+03  0.88860246750E+03  0.79281929917E+02 0.  0.
        -11    1    3    3    0    0  0.53717564010E+01  0.16461886609E+02 -0.65504123161E+01  0.18513707869E+02  0.00000000000E+00 0.  1.
         12    1    3    3    0    0  0.69388585666E+02 -0.81486355625E+02 -0.14690106306E+03  0.18175457161E+03  0.00000000000E+00 0. -1.
         11    1    5    5    0    0 -0.23227354968E+02 -0.22854723517E+02  0.60451629619E+03  0.60539392198E+03  0.00000000000E+00 0. -1.
        -12    1    5    5    0    0  0.26132819074E+02  0.28885593244E+02  0.28051698438E+03  0.28320854552E+03  0.00000000000E+00 0.  1.
          5    1    4    4  501    0 -0.25603679132E+02  0.82640177376E+02  0.10172170638E+02  0.87211769603E+02  0.41800000000E+01 0. -1.
         -5    1    4    4    0  501 -0.52062127041E+02 -0.23646578087E+02 -0.50626588693E+02  0.76486270728E+02  0.41800000000E+01 0. -1.
</event>
<event>
11    1  0.8864208E-009  0.1263779E+03  0.7561462E-02  0.1123801E+00
         22   -1    0    0    0    0  0.00000000000E+00  0.00000000000E+00  0.30669869824E+03  0.30669869824E+03  0.00000000000E+00 0.  1.
         22   -1    0    0    0    0 -0.00000000000E+00 -0.00000000000E+00 -0.23918386687E+03  0.23918386687E+03  0.00000000000E+00 0. -1.
        -24    2    1    2    0    0  0.86279164361E+00 -0.68995033578E+00 -0.12013373478E+03  0.14307411297E+03  0.77697278765E+02 0.  0.
         25    2    1    2    0    0 -0.32236446513E+01  0.18412453523E+02 -0.61470676316E+02  0.14063437639E+03  0.12509985391E+03 0.  0.
         24    2    1    2    0    0  0.23608530077E+01 -0.17722503187E+02  0.24911924247E+03  0.26217407575E+03  0.79719434761E+02 0.  0.
        -13    1    5    5    0    0  0.13764448783E+02  0.16729409216E+02  0.19964570898E+03  0.20081768422E+03  0.00000000000E+00 0.  1.
         14    1    5    5    0    0 -0.11403595775E+02 -0.34451912403E+02  0.49473533497E+02  0.61356391529E+02  0.00000000000E+00 0. -1.
         13    1    3    3    0    0  0.23251121691E+02 -0.29995628691E+02 -0.80140068835E+02  0.88672335220E+02  0.00000000000E+00 0. -1.
        -14    1    3    3    0    0 -0.22388330047E+02  0.29305678355E+02 -0.39993665947E+02  0.54401777747E+02  0.00000000000E+00 0.  1.
          5    1    4    4  501    0  0.41246582678E+02 -0.34381214761E+02 -0.43371486468E+02  0.69151332232E+02  0.41800000000E+01 0.  1.
         -5    1    4    4    0  501 -0.44470227330E+02  0.52793668283E+02 -0.18099189847E+02  0.71483044162E+02  0.41800000000E+01 0.  1.
</event>
<event>
11    1  0.8864208E-009  0.1572622E+03  0.7561462E-02  0.1089681E+00
         22   -1    0    0    0    0  0.00000000000E+00  0.00000000000E+00  0.11493605731E+04  0.11493605731E+04  0.00000000000E+00 0.  1.
         22   -1    0    0    0    0 -0.00000000000E+00 -0.00000000000E+00 -0.39124654983E+03  0.39124654983E+03  0.00000000000E+00 0.  1.
         24    2    1    2    0    0 -0.24097149401E+02 -0.90318174061E+02 -0.30148485089E+03  0.33081430991E+03  0.99030031562E+02 0.  0.
         25    2    1    2    0    0  0.54464394812E+02  0.95747630737E+02  0.21154577028E+02  0.16801666260E+03  0.12509238061E+03 0.  0.
        -24    2    1    2    0    0 -0.30367245411E+02 -0.54294566765E+01  0.10384442971E+04  0.10417761504E+04  0.77326197000E+02 0.  0.
        -11    1    3    3    0    0 -0.36823145416E+02 -0.34300296635E+02 -0.24548512732E+03  0.25059010779E+03  0.00000000000E+00 0.  1.
         12    1    3    3    0    0  0.12725996015E+02 -0.56017877426E+02 -0.55999723571E+02  0.80224202121E+02  0.00000000000E+00 0. -1.
         13    1    5    5    0    0  0.14313768954E+02 -0.29270939428E+02  0.39408003732E+03  0.39542476869E+03  0.00000000000E+00 0. -1.
        -14    1    5    5    0    0 -0.44681014366E+02  0.23841482752E+02  0.64436425977E+03  0.64635138169E+03  0.00000000000E+00 0.  1.
          5    1    4    4  501    0  0.68365923357E+01 -0.28489243060E+02  0.18440867432E+02  0.34869957794E+02  0.41800000000E+01 0.  1.
         -5    1    4    4    0  501  0.47627802476E+02  0.12423687380E+03  0.27137095957E+01  0.13314670480E+03  0.41800000000E+01 0.  1.
</event>
<event>
11    1  0.8864208E-009  0.1662728E+03  0.7561462E-02  0.1081322E+00
         22   -1    0    0    0    0  0.00000000000E+00  0.00000000000E+00  0.79756140216E+02  0.79756140216E+02  0.00000000000E+00 0.  1.
         22   -1    0    0    0    0 -0.00000000000E+00 -0.00000000000E+00 -0.13855989796E+04  0.13855989796E+04  0.00000000000E+00 0. -1.
         24    2    1    2    0    0  0.88440898721E+02 -0.66542889885E+02 -0.98306949792E+03  0.99259939606E+03  0.81105946404E+02 0.  0.
         25    2    1    2    0    0 -0.13878535841E+03 -0.25603625633E+02 -0.26258437570E+03  0.32329098925E+03  0.12509831340E+03 0.  0.
        -24    2    1    2    0    0  0.50344459688E+02  0.92146515518E+02 -0.60188965766E+02  0.14946473452E+03  0.87700914022E+02 0.  0.
        -11    1    3    3    0    0 -0.73215488959E+01 -0.69392240391E+01 -0.15604431874E+02  0.18581071084E+02  0.00000000000E+00 0.  1.
         12    1    3    3    0    0  0.95762447617E+02 -0.59603665846E+02 -0.96746506605E+03  0.97401832497E+03  0.00000000000E+00 0. -1.
         13    1    5    5    0    0 -0.20095325453E+02  0.51136225488E+02 -0.18960824951E+02  0.58122702492E+02  0.00000000000E+00 0. -1.
        -14    1    5    5    0    0  0.70439785140E+02  0.41010290031E+02 -0.41228140815E+02  0.91342032023E+02  0.00000000000E+00 0.  1.
          5    1    4    4  501    0 -0.53577903236E+02 -0.19313645178E+02 -0.22084638211E+03  0.22811007320E+03  0.41800000000E+01 0. -1.
         -5    1    4    4    0  501 -0.85207455173E+02 -0.62899804552E+01 -0.41737993593E+02  0.95180916051E+02  0.41800000000E+01 0. -1.
</event>
<event>
11    1  0.8864208E-009  0.1366378E+03  0.7561462E-02  0.1111372E+00
         22   -1    0    0    0    0  0.00000000000E+00  0.00000000000E+00  0.19696083646E+04  0.19696083646E+04  0.00000000000E+00 0. -1.
         22   -1    0    0    0    0 -0.00000000000E+00 -0.00000000000E+00 -0.20173790336E+03  0.20173790336E+03  0.00000000000E+00 0.  1.
         24    2    1    2    0    0  0.25198139083E+02  0.20408652270E+02 -0.15054990867E+03  0.17377283935E+03  0.80500095626E+02 0.  0.
         25    2    1    2    0    0  0.30604015782E+02 -0.20196096998E+02  0.72561142327E+02  0.14918038934E+03  0.12508069824E+03 0.  0.
        -24    2    1    2    0    0 -0.55802154865E+02 -0.21255527222E+00  0.18458592276E+04  0.18483930392E+04  0.79035522914E+02 0.  0.
        -11    1    3    3    0    0  0.80400729802E+01 -0.17263490242E+02 -0.12202230737E+03  0.12349945087E+03  0.00000000000E+00 0.  1.
         12    1    3    3    0    0  0.17158066103E+02  0.37672142512E+02 -0.28527601299E+02  0.50273388485E+02  0.00000000000E+00 0. -1.
         11    1    5    5    0    0 -0.66735525603E+02  0.23053509478E+02  0.14270752966E+04  0.14288208414E+04  0.00000000000E+00 0. -1.
        -12    1    5    5    0    0  0.10933370737E+02 -0.23266064750E+02  0.41878393094E+03  0.41957219781E+03  0.00000000000E+00 0.  1.
          5    1    4    4  501    0  0.70145734830E+02  0.10163122822E+02  0.69033206645E+02  0.99029133087E+02  0.41800000000E+01 0. -1.
         -5    1    4    4    0  501 -0.39541719048E+02 -0.30359219820E+02  0.35279356826E+01  0.50151256250E+02  0.41800000000E+01 0. -1.
</event>
<event>
11    1  0.8864208E-009  0.1684693E+03  0.7561462E-02  0.1079371E+00
         22   -1    0    0    0    0  0.00000000000E+00  0.00000000000E+00  0.50148040415E+03  0.50148040415E+03  0.00000000000E+00 0.  1.
         22   -1    0    0    0    0 -0.00000000000E+00 -0.00000000000E+00 -0.54843873517E+03  0.54843873517E+03  0.00000000000E+00 0. -1.
        -24    2    1    2    0    0  0.27695846698E+01 -0.70979332085E+01 -0.48051379530E+03  0.48645591933E+03  0.75417522693E+02 0.  0.
         25    2    1    2    0    0  0.72353729253E+02  0.90356853887E+02  0.88873846218E+02  0.19221150156E+03  0.12508907870E+03 0.  0.
         24    2    1    2    0    0 -0.75123313923E+02 -0.83258920678E+02  0.34468161806E+03  0.37125171843E+03  0.80292343603E+02 0.  0.
        -13    1    5    5    0    0 -0.25331655497E+02 -0.25514013063E+02  0.23462154914E+03  0.23736033568E+03  0.00000000000E+00 0.  1.
         14    1    5    5    0    0 -0.49791658426E+02 -0.57744907615E+02  0.11006006892E+03  0.13389138275E+03  0.00000000000E+00 0. -1.
         11    1    3    3    0    0  0.10472175872E+02 -0.30861061952E+02 -0.41600138122E+03  0.41727595280E+03  0.00000000000E+00 0. -1.
        -12    1    3    3    0    0 -0.77025912024E+01  0.23763128744E+02 -0.64512414078E+02  0.69179966530E+02  0.00000000000E+00 0.  1.
          5    1    4    4  501    0  0.11302376323E+01  0.85254713855E+02  0.10344111524E+02  0.85989049970E+02  0.41800000000E+01 0.  1.
         -5    1    4    4    0  501  0.71223491621E+02  0.51021400318E+01  0.78529734694E+02  0.10622245159E+03  0.41800000000E+01 0.  1.
</event>
<event>
11    1  0.8864208E-009  0.1337403E+03  0.7561462E-02  0.1114757E+00
         22   -1    0    0    0    0  0.00000000000E+00  0.00000000000E+00  0.79879792929E+03  0.79879792929E+03  0.00000000000E+00 0. -1.
         22   -1    0    0    0    0 -0.00000000000E+00 -0.00000000000E+00 -0.15926896986E+04  0.15926896986E+04  0.00000000000E+00 0.  1.
        -24    2    1    2    0    0  0.26399317459E+02  0.39519652264E+02 -0.15633892786E+04  0.15660190982E+04  0.77272587579E+02 0.  0.
         25    2    1    2    0    0 -0.20288894262E+02 -0.10092654191E+02  0.13383749375E+03  0.18459509287E+03  0.12509745272E+03 0.  0.
         24    2    1    2    0    0 -0.61104231970E+01 -0.29426998073E+02  0.63566001549E+03  0.64087343682E+03  0.75840762370E+02 0.  0.
        -11    1    5    5    0    0 -0.32105191481E+02 -0.23280005671E+01  0.46586104375E+03  0.46697181392E+03  0.00000000000E+00 0.  1.
         12    1    5    5    0    0  0.25994768284E+02 -0.27098997506E+02  0.16979897173E+03  0.17390162290E+03  0.00000000000E+00 0. -1.
         13    1    3    3    0    0  0.38416985521E+02  0.91163239438E+01 -0.35522959249E+03  0.35741717295E+03  0.00000000000E+00 0. -1.
        -14    1    3    3    0    0 -0.12017668061E+02  0.30403328320E+02 -0.12081596861E+04  0.12086019253E+04  0.00000000000E+00 0.  1.
          5    1    4    4  501    0 -0.22653564423E+02  0.34145643537E+02  0.13390496547E+03  0.14009682770E+03  0.41800000000E+01 0.  1.
         -5    1    4    4    0  501  0.23646701610E+01 -0.44238297728E+02 -0.67471714528E-01  0.44498265172E+02  0.41800000000E+01 0.  1.
</event>
<event>
11    1  0.8864208E-009  0.1284920E+04  0.7561462E-02  0.8447049E-01
         22   -1    0    0    0    0  0.00000000000E+00  0.00000000000E+00  0.94658668443E+03  0.94658668443E+03  0.00000000000E+00 0.  1.
         22   -1    0    0    0    0 -0.00000000000E+00 -0.00000000000E+00 -0.43604561735E+03  0.43604561735E+03  0.00000000000E+00 0.  1.
        -24    2    1    2    0    0 -0.16949755800E+03  0.82486045731E+01 -0.13671571435E+02  0.18834247526E+03  0.80551315786E+02 0.  0.
         25    2    1    2    0    0  0.53859401052E+03 -0.26891728227E+03  0.29851130582E+03  0.68349079627E+03  0.12510258199E+03 0.  0.
         24    2    1    2    0    0 -0.36909645252E+03  0.26066867770E+03  0.22570133270E+03  0.51079903025E+03  0.76119688172E+02 0.  0.
        -13    1    5    5    0    0 -0.20203176299E+03  0.18471808194E+03  0.15125700504E+03  0.31275595059E+03  0.00000000000E+00 0.  1.
         14    1    5    5    0    0 -0.16706468952E+03  0.75950595762E+02  0.74444327661E+02  0.19804307967E+03  0.00000000000E+00 0. -1.
         11    1    3    3    0    0 -0.98759901311E+02  0.41670614305E+02  0.70069419768E+01  0.10741999553E+03  0.00000000000E+00 0. -1.
        -12    1    3    3    0    0 -0.70737656688E+02 -0.33422009732E+02 -0.20678513412E+02  0.80922479727E+02  0.00000000000E+00 0.  1.
          5    1    4    4  501    0  0.72072340537E+02 -0.78186606509E+02  0.22241528724E+02  0.10871856193E+03  0.41800000000E+01 0. -1.
         -5    1    4    4    0  501  0.46652166998E+03 -0.19073067576E+03  0.27626977709E+03  0.57477223434E+03  0.41800000000E+01 0. -1.
</event>
<event>
11    1  0.8864208E-009  0.1354059E+03  0.7561462E-02  0.1112800E+00
         22   -1    0    0    0    0  0.00000000000E+00  0.00000000000E+00  0.20656851483E+03  0.20656851483E+03  0.00000000000E+00 0. -1.
         22   -1    0    0    0    0 -0.00000000000E+00 -0.00000000000E+00 -0.52464046157E+03  0.52464046157E+03  0.00000000000E+00 0. -1.
        -24    2    1    2    0    0  0.21504595072E+02  0.32980061185E+02 -0.35778967076E+03  0.36874849050E+03  0.80074145004E+02 0.  0.
         25    2    1    2    0    0  0.28721013655E+02 -0.48754228719E+02 -0.11595945109E+03  0.17970759205E+03  0.12508538244E+03 0.  0.
         24    2    1    2    0    0 -0.50225608727E+02  0.15774167533E+02  0.15567717511E+03  0.18275289385E+03  0.79948741246E+02 0.  0.
        -11    1    5    5    0    0  0.20046797097E+02  0.68995700434E+01  0.60534101470E+02  0.64139345034E+02  0.00000000000E+00 0.  1.
         12    1    5    5    0    0 -0.70272405824E+02  0.88745974899E+01  0.95143073639E+02  0.11861354881E+03  0.00000000000E+00 0. -1.
         11    1    3    3    0    0 -0.27266376287E+02  0.29627448214E+02 -0.16936229300E+03  0.17408281723E+03  0.00000000000E+00 0. -1.
        -12    1    3    3    0    0  0.48770971359E+02  0.33526129717E+01 -0.18842737776E+03  0.19466567327E+03  0.00000000000E+00 0.  1.
          5    1    4    4  501    0  0.60728446335E+02 -0.62803724044E+02 -0.40385652613E+02  0.96336521035E+02  0.41800000000E+01 0.  1.
         -5    1    4    4    0  501 -0.32007432680E+02  0.14049495325E+02 -0.75573798482E+02  0.83371071017E+02  0.41800000000E+01 0.  1.
</event>
<event>
11    1  0.8864208E-009  0.5776594E+03  0.7561462E-02  0.9234986E-01
         22   -1    0    0    0    0  0.00000000000E+00  0.00000000000E+00  0.92531464953E+03  0.92531464953E+03  0.00000000000E+00 0.  1.
         22   -1    0    0    0    0 -0.00000000000E+00 -0.00000000000E+00 -0.90155926290E+02  0.90155926290E+02  0.00000000000E+00 0.  1.
         24    2    1    2    0    0 -0.17631626874E+02 -0.17834879705E+03  0.25855546279E+03  0.32513405042E+03  0.82110022080E+02 0.  0.
         25    2    1    2    0    0  0.11839136242E+02  0.24434298243E+03  0.40170319307E+03  0.48667886724E+03  0.12508879360E+03 0.  0.
        -24    2    1    2    0    0  0.57924906323E+01 -0.65994185387E+02  0.17490006737E+03  0.20365765816E+03  0.80607832793E+02 0.  0.
        -13    1    3    3    0    0 -0.44634456204E+02 -0.14993429703E+03  0.22165277274E+03  0.27129776956E+03  0.00000000000E+00 0.  1.
         14    1    3    3    0    0  0.27002829330E+02 -0.28414500015E+02  0.36902690055E+02  0.53836280854E+02  0.00000000000E+00 0. -1.
         13    1    5    5    0    0 -0.29437153280E+02 -0.11504279663E+02  0.24936187512E+02  0.40258016487E+02  0.00000000000E+00 0. -1.
        -14    1    5    5    0    0  0.35229643913E+02 -0.54489905724E+02  0.14996387986E+03  0.16339964167E+03  0.00000000000E+00 0.  1.
          5    1    4    4  501    0  0.78307627043E+01  0.26170209988E+02 -0.20526954511E+01  0.27710768556E+02  0.41800000000E+01 0.  1.
         -5    1    4    4    0  501  0.40083735374E+01  0.21817277244E+03  0.40375588852E+03  0.45896809868E+03  0.41800000000E+01 0.  1.
</event>
<event>
11    1  0.8864208E-009  0.1664759E+03  0.7561462E-02  0.1081140E+00
         22   -1    0    0    0    0  0.00000000000E+00  0.00000000000E+00  0.63606703220E+03  0.63606703220E+03  0.00000000000E+00 0. -1.
         22   -1    0    0    0    0 -0.00000000000E+00 -0.00000000000E+00 -0.50130161767E+03  0.50130161767E+03  0.00000000000E+00 0.  1.
        -24    2    1    2    0    0  0.10623707768E+02  0.10516216590E+03 -0.36179370218E+03  0.38548805345E+03  0.80835710599E+02 0.  0.
         25    2    1    2    0    0 -0.25395530722E+02 -0.13145756526E+03 -0.57050486738E+02  0.19190976836E+03  0.12509427129E+03 0.  0.
         24    2    1    2    0    0  0.14771822954E+02  0.26295399361E+02  0.55360960345E+03  0.55997082807E+03  0.78575317195E+02 0.  0.
        -11    1    5    5    0    0  0.89031691956E+01 -0.17718162723E+02  0.42084069835E+02  0.46521700806E+02  0.00000000000E+00 0.  1.
         12    1    5    5    0    0  0.58686537584E+01  0.44013562084E+02  0.51152553362E+03  0.51344912726E+03  0.00000000000E+00 0. -1.
         13    1    3    3    0    0  0.46057055992E+02  0.61401987600E+02 -0.20754345100E+03  0.22128203845E+03  0.00000000000E+00 0. -1.
        -14    1    3    3    0    0 -0.35433348224E+02  0.43760178297E+02 -0.15425025118E+03  0.16420601499E+03  0.00000000000E+00 0.  1.
          5    1    4    4  501    0 -0.10274461421E+02  0.22106745665E+02  0.55283338251E+01  0.25343788909E+02  0.41800000000E+01 0. -1.
         -5    1    4    4    0  501 -0.15121069301E+02 -0.15356431092E+03 -0.62578820563E+02  0.16656597945E+03  0.41800000000E+01 0. -1.
</event>
<event>
11    1  0.8864208E-009  0.1395307E+03  0.7561462E-02  0.1108084E+00
         22   -1    0    0    0    0  0.00000000000E+00  0.00000000000E+00  0.45177808880E+03  0.45177808880E+03  0.00000000000E+00 0. -1.
         22   -1    0    0    0    0 -0.00000000000E+00 -0.00000000000E+00 -0.87692174823E+03  0.87692174823E+03  0.00000000000E+00 0.  1.
         24    2    1    2    0    0  0.32610558053E+02  0.54573699233E+02 -0.74901061270E+03  0.75612309018E+03  0.81630217631E+02 0.  0.
         25    2    1    2    0    0 -0.24653693917E+00 -0.49584846507E+02 -0.82078570677E+02  0.15761740172E+03  0.12509051034E+03 0.  0.
        -24    2    1    2    0    0 -0.32364021114E+02 -0.49888527258E+01  0.40594552395E+03  0.41495934513E+03  0.79543517555E+02 0.  0.
        -13    1    3    3    0    0 -0.12504812587E+02  0.54170314420E+02 -0.32521985472E+03  0.32993748985E+03  0.00000000000E+00 0.  1.
         14    1    3    3    0    0  0.45115370640E+02  0.40338481301E+00 -0.42379075797E+03  0.42618560033E+03  0.00000000000E+00 0. -1.
         13    1    5    5    0    0 -0.14310390273E+02  0.30433713912E+02  0.29859734507E+03  0.30048522875E+03  0.00000000000E+00 0. -1.
        -14    1    5    5    0    0 -0.18053630841E+02 -0.35422566638E+02  0.10734817888E+03  0.11447411638E+03  0.00000000000E+00 0.  1.
          5    1    4    4  501    0  0.44383675559E+02 -0.63594647664E+02 -0.20779133446E+02  0.80395489018E+02  0.41800000000E+01 0. -1.
         -5    1    4    4    0  501 -0.44630212498E+02  0.14009801157E+02 -0.61299437231E+02  0.77221912699E+02  0.41800000000E+01 0. -1.
</event>
<event>
11    1  0.8864208E-009  0.1460484E+03  0.7561462E-02  0.1100986E+00
         22   -1    0    0    0    0  0.00000000000E+00  0.00000000000E+00  0.41373670315E+03  0.41373670315E+03  0.00000000000E+00 0.  1.
         22   -1    0    0    0    0 -0.00000000000E+00 -0.00000000000E+00 -0.37789321259E+03  0.37789321259E+03  0.00000000000E+00 0.  1.
         24    2    1    2    0    0  0.28253182120E+02 -0.71107455983E+02 -0.32518817660E+03  0.34390057662E+03  0.81644006528E+02 0.  0.
         25    2    1    2    0    0 -0.53876042217E+02  0.40771932193E+02  0.10618385333E+03  0.17744570908E+03  0.12508793141E+03 0.  0.
        -24    2    1    2    0    0  0.25622860096E+02  0.30335523790E+02  0.25484781384E+03  0.27028363004E+03  0.80802583405E+02 0.  0.
        -13    1    3    3    0    0 -0.33656545324E+01 -0.64156938577E+02 -0.28571874524E+03  0.29285259394E+03  0.00000000000E+00 0.  1.
         14    1    3    3    0    0  0.31618836653E+02 -0.69505174061E+01 -0.39469431369E+02  0.51047982684E+02  0.00000000000E+00 0. -1.
         13    1    5    5    0    0  0.18365752646E+02  0.17771546125E+02  0.14273535857E+02  0.29272214604E+02  0.00000000000E+00 0. -1.
        -14    1    5    5    0    0  0.72571074500E+01  0.12563977665E+02  0.24057427798E+03  0.24101141543E+03  0.00000000000E+00 0.  1.
          5    1    4    4  501    0  0.22562611153E+02  0.16301207399E+01 -0.16015169788E+02  0.28030104870E+02  0.41800000000E+01 0.  1.
         -5    1    4    4    0  501 -0.76438653369E+02  0.39141811453E+02  0.12219902312E+03  0.14941560422E+03  0.41800000000E+01 0.  1.
</event>
<event>
11    1  0.8864208E-009  0.1321084E+03  0.7561462E-02  0.1116705E+00
         22   -1    0    0    0    0  0.00000000000E+00  0.00000000000E+00  0.14322633202E+03  0.14322633202E+03  0.00000000000E+00 0.  1.
         22   -1    0    0    0    0 -0.00000000000E+00 -0.00000000000E+00 -0.33587620664E+03  0.33587620664E+03  0.00000000000E+00 0.  1.
        -24    2    1    2    0    0  0.45259369512E+02  0.75664006574E+01 -0.15512101039E+03  0.18026932389E+03  0.79554008858E+02 0.  0.
         25    2    1    2    0    0 -0.36153320726E+02  0.17969756988E+02 -0.12212202005E+03  0.17942030585E+03  0.12509150093E+03 0.  0.
         24    2    1    2    0    0 -0.91060487864E+01 -0.25536157645E+02  0.84593155826E+02  0.11941290891E+03  0.79802414319E+02 0.  0.
        -13    1    5    5    0    0  0.13474706472E+02 -0.43807761767E+02  0.76635264899E+02  0.89295305205E+02  0.00000000000E+00 0.  1.
         14    1    5    5    0    0 -0.22580755258E+02  0.18271604122E+02  0.79578909270E+01  0.30117603710E+02  0.00000000000E+00 0. -1.
         13    1    3    3    0    0 -0.13893348618E+02 -0.92068673181E+01 -0.40304856985E+01  0.17147488347E+02  0.00000000000E+00 0. -1.
        -14    1    3    3    0    0  0.59152718131E+02  0.16773267975E+02 -0.15109052469E+03  0.16312183554E+03  0.00000000000E+00 0.  1.
          5    1    4    4  501    0 -0.50297758686E+02  0.48019874589E+02 -0.12771684730E+03  0.14548140214E+03  0.41800000000E+01 0. -1.
         -5    1    4    4    0  501  0.14144437961E+02 -0.30050117602E+02  0.55948272470E+01  0.33938903710E+02  0.41800000000E+01 0. -1.
</event>
<event>
11    1  0.8864208E-009  0.1348366E+03  0.7561462E-02  0.1113465E+00
         22   -1    0    0    0    0  0.00000000000E+00  0.00000000000E+00  0.15011061202E+03  0.15011061202E+03  0.00000000000E+00 0.  1.
         22   -1    0    0    0    0 -0.00000000000E+00 -0.00000000000E+00 -0.13573325927E+04  0.13573325927E+04  0.00000000000E+00 0.  1.
         24    2    1    2    0    0 -0.28852463125E+02 -0.22320417038E+02 -0.74925823564E+03  0.75455593856E+03  0.81462231059E+02 0.  0.
         25    2    1    2    0    0  0.49922575064E+02  0.67080975030E+02 -0.57987851708E+03  0.59908187133E+03  0.12509145963E+03 0.  0.
        -24    2    1    2    0    0 -0.21070111939E+02 -0.44760557992E+02  0.12191477201E+03  0.15380539487E+03  0.79658211678E+02 0.  0.
        -11    1    3    3    0    0  0.12175466423E+01 -0.10256056754E+02 -0.65123419718E+03  0.65131608970E+03  0.00000000000E+00 0.  1.
         12    1    3    3    0    0 -0.30070009767E+02 -0.12064360284E+02 -0.98024038460E+02  0.10323984886E+03  0.00000000000E+00 0. -1.
         11    1    5    5    0    0  0.18201747771E+02 -0.26473915735E+02  0.97636149430E+01  0.33578266975E+02  0.00000000000E+00 0. -1.
        -12    1    5    5    0    0 -0.39271859711E+02 -0.18286642257E+02  0.11215115707E+03  0.12022712789E+03  0.00000000000E+00 0.  1.
          5    1    4    4  501    0 -0.48985497718E+01 -0.26232481168E+02 -0.25928074478E+03  0.26068393865E+03  0.41800000000E+01 0.  1.
         -5    1    4    4    0  501  0.54821124836E+02  0.93313456197E+02 -0.32059777230E+03  0.33839793268E+03  0.41800000000E+01 0.  1.
</event>
<event>
11    1  0.8864208E-009  0.1586020E+03  0.7561462E-02  0.1088400E+00
         22   -1    0    0    0    0  0.00000000000E+00  0.00000000000E+00  0.19532420295E+04  0.19532420295E+04  0.00000000000E+00 0.  1.
         22   -1    0    0    0    0 -0.00000000000E+00 -0.00000000000E+00 -0.31328793026E+02  0.31328793026E+02  0.00000000000E+00 0.  1.
         24    2    1    2    0    0  0.62189102728E+02 -0.41030646310E+02  0.16143964929E+03  0.19694283925E+03  0.84691930744E+02 0.  0.
         25    2    1    2    0    0  0.21902092664E+02  0.10094046604E+03  0.67836604835E+03  0.69749316676E+03  0.12509013861E+03 0.  0.
        -24    2    1    2    0    0 -0.84091195392E+02 -0.59909819733E+02  0.10821075389E+04  0.10901348165E+04  0.82320574219E+02 0.  0.
        -11    1    3    3    0    0  0.55139375087E+02 -0.64992032352E+02  0.10510544294E+03  0.13531987692E+03  0.00000000000E+00 0.  1.
         12    1    3    3    0    0  0.70497276405E+01  0.23961386041E+02  0.56334206350E+02  0.61622962327E+02  0.00000000000E+00 0. -1.
         11    1    5    5    0    0 -0.52585626678E+02  0.11451056598E+02  0.47343361278E+03  0.47648269700E+03  0.00000000000E+00 0. -1.
        -12    1    5    5    0    0 -0.31505568714E+02 -0.71360876332E+02  0.60867392608E+03  0.61365211954E+03  0.00000000000E+00 0.  1.
          5    1    4    4  501    0 -0.26812150542E+02  0.15774993002E+02  0.36420740289E+02  0.48079980700E+02  0.41800000000E+01 0. -1.
         -5    1    4    4    0  501  0.48714243206E+02  0.85165473041E+02  0.64194530806E+03  0.64941318607E+03  0.41800000000E+01 0. -1.
</event>
<event>
11    1  0.8864208E-009  0.3336811E+03  0.7561462E-02  0.9868651E-01
         22   -1    0    0    0    0  0.00000000000E+00  0.00000000000E+00  0.25629815687E+04  0.25629815687E+04  0.00000000000E+00 0. -1.
         22   -1    0    0    0    0 -0.00000000000E+00 -0.00000000000E+00 -0.10679327996E+03  0.10679327996E+03  0.00000000000E+00 0. -1.
         24    2    1    2    0    0 -0.21191315507E+03 -0.24027698641E+03  0.22204336034E+03  0.39738123521E+03  0.77255269989E+02 0.  0.
         25    2    1    2    0    0  0.15867570693E+03  0.18335134695E+03  0.18683577281E+04  0.18881746680E+04  0.12508908824E+03 0.  0.
        -24    2    1    2    0    0  0.53237448142E+02  0.56925639454E+02  0.36578720027E+03  0.38421894550E+03  0.88029358104E+02 0.  0.
        -11    1    3    3    0    0 -0.14722813905E+03 -0.18597893623E+03  0.12291854517E+03  0.26715774066E+03  0.00000000000E+00 0.  1.
         12    1    3    3    0    0 -0.64685016025E+02 -0.54298050173E+02  0.99124815169E+02  0.13022349455E+03  0.00000000000E+00 0. -1.
         11    1    5    5    0    0  0.50576937873E+02 -0.59195079852E+01  0.11696283072E+03  0.12756712347E+03  0.00000000000E+00 0. -1.
        -12    1    5    5    0    0  0.26605102690E+01  0.62845147440E+02  0.24882436955E+03  0.25665182203E+03  0.00000000000E+00 0.  1.
          5    1    4    4  501    0  0.16115772298E+03  0.19545347771E+03  0.16410237561E+04  0.16604668964E+04  0.41800000000E+01 0. -1.
         -5    1    4    4    0  501 -0.24820160464E+01 -0.12102130756E+02  0.22733397207E+03  0.22770777156E+03  0.41800000000E+01 0. -1.
</event>
<event>
11    1  0.8864208E-009  0.1412355E+03  0.7561462E-02  0.1106187E+00
         22   -1    0    0    0    0  0.00000000000E+00  0.00000000000E+00  0.11092221398E+04  0.11092221398E+04  0.00000000000E+00 0. -1.
         22   -1    0    0    0    0 -0.00000000000E+00 -0.00000000000E+00 -0.11215143872E+03  0.11215143872E+03  0.00000000000E+00 0. -1.
        -24    2    1    2    0    0  0.56568539860E+02 -0.38978754118E+02 -0.56895009787E+02  0.12275202410E+03  0.84330743546E+02 0.  0.
         25    2    1    2    0    0 -0.16825109282E+02  0.50669964369E+02  0.21184488466E+03  0.25174650371E+03  0.12509003711E+03 0.  0.
         24    2    1    2    0    0 -0.39743430579E+02 -0.11691210251E+02  0.84212082623E+03  0.84687505073E+03  0.79458422519E+02 0.  0.
        -11    1    5    5    0    0 -0.53244148077E+02  0.86333128378E+01  0.34831362834E+03  0.35246539842E+03  0.00000000000E+00 0.  1.
         12    1    5    5    0    0  0.13500717499E+02 -0.20324523089E+02  0.49380719789E+03  0.49440965231E+03  0.00000000000E+00 0. -1.
         13    1    3    3    0    0  0.17088410502E+01 -0.45636224239E+02 -0.48909608027E+02  0.66915878966E+02  0.00000000000E+00 0. -1.
        -14    1    3    3    0    0  0.54859698810E+02  0.66574701208E+01 -0.79854017604E+01  0.55836145132E+02  0.00000000000E+00 0.  1.
          5    1    4    4  501    0  0.12903622934E+02  0.87322092290E+02  0.13035980076E+03  0.15748905150E+03  0.41800000000E+01 0.  1.
         -5    1    4    4    0  501 -0.29728732216E+02 -0.36652127921E+02  0.81485083894E+02  0.94257452212E+02  0.41800000000E+01 0.  1.
</event>
<event>
11    1  0.8864208E-009  0.1393932E+03  0.7561462E-02  0.1108238E+00
         22   -1    0    0    0    0  0.00000000000E+00  0.00000000000E+00  0.31863365369E+03  0.31863365369E+03  0.00000000000E+00 0. -1.
         22   -1    0    0    0    0 -0.00000000000E+00 -0.00000000000E+00 -0.32100859306E+03  0.32100859306E+03  0.00000000000E+00 0.  1.
        -24    2    1    2    0    0 -0.53240165703E+02  0.30137531492E+02 -0.24008100122E+03  0.25947980550E+03  0.77123902054E+02 0.  0.
         25    2    1    2    0    0  0.70949209243E+02 -0.32002046723E+01  0.19472278818E+02  0.14516096802E+03  0.12509398623E+03 0.  0.
         24    2    1    2    0    0 -0.17709043540E+02 -0.26937326820E+02  0.21823378303E+03  0.23500147324E+03  0.80996781237E+02 0.  0.
        -11    1    5    5    0    0 -0.14558666431E+02  0.26616225923E+02  0.50650843488E+02  0.59041393926E+02  0.00000000000E+00 0.  1.
         12    1    5    5    0    0 -0.31503771092E+01 -0.53553552743E+02  0.16758293954E+03  0.17596007931E+03  0.00000000000E+00 0. -1.
         11    1    3    3    0    0  0.78607700279E+01 -0.15243117347E+02 -0.85193381919E+02  0.86902569897E+02  0.00000000000E+00 0. -1.
        -12    1    3    3    0    0 -0.61100935731E+02  0.45380648839E+02 -0.15488761930E+03  0.17257723560E+03  0.00000000000E+00 0.  1.
          5    1    4    4  501    0  0.43901718220E+02  0.53181555246E+02  0.39227949775E+02  0.79447738323E+02  0.41800000000E+01 0. -1.
         -5    1    4    4    0  501  0.27047491023E+02 -0.56381759919E+02 -0.19755670958E+02  0.65713229697E+02  0.41800000000E+01 0. -1.
</event>
<event>
11    1  0.8864208E-009  0.1432883E+03  0.7561462E-02  0.1103941E+00
         22   -1    0    0    0    0  0.00000000000E+00  0.00000000000E+00  0.20426951610E+03  0.20426951610E+03  0.00000000000E+00 0.  1.
         22   -1    0    0    0    0 -0.00000000000E+00 -0.00000000000E+00 -0.11226120543E+04  0.11226120543E+04  0.00000000000E+00 0.  1.
        -24    2    1    2    0    0 -0.46050055863E+02 -0.58484654321E+02 -0.95964437214E+03  0.96551284810E+03  0.75872764701E+02 0.  0.
         25    2    1    2    0    0 -0.14756597382E+02  0.92713844829E+01 -0.11342539216E+03  0.16975405906E+03  0.12508958887E+03 0.  0.
         24    2    1    2    0    0  0.60806653245E+02  0.49213269838E+02  0.15472722613E+03  0.19161466322E+03  0.81585964771E+02 0.  0.
        -11    1    5    5    0    0  0.11653272994E+02  0.58047580352E+02  0.10829917842E+03  0.12342622251E+03  0.00000000000E+00 0.  1.
         12    1    5    5    0    0  0.49153380251E+02 -0.88343105142E+01  0.46428047708E+02  0.68188440710E+02  0.00000000000E+00 0. -1.
         13    1    3    3    0    0 -0.54979981564E+02 -0.86938342561E+01 -0.51636246308E+03  0.51935399719E+03  0.00000000000E+00 0. -1.
        -14    1    3    3    0    0  0.89299257007E+01 -0.49790820065E+02 -0.44328190906E+03  0.44615885090E+03  0.00000000000E+00 0.  1.
          5    1    4    4  501    0  0.18524572578E+02  0.59717826667E+02 -0.39079109970E+02  0.73851390286E+02  0.41800000000E+01 0.  1.
         -5    1    4    4    0  501 -0.33281169960E+02 -0.50446442184E+02 -0.74346282187E+02  0.95902668774E+02  0.41800000000E+01 0.  1.
</event>
<event>
11    1  0.8864208E-009  0.1588708E+03  0.7561462E-02  0.1088144E+00
         22   -1    0    0    0    0  0.00000000000E+00  0.00000000000E+00  0.64068692838E+03  0.64068692838E+03  0.00000000000E+00 0.  1.
         22   -1    0    0    0    0 -0.00000000000E+00 -0.00000000000E+00 -0.12851532333E+04  0.12851532333E+04  0.00000000000E+00 0. -1.
         24    2    1    2    0    0  0.10258673970E+02 -0.64207113741E+02 -0.12055019624E+04  0.12099897616E+04  0.81316960771E+02 0.  0.
         25    2    1    2    0    0 -0.50723352473E+02 -0.30635935216E+02 -0.16767046086E+01  0.13842638253E+03  0.12509049935E+03 0.  0.
        -24    2    1    2    0    0  0.40464678503E+02  0.94843048957E+02  0.56271236209E+03  0.57742401750E+03  0.78362614770E+02 0.  0.
        -13    1    3    3    0    0 -0.10092400522E+02  0.10595884502E+02 -0.50488554298E+03  0.50509755575E+03  0.00000000000E+00 0.  1.
         14    1    3    3    0    0  0.20351074492E+02 -0.74802998243E+02 -0.70061641938E+03  0.70489220586E+03  0.00000000000E+00 0. -1.
         13    1    5    5    0    0  0.32181611723E+02  0.15455547678E+02  0.31859308616E+03  0.32058709368E+03  0.00000000000E+00 0. -1.
        -14    1    5    5    0    0  0.82830667795E+01  0.79387501279E+02  0.24411927594E+03  0.25683692382E+03  0.00000000000E+00 0.  1.
          5    1    4    4  501    0 -0.28781214753E+02 -0.53012821490E+02  0.49585508255E+02  0.78197906583E+02  0.41800000000E+01 0. -1.
         -5    1    4    4    0  501 -0.21942137719E+02  0.22376886274E+02 -0.51262212863E+02  0.60228475945E+02  0.41800000000E+01 0. -1.
</event>
<event>
11    1  0.8864208E-009  0.1300495E+03  0.7561462E-02  0.1119208E+00
         22   -1    0    0    0    0  0.00000000000E+00  0.00000000000E+00  0.32139046609E+03  0.32139046609E+03  0.00000000000E+00 0.  1.
         22   -1    0    0    0    0 -0.00000000000E+00 -0.00000000000E+00 -0.47842495559E+03  0.47842495559E+03  0.00000000000E+00 0. -1.
        -24    2    1    2    0    0 -0.10799232748E+02 -0.40201808182E+02 -0.31503741088E+03  0.32865560881E+03  0.83863759362E+02 0.  0.
         25    2    1    2    0    0 -0.15977361714E+02  0.15172528061E+02 -0.12276500711E+03  0.17664880250E+03  0.12509224899E+03 0.  0.
         24    2    1    2    0    0  0.26776594462E+02  0.25029280121E+02  0.28076792850E+03  0.29451101037E+03  0.81010213450E+02 0.  0.
        -13    1    5    5    0    0  0.55730688817E+02  0.15609480500E+02  0.16724832612E+03  0.17697900482E+03  0.00000000000E+00 0.  1.
         14    1    5    5    0    0 -0.28954094355E+02  0.94197996210E+01  0.11351960238E+03  0.11753200556E+03  0.00000000000E+00 0. -1.
         13    1    3    3    0    0  0.28104691699E+02  0.95457081915E+00 -0.18060088188E+03  0.18277708674E+03  0.00000000000E+00 0. -1.
        -14    1    3    3    0    0 -0.38903924447E+02 -0.41156379001E+02 -0.13443652900E+03  0.14587852207E+03  0.00000000000E+00 0.  1.
          5    1    4    4  501    0 -0.18691029157E+02 -0.48910830077E+01  0.22482864374E+02  0.29937081595E+02  0.41800000000E+01 0.  1.
         -5    1    4    4    0  501  0.27136674425E+01  0.20063611069E+02 -0.14524787148E+03  0.14671172091E+03  0.41800000000E+01 0.  1.
</event>
<event>
11    1  0.8864208E-009  0.1774672E+03  0.7561462E-02  0.1071710E+00
         22   -1    0    0    0    0  0.00000000000E+00  0.00000000000E+00  0.23235301635E+03  0.23235301635E+03  0.00000000000E+00 0. -1.
         22   -1    0    0    0    0 -0.00000000000E+00 -0.00000000000E+00 -0.65728694498E+03  0.65728694498E+03  0.00000000000E+00 0.  1.
        -24    2    1    2    0    0  0.23149906157E+02  0.17495224136E+02 -0.25960288060E+03  0.27410811318E+03  0.83063837343E+02 0.  0.
         25    2    1    2    0    0 -0.13764220141E+03  0.32285909002E+02 -0.33774419326E+03  0.38691904849E+03  0.12508978565E+03 0.  0.
         24    2    1    2    0    0  0.11449229525E+03 -0.49781133137E+02  0.17241314523E+03  0.22861279965E+03  0.83371893512E+02 0.  0.
        -11    1    5    5    0    0 -0.88875720818E+01 -0.13659822553E+02  0.43936060135E+02  0.46861040000E+02  0.00000000000E+00 0.  1.
         12    1    5    5    0    0  0.12337986734E+03 -0.36121310584E+02  0.12847708510E+03  0.18175175965E+03  0.00000000000E+00 0. -1.
         11    1    3    3    0    0  0.18183866867E+02 -0.19579025665E+02 -0.25165818848E+02  0.36705717518E+02  0.00000000000E+00 0. -1.
        -12    1    3    3    0    0  0.49660392902E+01  0.37074249801E+02 -0.23443706175E+03  0.23740239566E+03  0.00000000000E+00 0.  1.
          5    1    4    4  501    0  0.34508160889E+01  0.44827761763E+02 -0.10694064204E+03  0.11608277080E+03  0.41800000000E+01 0. -1.
         -5    1    4    4    0  501 -0.14109301750E+03 -0.12541852761E+02 -0.23080355122E+03  0.27083627769E+03  0.41800000000E+01 0. -1.
</event>
<event>
11    1  0.8864208E-009  0.1270852E+03  0.7561462E-02  0.1122903E+00
         22   -1    0    0    0    0  0.00000000000E+00  0.00000000000E+00  0.19280538987E+04  0.19280538987E+04  0.00000000000E+00 0. -1.
         22   -1    0    0    0    0 -0.00000000000E+00 -0.00000000000E+00 -0.76540628724E+02  0.76540628724E+02  0.00000000000E+00 0. -1.
        -24    2    1    2    0    0  0.41805442327E+00  0.22258476706E+02 -0.36834360886E+02  0.94528922464E+02  0.84162536117E+02 0.  0.
         25    2    1    2    0    0  0.94657901090E+01 -0.24774846589E+02  0.39242656741E+03  0.41273432920E+03  0.12509045321E+03 0.  0.
         24    2    1    2    0    0 -0.98838445322E+01  0.25163698822E+01  0.14959210635E+04  0.14973312758E+04  0.64164622592E+02 0.  0.
        -11    1    5    5    0    0 -0.26590141650E+02 -0.10308594434E+02  0.33283771442E+03  0.33405725092E+03  0.00000000000E+00 0.  1.
         12    1    5    5    0    0  0.16706297118E+02  0.12824964316E+02  0.11630833491E+04  0.11632740249E+04  0.00000000000E+00 0. -1.
         11    1    3    3    0    0 -0.11536602241E+02 -0.14071450397E+01 -0.58899245720E+02  0.60034943115E+02  0.00000000000E+00 0. -1.
        -12    1    3    3    0    0  0.11954656665E+02  0.23665621746E+02  0.22064884834E+02  0.34493979349E+02  0.00000000000E+00 0.  1.
          5    1    4    4  501    0  0.67045814671E+02 -0.92831941790E+01  0.19483435361E+03  0.20629885289E+03  0.41800000000E+01 0. -1.
         -5    1    4    4    0  501 -0.57580024562E+02 -0.15491652410E+02  0.19759221380E+03  0.20643547631E+03  0.41800000000E+01 0. -1.
</event>
<event>
11    1  0.8864208E-009  0.1763651E+03  0.7561462E-02  0.1072622E+00
         22   -1    0    0    0    0  0.00000000000E+00  0.00000000000E+00  0.15063834650E+04  0.15063834650E+04  0.00000000000E+00 0. -1.
         22   -1    0    0    0    0 -0.00000000000E+00 -0.00000000000E+00 -0.14794897900E+03  0.14794897900E+03  0.00000000000E+00 0. -1.
        -24    2    1    2    0    0  0.82385614385E+02  0.69359651820E+02  0.18150788363E+03  0.22675223914E+03  0.82905460465E+02 0.  0.
         25    2    1    2    0    0 -0.20341042505E+03 -0.75608853424E+02  0.90688583179E+01  0.25064889803E+03  0.12510046427E+03 0.  0.
         24    2    1    2    0    0  0.12102481066E+03  0.62492016047E+01  0.11678577440E+04  0.11769313068E+04  0.81175940542E+02 0.  0.
        -13    1    5    5    0    0  0.47976005379E+02  0.21982985477E+02  0.78971106472E+03  0.79147237127E+03  0.00000000000E+00 0.  1.
         14    1    5    5    0    0  0.73048805281E+02 -0.15733783872E+02  0.37814667930E+03  0.38545893553E+03  0.00000000000E+00 0. -1.
         11    1    3    3    0    0  0.75192694931E+02  0.87893629770E+02  0.14869379742E+03  0.18838544773E+03  0.00000000000E+00 0. -1.
        -12    1    3    3    0    0  0.71929194536E+01 -0.18533977951E+02  0.32814086210E+02  0.38366791405E+02  0.00000000000E+00 0.  1.
          5    1    4    4  501    0 -0.21455655273E+03 -0.79481965158E+02 -0.85879968126E+01  0.22900463575E+03  0.41800000000E+01 0. -1.
         -5    1    4    4    0  501  0.11146127683E+02  0.38731117339E+01  0.17656855131E+02  0.21644262287E+02  0.41800000000E+01 0. -1.
</event>
<event>
11    1  0.8864208E-009  0.1582645E+03  0.7561462E-02  0.1088721E+00
         22   -1    0    0    0    0  0.00000000000E+00  0.00000000000E+00  0.11219560787E+03  0.11219560787E+03  0.00000000000E+00 0.  1.
         22   -1    0    0    0    0 -0.00000000000E+00 -0.00000000000E+00 -0.50870445853E+03  0.50870445853E+03  0.00000000000E+00 0.  1.
         24    2    1    2    0    0 -0.48345918527E+02  0.76000150286E+02 -0.25290378399E+03  0.28071230260E+03  0.82010500531E+02 0.  0.
         25    2    1    2    0    0  0.10452956220E+03 -0.66734988563E+02 -0.16099472592E+03  0.23863543001E+03  0.12509028183E+03 0.  0.
        -24    2    1    2    0    0 -0.56183643674E+02 -0.92651617226E+01  0.17389659236E+02  0.10155233379E+03  0.82268044903E+02 0.  0.
        -11    1    3    3    0    0 -0.39236371418E+02  0.71521604253E+02 -0.25709734132E+03  0.26972926358E+03  0.00000000000E+00 0.  1.
         12    1    3    3    0    0 -0.91095471092E+01  0.44785460330E+01  0.41935573348E+01  0.10983039025E+02  0.00000000000E+00 0. -1.
         13    1    5    5    0    0 -0.75167865055E+02 -0.70117189720E+01 -0.31666118590E+00  0.75494850250E+02  0.00000000000E+00 0. -1.
        -14    1    5    5    0    0  0.18984221382E+02 -0.22534427506E+01  0.17706320422E+02  0.26057483543E+02  0.00000000000E+00 0.  1.
          5    1    4    4  501    0  0.55004060302E+02 -0.77681270344E+02 -0.32890666298E+02  0.10079233474E+03  0.41800000000E+01 0. -1.
         -5    1    4    4    0  501  0.49525501898E+02  0.10946281781E+02 -0.12810405962E+03  0.13784309527E+03  0.41800000000E+01 0. -1.
</event>
<event>
11    1  0.8864208E-009  0.1799184E+03  0.7561462E-02  0.1069709E+00
         22   -1    0    0    0    0  0.00000000000E+00  0.00000000000E+00  0.17203200547E+04  0.17203200547E+04  0.00000000000E+00 0. -1.
         22   -1    0    0    0    0 -0.00000000000E+00 -0.00000000000E+00 -0.95752345408E+03  0.95752345408E+03  0.00000000000E+00 0. -1.
         24    2    1    2    0    0 -0.45245658996E+02 -0.11985711533E+03 -0.87083272098E+03  0.88409678858E+03  0.82852917326E+02 0.  0.
         25    2    1    2    0    0  0.14212046349E+03  0.11370635358E+03  0.79852249370E+02  0.23484279217E+03  0.12508954519E+03 0.  0.
        -24    2    1    2    0    0 -0.96874804495E+02  0.61507617492E+01  0.15537770722E+04  0.15589039280E+04  0.80843720022E+02 0.  0.
        -13    1    3    3    0    0  0.17517233915E+02 -0.96422359145E+01 -0.22774753262E+03  0.22862363135E+03  0.00000000000E+00 0.  1.
         14    1    3    3    0    0 -0.62762892911E+02 -0.11021487941E+03 -0.64308518835E+03  0.65547315723E+03  0.00000000000E+00 0. -1.
         13    1    5    5    0    0 -0.89215497988E+02 -0.14827326854E+02  0.14466282309E+04  0.14494524805E+04  0.00000000000E+00 0. -1.
        -14    1    5    5    0    0 -0.76593065071E+01  0.20978088603E+02  0.10714884130E+03  0.10945144754E+03  0.00000000000E+00 0.  1.
          5    1    4    4  501    0  0.99073772028E+02  0.88876222250E+00  0.46333057335E+02  0.10945604965E+03  0.41800000000E+01 0. -1.
         -5    1    4    4    0  501  0.43046691463E+02  0.11281759135E+03  0.33519192035E+02  0.12538674252E+03  0.41800000000E+01 0. -1.
</event>
<event>
11    1  0.8864208E-009  0.1368838E+03  0.7561462E-02  0.1111089E+00
         22   -1    0    0    0    0  0.00000000000E+00  0.00000000000E+00  0.13422060234E+04  0.13422060234E+04  0.00000000000E+00 0. -1.
         22   -1    0    0    0    0 -0.00000000000E+00 -0.00000000000E+00 -0.16065809888E+03  0.16065809888E+03  0.00000000000E+00 0.  1.
         24    2    1    2    0    0  0.47919854686E+02  0.27481823564E+02 -0.10326748788E+03  0.14216409781E+03  0.80590902423E+02 0.  0.
         25    2    1    2    0    0 -0.55681315850E+02 -0.18839431368E+02  0.94044806053E+02  0.16717736779E+03  0.12509401923E+03 0.  0.
        -24    2    1    2    0    0  0.77614611634E+01 -0.86423921965E+01  0.11907706064E+04  0.11935226567E+04  0.80167099671E+02 0.  0.
        -11    1    3    3    0    0  0.46069178496E+02 -0.82201364990E+00 -0.10404298180E+03  0.11378922170E+03  0.00000000000E+00 0.  1.
         12    1    3    3    0    0  0.18506761906E+01  0.28303837214E+02  0.77549391891E+00  0.28374876109E+02  0.00000000000E+00 0. -1.
         13    1    5    5    0    0  0.40082618436E+02  0.51454274739E+01  0.84633400979E+03  0.84729826381E+03  0.00000000000E+00 0. -1.
        -14    1    5    5    0    0 -0.32321157273E+02 -0.13787819670E+02  0.34443659657E+03  0.34622439289E+03  0.00000000000E+00 0.  1.
          5    1    4    4  501    0 -0.49223782812E+02  0.45867223730E+02  0.71394300980E+02  0.98190639164E+02  0.41800000000E+01 0.  1.
         -5    1    4    4    0  501 -0.64575330375E+01 -0.64706655097E+02  0.22650505073E+02  0.68986728629E+02  0.41800000000E+01 0.  1.
</event>
<event>
11    1  0.8864208E-009  0.1324724E+03  0.7561462E-02  0.1116268E+00
         22   -1    0    0    0    0  0.00000000000E+00  0.00000000000E+00  0.10051795304E+04  0.10051795304E+04  0.00000000000E+00 0. -1.
         22   -1    0    0    0    0 -0.00000000000E+00 -0.00000000000E+00 -0.22446814560E+03  0.22446814560E+03  0.00000000000E+00 0. -1.
        -24    2    1    2    0    0  0.98553831368E+01 -0.14660367463E+02 -0.20160766225E+03  0.21769448930E+03  0.80207145821E+02 0.  0.
         25    2    1    2    0    0  0.24584911734E+02 -0.20401691210E+02  0.40317669305E+03  0.42334269978E+03  0.12508776421E+03 0.  0.
         24    2    1    2    0    0 -0.34440294871E+02  0.35062058673E+02  0.57914235405E+03  0.58861048697E+03  0.92956749316E+02 0.  0.
        -11    1    5    5    0    0 -0.35057366918E+02 -0.26256315487E+02  0.24807890460E+03  0.25191577161E+03  0.00000000000E+00 0.  1.
         12    1    5    5    0    0  0.61707204765E+00  0.61318374160E+02  0.33106344944E+03  0.33669471535E+03  0.00000000000E+00 0. -1.
         11    1    3    3    0    0  0.32438756358E+02  0.18819612762E+02 -0.13195772450E+03  0.13718342391E+03  0.00000000000E+00 0. -1.
        -12    1    3    3    0    0 -0.22583373222E+02 -0.33479980226E+02 -0.69649937748E+02  0.80511065391E+02  0.00000000000E+00 0.  1.
          5    1    4    4  501    0 -0.25668244487E+02  0.12362466317E+02  0.19024817296E+02  0.34512395188E+02  0.41800000000E+01 0. -1.
         -5    1    4    4    0  501  0.50253156221E+02 -0.32764157527E+02  0.38415187575E+03  0.38883030459E+03  0.41800000000E+01 0. -1.
</event>
<event>
11    1  0.8864208E-009  0.2065815E+03  0.7561462E-02  0.1049965E+00
         22   -1    0    0    0    0  0.00000000000E+00  0.00000000000E+00  0.33183805093E+03  0.33183805093E+03  0.00000000000E+00 0.  1.
         22   -1    0    0    0    0 -0.00000000000E+00 -0.00000000000E+00 -0.21542824732E+04  0.21542824732E+04  0.00000000000E+00 0. -1.
        -24    2    1    2    0    0  0.14723215829E+03 -0.73746449830E+02 -0.20847143798E+04  0.20927485371E+04  0.80290391869E+02 0.  0.
         25    2    1    2    0    0 -0.14954394614E+03  0.39854466949E+02  0.14191970634E+03  0.24441876742E+03  0.12509020927E+03 0.  0.
         24    2    1    2    0    0  0.23117878529E+01  0.33891982881E+02  0.12035025114E+03  0.14895321963E+03  0.80925075367E+02 0.  0.
        -13    1    5    5    0    0  0.43839098493E+01  0.17986721975E+02  0.12927762923E+03  0.13059650169E+03  0.00000000000E+00 0.  1.
         14    1    5    5    0    0 -0.20721219963E+01  0.15905260906E+02 -0.89273780950E+01  0.18356717945E+02  0.00000000000E+00 0. -1.
         11    1    3    3    0    0  0.15217538957E+03 -0.72580052103E+02 -0.17742199428E+04  0.17822125627E+04  0.00000000000E+00 0. -1.
        -12    1    3    3    0    0 -0.49432312848E+01 -0.11663977274E+01 -0.31049443700E+03  0.31053597445E+03  0.00000000000E+00 0.  1.
          5    1    4    4  501    0 -0.13697537143E+03 -0.18595537626E+02  0.88930649741E+02  0.16442073854E+03  0.41800000000E+01 0. -1.
         -5    1    4    4    0  501 -0.12568574709E+02  0.58450004575E+02  0.52989056600E+02  0.79998028878E+02  0.41800000000E+01 0. -1.
</event>
<event>
11    1  0.8864208E-009  0.1385651E+03  0.7561462E-02  0.1109171E+00
         22   -1    0    0    0    0  0.00000000000E+00  0.00000000000E+00  0.33348531727E+03  0.33348531727E+03  0.00000000000E+00 0.  1.
         22   -1    0    0    0    0 -0.00000000000E+00 -0.00000000000E+00 -0.37028154730E+03  0.37028154730E+03  0.00000000000E+00 0.  1.
         24    2    1    2    0    0  0.13193266947E+02 -0.22670555263E+02 -0.22846212525E+03  0.24417396465E+03  0.82085114207E+02 0.  0.
         25    2    1    2    0    0  0.47378499130E+02  0.21648810718E+02 -0.86967092427E+02  0.16101427404E+03  0.12509567577E+03 0.  0.
        -24    2    1    2    0    0 -0.60571766077E+02  0.10217445453E+01  0.27863298764E+03  0.29857862587E+03  0.88559986540E+02 0.  0.
        -11    1    3    3    0    0  0.55649918578E+01 -0.27563410022E+02 -0.23254155655E+03  0.23423553579E+03  0.00000000000E+00 0.  1.
         12    1    3    3    0    0  0.76282750893E+01  0.48928547583E+01  0.40794313006E+01  0.99384288628E+01  0.00000000000E+00 0. -1.
         13    1    5    5    0    0 -0.16696041837E+02 -0.79823324719E+01  0.23107160588E+01  0.18649794997E+02  0.00000000000E+00 0. -1.
        -14    1    5    5    0    0 -0.43875724239E+02  0.90040770172E+01  0.27632227159E+03  0.27992883087E+03  0.00000000000E+00 0.  1.
          5    1    4    4  501    0  0.41063567708E+02  0.53624519727E+02  0.40033754992E+00  0.67671547781E+02  0.41800000000E+01 0.  1.
         -5    1    4    4    0  501  0.63149314218E+01 -0.31975709009E+02 -0.87367429977E+02  0.93342726264E+02  0.41800000000E+01 0.  1.
</event>
<event>
11    1  0.8864208E-009  0.1284734E+03  0.7561462E-02  0.1121159E+00
         22   -1    0    0    0    0  0.00000000000E+00  0.00000000000E+00  0.15562555361E+04  0.15562555361E+04  0.00000000000E+00 0. -1.
         22   -1    0    0    0    0 -0.00000000000E+00 -0.00000000000E+00 -0.70296859168E+03  0.70296859168E+03  0.00000000000E+00 0. -1.
         24    2    1    2    0    0  0.78957417012E+01  0.27991311720E+02 -0.67752530777E+03  0.68305441764E+03  0.81712535843E+02 0.  0.
         25    2    1    2    0    0  0.68014618279E+01 -0.39954100136E+02  0.18026467886E+03  0.22314015662E+03  0.12511428797E+03 0.  0.
        -24    2    1    2    0    0 -0.14697203529E+02  0.11962788416E+02  0.13505475733E+04  0.13530295535E+04  0.79693843817E+02 0.  0.
        -11    1    3    3    0    0  0.22928093678E+01  0.51709597666E+02 -0.27740730966E+03  0.28219488819E+03  0.00000000000E+00 0.  1.
         12    1    3    3    0    0  0.56029323333E+01 -0.23718285946E+02 -0.40011799811E+03  0.40085952945E+03  0.00000000000E+00 0. -1.
         11    1    5    5    0    0  0.84367077528E+01 -0.19832692146E+02  0.10083439267E+04  0.10085742353E+04  0.00000000000E+00 0. -1.
        -12    1    5    5    0    0 -0.23133911282E+02  0.31795480561E+02  0.34220364661E+03  0.34445531813E+03  0.00000000000E+00 0.  1.
          5    1    4    4  501    0  0.23083800800E+02 -0.82333234684E+02  0.12482567314E+03  0.15136229539E+03  0.41800000000E+01 0. -1.
         -5    1    4    4    0  501 -0.16282338972E+02  0.42379134548E+02  0.55439005722E+02  0.71777861231E+02  0.41800000000E+01 0. -1.
</event>
<event>
11    1  0.8864208E-009  0.1319410E+03  0.7561462E-02  0.1116907E+00
         22   -1    0    0    0    0  0.00000000000E+00  0.00000000000E+00  0.12206578214E+03  0.12206578214E+03  0.00000000000E+00 0. -1.
         22   -1    0    0    0    0 -0.00000000000E+00 -0.00000000000E+00 -0.17576292820E+04  0.17576292820E+04  0.00000000000E+00 0. -1.
        -24    2    1    2    0    0 -0.42427400660E+02 -0.12743883405E+02 -0.13783571943E+04  0.13813992507E+04  0.80205011960E+02 0.  0.
         25    2    1    2    0    0  0.18874025205E+02  0.21309898972E+02 -0.35046416615E+03  0.37320598470E+03  0.12508890695E+03 0.  0.
         24    2    1    2    0    0  0.23553375455E+02 -0.85660155667E+01  0.93257860609E+02  0.12508982869E+03  0.79512882963E+02 0.  0.
        -13    1    5    5    0    0 -0.19030470027E+02 -0.28554693534E+02  0.53181500990E+02  0.63291400362E+02  0.00000000000E+00 0.  1.
         14    1    5    5    0    0  0.42583845481E+02  0.19988677968E+02  0.40076359619E+02  0.61798428323E+02  0.00000000000E+00 0. -1.
         13    1    3    3    0    0  0.13958513155E+02 -0.29177425101E+02 -0.56424070422E+03  0.56516699702E+03  0.00000000000E+00 0. -1.
        -14    1    3    3    0    0 -0.56385913814E+02  0.16433541696E+02 -0.81411649009E+03  0.81623225372E+03  0.00000000000E+00 0.  1.
          5    1    4    4  501    0  0.11444498903E+02  0.26945926739E+02 -0.35880088342E+03  0.36001750773E+03  0.41800000000E+01 0.  1.
         -5    1    4    4    0  501  0.74295263016E+01 -0.56360277678E+01  0.83367172747E+01  0.13188476977E+02  0.41800000000E+01 0.  1.
</event>
<event>
11    1  0.8864208E-009  0.1327800E+03  0.7561462E-02  0.1115900E+00
         22   -1    0    0    0    0  0.00000000000E+00  0.00000000000E+00  0.46885286963E+02  0.46885286963E+02  0.00000000000E+00 0. -1.
         22   -1    0    0    0    0 -0.00000000000E+00 -0.00000000000E+00 -0.32749458209E+04  0.32749458209E+04  0.00000000000E+00 0.  1.
        -24    2    1    2    0    0  0.37538202685E+02  0.22759567126E+02 -0.15340157653E+04  0.15367559274E+04  0.80543763438E+02 0.  0.
         25    2    1    2    0    0 -0.46062946759E+02 -0.10653801723E+02 -0.16940779260E+04  0.16993477092E+04  0.12508924430E+03 0.  0.
         24    2    1    2    0    0  0.85247440739E+01 -0.12105765403E+02  0.33157344009E-01  0.85727471169E+02  0.84439193483E+02 0.  0.
        -13    1    5    5    0    0 -0.13336206738E+02 -0.19062257627E+02 -0.36088073160E+02  0.42936850145E+02  0.00000000000E+00 0.  1.
         14    1    5    5    0    0  0.21860950812E+02  0.69564922238E+01  0.36121230504E+02  0.42790621023E+02  0.00000000000E+00 0. -1.
         13    1    3    3    0    0  0.37034087460E+02  0.48968492124E+02 -0.83767437926E+03  0.83992130734E+03  0.00000000000E+00 0. -1.
        -14    1    3    3    0    0  0.50411522528E+00 -0.26208924998E+02 -0.69634138603E+03  0.69683462011E+03  0.00000000000E+00 0.  1.
          5    1    4    4  501    0 -0.24097482153E+02 -0.67630133356E+02 -0.83425524348E+03  0.83734927435E+03  0.41800000000E+01 0. -1.
         -5    1    4    4    0  501 -0.21965464606E+02  0.56976331633E+02 -0.85982268247E+03  0.86199843486E+03  0.41800000000E+01 0. -1.
</event>
<event>
11    1  0.8864208E-009  0.1317896E+03  0.7561462E-02  0.1117089E+00
         22   -1    0    0    0    0  0.00000000000E+00  0.00000000000E+00  0.41102455824E+03  0.41102455824E+03  0.00000000000E+00 0.  1.
         22   -1    0    0    0    0 -0.00000000000E+00 -0.00000000000E+00 -0.25334021227E+04  0.25334021227E+04  0.00000000000E+00 0.  1.
        -24    2    1    2    0    0  0.30425839044E+02 -0.49778863880E+01 -0.24706212950E+04  0.24721344290E+04  0.80799385210E+02 0.  0.
         25    2    1    2    0    0 -0.30429031056E+00  0.35974730272E+02  0.20476275680E+02  0.13176014179E+03  0.12508870168E+03 0.  0.
         24    2    1    2    0    0 -0.30121548733E+02 -0.30996843884E+02  0.32776745480E+03  0.34053211023E+03  0.81624148664E+02 0.  0.
        -13    1    5    5    0    0 -0.47230480676E+02 -0.48610697490E+02  0.24432377076E+03  0.25355043517E+03  0.00000000000E+00 0.  1.
         14    1    5    5    0    0  0.17108931942E+02  0.17613853606E+02  0.83443684036E+02  0.86981675062E+02  0.00000000000E+00 0. -1.
         11    1    3    3    0    0 -0.14237349361E+02  0.12201790165E+02 -0.17270045431E+03  0.17371537848E+03  0.00000000000E+00 0. -1.
        -12    1    3    3    0    0  0.44663188405E+02 -0.17179676553E+02 -0.22979208407E+04  0.22984190505E+04  0.00000000000E+00 0.  1.
          5    1    4    4  501    0 -0.31986305831E+02  0.68205694611E+02  0.36254694261E+02  0.83707919542E+02  0.41800000000E+01 0.  1.
         -5    1    4    4    0  501  0.31682015520E+02 -0.32230964339E+02 -0.15778418582E+02  0.48052222244E+02  0.41800000000E+01 0.  1.
</event>
<event>
11    1  0.8864208E-009  0.1417505E+03  0.7561462E-02  0.1105619E+00
         22   -1    0    0    0    0  0.00000000000E+00  0.00000000000E+00  0.10485892378E+04  0.10485892378E+04  0.00000000000E+00 0.  1.
         22   -1    0    0    0    0 -0.00000000000E+00 -0.00000000000E+00 -0.18211592496E+04  0.18211592496E+04  0.00000000000E+00 0. -1.
         24    2    1    2    0    0  0.66599191973E+02  0.10995498253E+01 -0.18050357543E+04  0.18080567291E+04  0.80488508958E+02 0.  0.
         25    2    1    2    0    0 -0.93044238572E+02  0.11451234690E+02  0.54661042444E+03  0.56852300385E+03  0.12508832357E+03 0.  0.
        -24    2    1    2    0    0  0.26445046599E+02 -0.12550784516E+02  0.48585531802E+03  0.49316875447E+03  0.79392491155E+02 0.  0.
        -11    1    3    3    0    0 -0.12063462360E+02  0.16865498768E+02 -0.21480081856E+03  0.21579936011E+03  0.00000000000E+00 0.  1.
         12    1    3    3    0    0  0.78662654333E+02 -0.15765948943E+02 -0.15902349357E+04  0.15922573690E+04  0.00000000000E+00 0. -1.
         11    1    5    5    0    0 -0.20430013168E+02 -0.27597242223E+02  0.16258202990E+03  0.16616831727E+03  0.00000000000E+00 0. -1.
        -12    1    5    5    0    0  0.46875059767E+02  0.15046457707E+02  0.32327328812E+03  0.32700043720E+03  0.00000000000E+00 0.  1.
          5    1    4    4  501    0 -0.47570709158E+02  0.94102322358E+01  0.49874586863E+02  0.69688389673E+02  0.41800000000E+01 0.  1.
         -5    1    4    4    0  501 -0.45473529415E+02  0.20410024546E+01  0.49673583757E+03  0.49883461417E+03  0.41800000000E+01 0.  1.
</event>
<event>
11    1  0.8864208E-009  0.1385382E+03  0.7561462E-02  0.1109202E+00
         22   -1    0    0    0    0  0.00000000000E+00  0.00000000000E+00  0.21924970829E+03  0.21924970829E+03  0.00000000000E+00 0.  1.
         22   -1    0    0    0    0 -0.00000000000E+00 -0.00000000000E+00 -0.91456272611E+03  0.91456272611E+03  0.00000000000E+00 0.  1.
        -24    2    1    2    0    0 -0.48360713962E+02 -0.40228894766E+02 -0.68176746391E+03  0.68981748417E+03  0.84167475848E+02 0.  0.
         25    2    1    2    0    0  0.27982244747E+02  0.33359806067E+02 -0.20044762602E+03  0.24025457567E+03  0.12508847937E+03 0.  0.
         24    2    1    2    0    0  0.20378469215E+02  0.68690886991E+01  0.18690207212E+03  0.20374037456E+03  0.78200315066E+02 0.  0.
        -11    1    5    5    0    0  0.37440032452E+02  0.20966408189E+02  0.17147377231E+03  0.17676142366E+03  0.00000000000E+00 0.  1.
         12    1    5    5    0    0 -0.17061563237E+02 -0.14097319490E+02  0.15428299805E+02  0.26978950901E+02  0.00000000000E+00 0. -1.
         13    1    3    3    0    0 -0.31006465602E+01  0.25044376540E+02 -0.19191163736E+03  0.19356371395E+03  0.00000000000E+00 0. -1.
        -14    1    3    3    0    0 -0.45260067402E+02 -0.65273271307E+02 -0.48985582655E+03  0.49625377022E+03  0.00000000000E+00 0.  1.
          5    1    4    4  501    0  0.36983365181E+01  0.68561312305E+02 -0.17994519747E+03  0.19264495252E+03  0.41800000000E+01 0. -1.
         -5    1    4    4    0  501  0.24283908229E+02 -0.35201506237E+02 -0.20502428549E+02  0.47609623152E+02  0.41800000000E+01 0. -1.
</event>
<event>
11    1  0.8864208E-009  0.1533832E+03  0.7561462E-02  0.1093471E+00
         22   -1    0    0    0    0  0.00000000000E+00  0.00000000000E+00  0.16454818515E+04  0.16454818515E+04  0.00000000000E+00 0. -1.
         22   -1    0    0    0    0 -0.00000000000E+00 -0.00000000000E+00 -0.54808959480E+03  0.54808959480E+03  0.00000000000E+00 0. -1.
        -24    2    1    2    0    0  0.39956337430E+02 -0.56738824595E+02 -0.30257956551E+03  0.32084410436E+03  0.81060117973E+02 0.  0.
         25    2    1    2    0    0  0.48696951308E+02  0.46949687116E+02 -0.21251749205E+03  0.25571183816E+03  0.12509673681E+03 0.  0.
         24    2    1    2    0    0 -0.88653288739E+02  0.97891374788E+01  0.16124893142E+04  0.16170155037E+04  0.81621798891E+02 0.  0.
        -13    1    5    5    0    0 -0.21365581672E+02 -0.22603790549E+02  0.18680769670E+03  0.18937934146E+03  0.00000000000E+00 0.  1.
         14    1    5    5    0    0 -0.67287707066E+02  0.32392928028E+02  0.14256816175E+04  0.14276361623E+04  0.00000000000E+00 0. -1.
         11    1    3    3    0    0  0.10788146770E+02 -0.66218114801E+02 -0.25903731013E+03  0.26758466114E+03  0.00000000000E+00 0. -1.
        -12    1    3    3    0    0  0.29168190660E+02  0.94792902066E+01 -0.43542255380E+02  0.53259443227E+02  0.00000000000E+00 0.  1.
          5    1    4    4  501    0  0.89456414722E+02  0.17115060299E+02 -0.14508990793E+03  0.17135906514E+03  0.41800000000E+01 0. -1.
         -5    1    4    4    0  501 -0.40759463414E+02  0.29834626817E+02 -0.67427584122E+02  0.84352773016E+02  0.41800000000E+01 0. -1.
</event>
<event>
11    1  0.8864208E-009  0.1465826E+03  0.7561462E-02  0.1100423E+00
         22   -1    0    0    0    0  0.00000000000E+00  0.00000000000E+00  0.98940442476E+03  0.98940442476E+03  0.00000000000E+00 0.  1.
         22   -1    0    0    0    0 -0.00000000000E+00 -0.00000000000E+00 -0.20044850721E+04  0.20044850721E+04  0.00000000000E+00 0.  1.
        -24    2    1    2    0    0  0.37676662161E+02 -0.69900245292E+02 -0.18590059711E+04  0.18624649279E+04  0.81035992256E+02 0.  0.
         25    2    1    2    0    0 -0.47528278598E+02 -0.21335545487E+01 -0.10881580624E+03  0.17248722750E+03  0.12508986626E+03 0.  0.
         24    2    1    2    0    0  0.98516164372E+01  0.72033799841E+02  0.95274112999E+03  0.95893734143E+03  0.80989143356E+02 0.  0.
        -11    1    5    5    0    0 -0.29003320913E+02  0.62034072710E+02  0.63063476687E+03  0.63434188572E+03  0.00000000000E+00 0.  1.
         12    1    5    5    0    0  0.38854937350E+02  0.99997271308E+01  0.32210636312E+03  0.32459545571E+03  0.00000000000E+00 0. -1.
         11    1    3    3    0    0  0.22697002791E+01 -0.53273663833E+02 -0.15600185801E+04  0.15609295964E+04  0.00000000000E+00 0. -1.
        -12    1    3    3    0    0  0.35406961882E+02 -0.16626581459E+02 -0.29898739099E+03  0.30153533148E+03  0.00000000000E+00 0.  1.
          5    1    4    4  501    0  0.11666147973E+02  0.52027736989E+02 -0.42673846973E+02  0.68421590453E+02  0.41800000000E+01 0. -1.
         -5    1    4    4    0  501 -0.59194426571E+02 -0.54161291537E+02 -0.66141959269E+02  0.10406563705E+03  0.41800000000E+01 0. -1.
</event>
<event>
11    1  0.8864208E-009  0.1423242E+03  0.7561462E-02  0.1104990E+00
         22   -1    0    0    0    0  0.00000000000E+00  0.00000000000E+00  0.17866648153E+03  0.17866648153E+03  0.00000000000E+00 0. -1.
         22   -1    0    0    0    0 -0.00000000000E+00 -0.00000000000E+00 -0.64547051274E+03  0.64547051274E+03  0.00000000000E+00 0.  1.
         24    2    1    2    0    0 -0.19268490914E+02 -0.55166146682E+02 -0.30297574645E+03  0.31765859422E+03  0.75485767288E+02 0.  0.
         25    2    1    2    0    0  0.32264683694E+02  0.85981318464E+02 -0.30484582075E+03  0.34207242483E+03  0.12509505368E+03 0.  0.
        -24    2    1    2    0    0 -0.12996192780E+02 -0.30815171782E+02  0.14101753599E+03  0.16440597522E+03  0.77620251178E+02 0.  0.
        -13    1    3    3    0    0 -0.45725186485E+02 -0.37218644057E+02 -0.23867029867E+03  0.24584452732E+03  0.00000000000E+00 0.  1.
         14    1    3    3    0    0  0.26456695571E+02 -0.17947502624E+02 -0.64305447785E+02  0.71814066907E+02  0.00000000000E+00 0. -1.
         13    1    5    5    0    0 -0.35600232124E+02 -0.22969948998E+02  0.13233656303E+03  0.13895308920E+03  0.00000000000E+00 0. -1.
        -14    1    5    5    0    0  0.22604039345E+02 -0.78452227846E+01  0.86809729634E+01  0.25452886022E+02  0.00000000000E+00 0.  1.
          5    1    4    4  501    0  0.54270918245E+02  0.43749425175E+02 -0.27924428824E+03  0.28784403709E+03  0.41800000000E+01 0.  1.
         -5    1    4    4    0  501 -0.22006234550E+02  0.42231893289E+02 -0.25601532512E+02  0.54228387739E+02  0.41800000000E+01 0.  1.
</event>
<event>
11    1  0.8864208E-009  0.1869799E+03  0.7561462E-02  0.1064133E+00
         22   -1    0    0    0    0  0.00000000000E+00  0.00000000000E+00  0.46991689850E+02  0.46991689850E+02  0.00000000000E+00 0.  1.
         22   -1    0    0    0    0 -0.00000000000E+00 -0.00000000000E+00 -0.28506530021E+04  0.28506530021E+04  0.00000000000E+00 0.  1.
         24    2    1    2    0    0 -0.48978275778E+01 -0.36654852526E+00 -0.18025863358E+04  0.18044787192E+04  0.82473188393E+02 0.  0.
         25    2    1    2    0    0 -0.85180974557E+02  0.10684616198E+03 -0.85634783391E+03  0.87615701218E+03  0.12509035369E+03 0.  0.
        -24    2    1    2    0    0  0.90078802135E+02 -0.10647961346E+03 -0.14472714252E+03  0.21700896060E+03  0.81822029560E+02 0.  0.
        -11    1    3    3    0    0 -0.66719206897E+01 -0.17476368170E+02 -0.17208627483E+04  0.17209644204E+04  0.00000000000E+00 0.  1.
         12    1    3    3    0    0  0.17740931119E+01  0.17109819645E+02 -0.81723587539E+02  0.83514298745E+02  0.00000000000E+00 0. -1.
         11    1    5    5    0    0 -0.59043600992E+01 -0.43867017182E+00 -0.38230567062E+02  0.38686304522E+02  0.00000000000E+00 0. -1.
        -12    1    5    5    0    0  0.95983162234E+02 -0.10604094328E+03 -0.10649657546E+03  0.17832265607E+03  0.00000000000E+00 0.  1.
          5    1    4    4  501    0 -0.81484254384E+02  0.39987332363E+01 -0.41310015131E+03  0.42109960935E+03  0.41800000000E+01 0.  1.
         -5    1    4    4    0  501 -0.36967201731E+01  0.10284742875E+03 -0.44324768260E+03  0.45505740283E+03  0.41800000000E+01 0.  1.
</event>
<event>
11    1  0.8864208E-009  0.1531737E+03  0.7561462E-02  0.1093679E+00
         22   -1    0    0    0    0  0.00000000000E+00  0.00000000000E+00  0.83865740227E+03  0.83865740227E+03  0.00000000000E+00 0. -1.
         22   -1    0    0    0    0 -0.00000000000E+00 -0.00000000000E+00 -0.88895421592E+03  0.88895421592E+03  0.00000000000E+00 0. -1.
         24    2    1    2    0    0  0.78258265485E+02  0.34987519824E+02 -0.77320962613E+03  0.78190849396E+03  0.78608424091E+02 0.  0.
         25    2    1    2    0    0 -0.12557252177E+03 -0.55683958481E+02 -0.28909916003E+02  0.18802266071E+03  0.12509027238E+03 0.  0.
        -24    2    1    2    0    0  0.47314256282E+02  0.20696438657E+02  0.75182272848E+03  0.75768046352E+03  0.78583002735E+02 0.  0.
        -13    1    3    3    0    0  0.23007427685E+02  0.25032046286E+02 -0.87018708133E+02  0.93424839497E+02  0.00000000000E+00 0.  1.
         14    1    3    3    0    0  0.55250837800E+02  0.99554735383E+01 -0.68619091799E+03  0.68848365447E+03  0.00000000000E+00 0. -1.
         11    1    5    5    0    0  0.59419898586E+02  0.23223430232E+02  0.72844514891E+03  0.73123346958E+03  0.00000000000E+00 0. -1.
        -12    1    5    5    0    0 -0.12105642304E+02 -0.25269915749E+01  0.23377579571E+02  0.26446993943E+02  0.00000000000E+00 0.  1.
          5    1    4    4  501    0 -0.41454856186E+02 -0.84012100937E+02  0.24077788716E+01  0.93807291851E+02  0.41800000000E+01 0. -1.
         -5    1    4    4    0  501 -0.84117665581E+02  0.28328142456E+02 -0.31317694875E+02  0.94215368863E+02  0.41800000000E+01 0. -1.
</event>
<event>
11    1  0.8864208E-009  0.1678255E+03  0.7561462E-02  0.1079940E+00
         22   -1    0    0    0    0  0.00000000000E+00  0.00000000000E+00  0.12072628930E+04  0.12072628930E+04  0.00000000000E+00 0.  1.
         22   -1    0    0    0    0 -0.00000000000E+00 -0.00000000000E+00 -0.22451547159E+03  0.22451547159E+03  0.00000000000E+00 0.  1.
        -24    2    1    2    0    0 -0.92822963871E+01  0.72762857457E+01 -0.19283082709E+03  0.20862417055E+03  0.78747770149E+02 0.  0.
         25    2    1    2    0    0  0.22116798729E+02  0.10539138736E+03  0.36357336523E+03  0.39928628438E+03  0.12508975847E+03 0.  0.
         24    2    1    2    0    0 -0.12834502342E+02 -0.11266767310E+03  0.81200488322E+03  0.82386790960E+03  0.80917693313E+02 0.  0.
        -13    1    5    5    0    0 -0.21938974182E+02 -0.12322019381E+03  0.74332245293E+03  0.75378564843E+03  0.00000000000E+00 0.  1.
         14    1    5    5    0    0  0.91044718402E+01  0.10552520706E+02  0.68682430286E+02  0.70082261170E+02  0.00000000000E+00 0. -1.
         13    1    3    3    0    0  0.17897103869E+02  0.35516643861E+01 -0.51639731671E+01  0.18962786337E+02  0.00000000000E+00 0. -1.
        -14    1    3    3    0    0 -0.27179400256E+02  0.37246213596E+01 -0.18766685392E+03  0.18966138422E+03  0.00000000000E+00 0.  1.
          5    1    4    4  501    0 -0.18905548093E+02 -0.34968073710E+01  0.24149021963E+01  0.19823005905E+02  0.41800000000E+01 0. -1.
         -5    1    4    4    0  501  0.41022346822E+02  0.10888819473E+03  0.36115846304E+03  0.37946327848E+03  0.41800000000E+01 0. -1.
</event>
<event>
11    1  0.8864208E-009  0.2061561E+03  0.7561462E-02  0.1050254E+00
         22   -1    0    0    0    0  0.00000000000E+00  0.00000000000E+00  0.18610114019E+04  0.18610114019E+04  0.00000000000E+00 0.  1.
         22   -1    0    0    0    0 -0.00000000000E+00 -0.00000000000E+00 -0.27110087812E+04  0.27110087812E+04  0.00000000000E+00 0.  1.
         24    2    1    2    0    0  0.66943804496E+02  0.72748307772E+01 -0.26363703347E+04  0.26384025757E+04  0.78646128009E+02 0.  0.
         25    2    1    2    0    0 -0.56133449833E+02  0.15696181208E+03  0.89437971695E+02  0.22679110514E+03  0.12508828860E+03 0.  0.
        -24    2    1    2    0    0 -0.10810354663E+02 -0.16423664286E+03  0.16969349837E+04  0.17068265023E+04  0.81103830674E+02 0.  0.
        -13    1    3    3    0    0  0.68451498108E+02  0.32526808891E+02 -0.16966126330E+04  0.16983044566E+04  0.00000000000E+00 0.  1.
         14    1    3    3    0    0 -0.15076936124E+01 -0.25251978114E+02 -0.93975770172E+03  0.94009811907E+03  0.00000000000E+00 0. -1.
         11    1    5    5    0    0 -0.27321726395E+02 -0.49664695597E+02  0.31561123941E+03  0.32066105652E+03  0.00000000000E+00 0. -1.
        -12    1    5    5    0    0  0.16511371732E+02 -0.11457194726E+03  0.13813237443E+04  0.13861654458E+04  0.00000000000E+00 0.  1.
          5    1    4    4  501    0  0.30491702204E+02  0.81693119749E+02  0.11606189083E+02  0.88066371236E+02  0.41800000000E+01 0. -1.
         -5    1    4    4    0  501 -0.86625152037E+02  0.75268692335E+02  0.77831782612E+02  0.13872473390E+03  0.41800000000E+01 0. -1.
</event>
<event>
11    1  0.8864208E-009  0.4055766E+03  0.7561462E-02  0.9633446E-01
         22   -1    0    0    0    0  0.00000000000E+00  0.00000000000E+00  0.26799508037E+04  0.26799508037E+04  0.00000000000E+00 0. -1.
         22   -1    0    0    0    0 -0.00000000000E+00 -0.00000000000E+00 -0.40025039905E+03  0.40025039905E+03  0.00000000000E+00 0. -1.
        -24    2    1    2    0    0 -0.82370969288E+01 -0.25621282170E+02 -0.21760606253E+03  0.23362905422E+03  0.80658766780E+02 0.  0.
         25    2    1    2    0    0  0.38559459972E+03  0.99884959149E+02  0.11643064899E+03  0.43343149890E+03  0.12508624152E+03 0.  0.
         24    2    1    2    0    0 -0.37735750279E+03 -0.74263676979E+02  0.23808758182E+04  0.24131406496E+04  0.82245696289E+02 0.  0.
        -13    1    5    5    0    0  0.39183543902E+01 -0.13365606814E+01  0.12633773173E+02  0.13294815537E+02  0.00000000000E+00 0.  1.
         14    1    5    5    0    0 -0.38127585719E+03 -0.72927116298E+02  0.23682420450E+04  0.23998458341E+04  0.00000000000E+00 0. -1.
         11    1    3    3    0    0  0.69468620704E+01 -0.53101818898E+02 -0.13225238387E+03  0.14268410949E+03  0.00000000000E+00 0. -1.
        -12    1    3    3    0    0 -0.15183958999E+02  0.27480536728E+02 -0.85353678665E+02  0.90944944727E+02  0.00000000000E+00 0.  1.
          5    1    4    4  501    0  0.25673540174E+03  0.11551919773E+03  0.11336448415E+03  0.30352385445E+03  0.41800000000E+01 0.  1.
         -5    1    4    4    0  501  0.12885919798E+03 -0.15634238583E+02  0.30661648348E+01  0.12990764445E+03  0.41800000000E+01 0.  1.
</event>
<event>
11    1  0.8864208E-009  0.1375302E+03  0.7561462E-02  0.1110348E+00
         22   -1    0    0    0    0  0.00000000000E+00  0.00000000000E+00  0.11686397685E+04  0.11686397685E+04  0.00000000000E+00 0.  1.
         22   -1    0    0    0    0 -0.00000000000E+00 -0.00000000000E+00 -0.25622927205E+03  0.25622927205E+03  0.00000000000E+00 0. -1.
        -24    2    1    2    0    0 -0.30868878550E+02 -0.49671557793E+02 -0.22138529792E+03  0.24257353558E+03  0.80064465971E+02 0.  0.
         25    2    1    2    0    0  0.51040534832E+02  0.42966037518E+01  0.18849519524E+03  0.23194670503E+03  0.12508092718E+03 0.  0.
         24    2    1    2    0    0 -0.20171656281E+02  0.45374954041E+02  0.94530059916E+03  0.95034879997E+03  0.84284261099E+02 0.  0.
        -13    1    5    5    0    0 -0.37286253984E+02 -0.79808209884E+01  0.51597717776E+03  0.51738419594E+03  0.00000000000E+00 0.  1.
         14    1    5    5    0    0  0.17114597703E+02  0.53355775030E+02  0.42932342140E+03  0.43296460403E+03  0.00000000000E+00 0. -1.
         11    1    3    3    0    0 -0.31876645317E+01 -0.45519261577E+02 -0.20525827488E+03  0.21026916985E+03  0.00000000000E+00 0. -1.
        -12    1    3    3    0    0 -0.27681214019E+02 -0.41522962165E+01 -0.16127023040E+02  0.32304365735E+02  0.00000000000E+00 0.  1.
          5    1    4    4  501    0  0.71321949835E+01 -0.11153643551E+02 -0.16573526953E+02  0.21620040828E+02  0.41800000000E+01 0. -1.
         -5    1    4    4    0  501  0.43908339848E+02  0.15450247303E+02  0.20506872220E+03  0.21032666420E+03  0.41800000000E+01 0. -1.
</event>
<event>
11    1  0.8864208E-009  0.1882528E+03  0.7561462E-02  0.1063156E+00
         22   -1    0    0    0    0  0.00000000000E+00  0.00000000000E+00  0.47160023753E+03  0.47160023753E+03  0.00000000000E+00 0.  1.
         22   -1    0    0    0    0 -0.00000000000E+00 -0.00000000000E+00 -0.15541770420E+04  0.15541770420E+04  0.00000000000E+00 0. -1.
        -24    2    1    2    0    0 -0.10007907085E+03 -0.98643888376E+02 -0.14808576959E+04  0.14896748970E+04  0.80282913157E+02 0.  0.
         25    2    1    2    0    0  0.93361421209E+02  0.11342876561E+03  0.82660723763E+02  0.20990873163E+03  0.12508573270E+03 0.  0.
         24    2    1    2    0    0  0.67176496416E+01 -0.14784877235E+02  0.31562016765E+03  0.32619365090E+03  0.80761923250E+02 0.  0.
        -11    1    5    5    0    0  0.33336665908E+02 -0.15036456749E+02  0.27630071164E+03  0.27871044397E+03  0.00000000000E+00 0.  1.
         12    1    5    5    0    0 -0.26619016267E+02  0.25157951397E+00  0.39319456014E+02  0.47483206932E+02  0.00000000000E+00 0. -1.
         13    1    3    3    0    0 -0.53584163566E+02 -0.76648679619E+02 -0.12327177164E+04  0.12362601874E+04  0.00000000000E+00 0. -1.
        -14    1    3    3    0    0 -0.46494907285E+02 -0.21995208757E+02 -0.24813997952E+03  0.25341470961E+03  0.00000000000E+00 0.  1.
          5    1    4    4  501    0  0.10946720913E+03  0.38526637934E+02  0.46532294012E+02  0.12510035368E+03  0.41800000000E+01 0.  1.
         -5    1    4    4    0  501 -0.16105787917E+02  0.74902127677E+02  0.36128429751E+02  0.84808377955E+02  0.41800000000E+01 0.  1.
</event>
<event>
11    1  0.8864208E-009  0.1742428E+03  0.7561462E-02  0.1074397E+00
         22   -1    0    0    0    0  0.00000000000E+00  0.00000000000E+00  0.12845815464E+04  0.12845815464E+04  0.00000000000E+00 0. -1.
         22   -1    0    0    0    0 -0.00000000000E+00 -0.00000000000E+00 -0.26681003221E+03  0.26681003221E+03  0.00000000000E+00 0.  1.
        -24    2    1    2    0    0 -0.30604285775E+02  0.63231663564E+02 -0.22131511409E+03  0.24968205771E+03  0.91792617533E+02 0.  0.
         25    2    1    2    0    0  0.13007862970E+02 -0.17244502250E+03  0.41891526660E+03  0.47014978358E+03  0.12507728862E+03 0.  0.
         24    2    1    2    0    0  0.17596422804E+02  0.10921335894E+03  0.82017136171E+03  0.83155973735E+03  0.81076151490E+02 0.  0.
        -11    1    5    5    0    0  0.17331781984E+02 -0.85532190587E+01  0.10750983008E+03  0.10923329065E+03  0.00000000000E+00 0.  1.
         12    1    5    5    0    0  0.26464081978E+00  0.11776657800E+03  0.71266153163E+03  0.72232644670E+03  0.00000000000E+00 0. -1.
         11    1    3    3    0    0 -0.74430982612E+01 -0.22334562371E+02 -0.25326005642E+02  0.34578012519E+02  0.00000000000E+00 0. -1.
        -12    1    3    3    0    0 -0.23161187513E+02  0.85566225935E+02 -0.19598910845E+03  0.21510404519E+03  0.00000000000E+00 0.  1.
          5    1    4    4  501    0 -0.37302144490E+02 -0.98489936485E+01  0.12036883054E+03  0.12646968184E+03  0.41800000000E+01 0. -1.
         -5    1    4    4    0  501  0.50310007461E+02 -0.16259602885E+03  0.29854643606E+03  0.34368010174E+03  0.41800000000E+01 0. -1.
</event>
<event>
11    1  0.8864208E-009  0.2633632E+03  0.7561462E-02  0.1017012E+00
         22   -1    0    0    0    0  0.00000000000E+00  0.00000000000E+00  0.18765489532E+03  0.18765489532E+03  0.00000000000E+00 0. -1.
         22   -1    0    0    0    0 -0.00000000000E+00 -0.00000000000E+00 -0.15762871345E+04  0.15762871345E+04  0.00000000000E+00 0. -1.
        -24    2    1    2    0    0 -0.25333317166E+03 -0.89617194408E+02 -0.10976293042E+04  0.11327671595E+04  0.78501023965E+02 0.  0.
         25    2    1    2    0    0  0.96667489264E+02  0.16956768765E+03 -0.35805983111E+03  0.42656020526E+03  0.12509581080E+03 0.  0.
         24    2    1    2    0    0  0.15666568239E+03 -0.79950493245E+02  0.67056896110E+02  0.20461466510E+03  0.80214191051E+02 0.  0.
        -11    1    5    5    0    0  0.10924712376E+03 -0.19237220291E+02  0.15711352415E+02  0.11203504491E+03  0.00000000000E+00 0.  1.
         12    1    5    5    0    0  0.47418558638E+02 -0.60713272954E+02  0.51345543695E+02  0.92579620184E+02  0.00000000000E+00 0. -1.
         11    1    3    3    0    0 -0.18771941443E+03 -0.30154002088E+02 -0.79732195984E+03  0.81967685708E+03  0.00000000000E+00 0. -1.
        -12    1    3    3    0    0 -0.65613757230E+02 -0.59463192320E+02 -0.30030734437E+03  0.31309030240E+03  0.00000000000E+00 0.  1.
          5    1    4    4  501    0  0.41539310976E+02  0.72974769572E+02 -0.47286376169E+02  0.96458826043E+02  0.41800000000E+01 0. -1.
         -5    1    4    4    0  501  0.55128178288E+02  0.96592918081E+02 -0.31077345494E+03  0.33010137921E+03  0.41800000000E+01 0. -1.
</event>
<event>
11    1  0.8864208E-009  0.1562689E+03  0.7561462E-02  0.1090640E+00
         22   -1    0    0    0    0  0.00000000000E+00  0.00000000000E+00  0.22495758308E+03  0.22495758308E+03  0.00000000000E+00 0. -1.
         22   -1    0    0    0    0 -0.00000000000E+00 -0.00000000000E+00 -0.19889265351E+04  0.19889265351E+04  0.00000000000E+00 0. -1.
        -24    2    1    2    0    0 -0.87758217506E+02  0.50481261837E+01 -0.14336259886E+04  0.14386998104E+04  0.82744673134E+02 0.  0.
         25    2    1    2    0    0  0.12644562647E+03 -0.10083593370E+02 -0.52892317701E+03  0.55811883325E+03  0.12508688797E+03 0.  0.
         24    2    1    2    0    0 -0.38687408963E+02  0.50354671863E+01  0.19858021362E+03  0.21706547451E+03  0.78493614023E+02 0.  0.
        -11    1    5    5    0    0 -0.51358053699E+02  0.17193970416E+02  0.76514066117E+02  0.93742650977E+02  0.00000000000E+00 0.  1.
         12    1    5    5    0    0  0.12670644737E+02 -0.12158503230E+02  0.12206614750E+03  0.12332282353E+03  0.00000000000E+00 0. -1.
         13    1    3    3    0    0 -0.33705152049E+02 -0.36850358513E+02 -0.46863079779E+03  0.47128421449E+03  0.00000000000E+00 0. -1.
        -14    1    3    3    0    0 -0.54053065457E+02  0.41898484696E+02 -0.96499519081E+03  0.96741559590E+03  0.00000000000E+00 0.  1.
          5    1    4    4  501    0  0.64486845983E+02  0.58753611455E+01 -0.72841116549E+02  0.97551903280E+02  0.41800000000E+01 0.  1.
         -5    1    4    4    0  501  0.61958780485E+02 -0.15958954516E+02 -0.45608206046E+03  0.46056692997E+03  0.41800000000E+01 0.  1.
</event>
<event>
11    1  0.8864208E-009  0.1314948E+03  0.7561462E-02  0.1117446E+00
         22   -1    0    0    0    0  0.00000000000E+00  0.00000000000E+00  0.24825978517E+03  0.24825978517E+03  0.00000000000E+00 0. -1.
         22   -1    0    0    0    0 -0.00000000000E+00 -0.00000000000E+00 -0.11738369937E+04  0.11738369937E+04  0.00000000000E+00 0. -1.
        -24    2    1    2    0    0 -0.42592332681E+02 -0.74080927331E+01 -0.10273530670E+04  0.10316396562E+04  0.83409047441E+02 0.  0.
         25    2    1    2    0    0  0.50576799845E+01 -0.56114175421E+01 -0.10590352627E+03  0.16407245286E+03  0.12508854775E+03 0.  0.
         24    2    1    2    0    0  0.37534652696E+02  0.13019510275E+02  0.20767938476E+03  0.22638466986E+03  0.80876041527E+02 0.  0.
        -11    1    5    5    0    0 -0.79159391551E+01  0.70278257527E+01 -0.28170605378E+01  0.10953915172E+02  0.00000000000E+00 0.  1.
         12    1    5    5    0    0  0.45450591852E+02  0.59916845225E+01  0.21049644530E+03  0.21543075469E+03  0.00000000000E+00 0. -1.
         13    1    3    3    0    0 -0.33274368077E+02  0.17811637547E+02 -0.92637738296E+03  0.92714588586E+03  0.00000000000E+00 0. -1.
        -14    1    3    3    0    0 -0.93179646037E+01 -0.25219730280E+02 -0.10097568409E+03  0.10449377033E+03  0.00000000000E+00 0.  1.
          5    1    4    4  501    0  0.39640136654E+02 -0.37605226964E+02 -0.80494088036E+01  0.55387353349E+02  0.41800000000E+01 0.  1.
         -5    1    4    4    0  501 -0.34582456669E+02  0.31993809422E+02 -0.97854117470E+02  0.10868509951E+03  0.41800000000E+01 0.  1.
</event>
<event>
11    1  0.8864208E-009  0.1531305E+03  0.7561462E-02  0.1093722E+00
         22   -1    0    0    0    0  0.00000000000E+00  0.00000000000E+00  0.28114250828E+03  0.28114250828E+03  0.00000000000E+00 0.  1.
         22   -1    0    0    0    0 -0.00000000000E+00 -0.00000000000E+00 -0.10555094303E+04  0.10555094303E+04  0.00000000000E+00 0.  1.
        -24    2    1    2    0    0 -0.35755259455E+02  0.28125779277E+02 -0.94927436842E+03  0.95369806739E+03  0.79678599126E+02 0.  0.
         25    2    1    2    0    0  0.67372795687E+02  0.56598678542E+02 -0.18166811634E+02  0.15399379117E+03  0.12506618513E+03 0.  0.
         24    2    1    2    0    0 -0.31617536232E+02 -0.84724457819E+02  0.19307425808E+03  0.22896007997E+03  0.83469435941E+02 0.  0.
        -13    1    5    5    0    0 -0.36781275714E+02 -0.38842610591E+02  0.16822676616E+03  0.17652720893E+03  0.00000000000E+00 0.  1.
         14    1    5    5    0    0  0.51637394818E+01 -0.45881847228E+02  0.24847491920E+02  0.52432871037E+02  0.00000000000E+00 0. -1.
         13    1    3    3    0    0 -0.46410139342E+02 -0.49334107002E+01 -0.31133117589E+03  0.31481000724E+03  0.00000000000E+00 0. -1.
        -14    1    3    3    0    0  0.10654879887E+02  0.33059189977E+02 -0.63794319254E+03  0.63888806016E+03  0.00000000000E+00 0.  1.
          5    1    4    4  501    0 -0.29674006461E+02  0.18117729520E+02  0.22779738355E+02  0.41775443289E+02  0.41800000000E+01 0. -1.
         -5    1    4    4    0  501  0.97046802148E+02  0.38480949022E+02 -0.40946549989E+02  0.11221834788E+03  0.41800000000E+01 0. -1.
</event>
<event>
11    1  0.8864208E-009  0.2656627E+03  0.7561462E-02  0.1015871E+00
         22   -1    0    0    0    0  0.00000000000E+00  0.00000000000E+00  0.32671709124E+03  0.32671709124E+03  0.00000000000E+00 0.  1.
         22   -1    0    0    0    0 -0.00000000000E+00 -0.00000000000E+00 -0.10263887136E+04  0.10263887136E+04  0.00000000000E+00 0. -1.
        -24    2    1    2    0    0 -0.15416119604E+03  0.17499462261E+03 -0.85831043635E+03  0.89320405944E+03  0.82023742497E+02 0.  0.
         25    2    1    2    0    0  0.12193762118E+03 -0.21672302543E+03  0.52163306208E+01  0.27840229788E+03  0.12507188393E+03 0.  0.
         24    2    1    2    0    0  0.32223574865E+02  0.41728402819E+02  0.15342248338E+03  0.18149944752E+03  0.81387791850E+02 0.  0.
        -11    1    5    5    0    0  0.35758935998E+02  0.64455242562E+02  0.12239827679E+03  0.14287938255E+03  0.00000000000E+00 0.  1.
         12    1    5    5    0    0 -0.35353611333E+01 -0.22726839743E+02  0.31024206593E+02  0.38620064963E+02  0.00000000000E+00 0. -1.
         11    1    3    3    0    0 -0.82829364812E+02  0.57653629825E+02 -0.48621837787E+03  0.49658126796E+03  0.00000000000E+00 0. -1.
        -12    1    3    3    0    0 -0.71331831230E+02  0.11734099279E+03 -0.37209205848E+03  0.39662279148E+03  0.00000000000E+00 0.  1.
          5    1    4    4  501    0  0.11929214742E+03 -0.13888655997E+03 -0.41106798206E+02  0.18768946224E+03  0.41800000000E+01 0. -1.
         -5    1    4    4    0  501  0.26454737612E+01 -0.77836465458E+02  0.46323128827E+02  0.90712835645E+02  0.41800000000E+01 0. -1.
</event>
<event>
11    1  0.8864208E-009  0.1317114E+03  0.7561462E-02  0.1117184E+00
         22   -1    0    0    0    0  0.00000000000E+00  0.00000000000E+00  0.17280793051E+04  0.17280793051E+04  0.00000000000E+00 0. -1.
         22   -1    0    0    0    0 -0.00000000000E+00 -0.00000000000E+00 -0.25065840982E+03  0.25065840982E+03  0.00000000000E+00 0.  1.
        -24    2    1    2    0    0  0.26872299779E+02 -0.35606208949E+02 -0.18674404301E+03  0.20858554415E+03  0.81514839241E+02 0.  0.
         25    2    1    2    0    0  0.35311614584E+01  0.23497811210E+02  0.26310772021E+02  0.13001834423E+03  0.12509155399E+03 0.  0.
         24    2    1    2    0    0 -0.30403461237E+02  0.12108397739E+02  0.16378541663E+04  0.16401338266E+04  0.80010719316E+02 0.  0.
        -11    1    5    5    0    0  0.17912680267E+02 -0.12991240811E+02  0.19477443798E+03  0.19602734029E+03  0.00000000000E+00 0.  1.
         12    1    5    5    0    0 -0.48316141504E+02  0.25099638551E+02  0.14430797283E+04  0.14441064863E+04  0.00000000000E+00 0. -1.
         13    1    3    3    0    0 -0.15651661098E+01 -0.53004565735E+02 -0.74151934720E+02  0.91161632042E+02  0.00000000000E+00 0. -1.
        -14    1    3    3    0    0  0.28437465889E+02  0.17398356786E+02 -0.11259210829E+03  0.11742391211E+03  0.00000000000E+00 0.  1.
          5    1    4    4  501    0 -0.63939970145E+01  0.73819808737E+02  0.52029134789E+01  0.74396169717E+02  0.41800000000E+01 0.  1.
         -5    1    4    4    0  501  0.99251584729E+01 -0.50321997527E+02  0.21107858542E+02  0.55622174518E+02  0.41800000000E+01 0.  1.
</event>
<event>
11    1  0.8864208E-009  0.1319092E+03  0.7561462E-02  0.1116945E+00
         22   -1    0    0    0    0  0.00000000000E+00  0.00000000000E+00  0.14508578992E+04  0.14508578992E+04  0.00000000000E+00 0.  1.
         22   -1    0    0    0    0 -0.00000000000E+00 -0.00000000000E+00 -0.33038233794E+03  0.33038233794E+03  0.00000000000E+00 0. -1.
        -24    2    1    2    0    0 -0.29027383125E+02  0.28405075171E+02 -0.28467689598E+03  0.29956403680E+03  0.83953795487E+02 0.  0.
         25    2    1    2    0    0  0.25092336348E+02 -0.67499055450E+02  0.10535860198E+03  0.17870013713E+03  0.12509019213E+03 0.  0.
         24    2    1    2    0    0  0.39350467771E+01  0.39093980279E+02  0.12997938553E+04  0.13029760632E+04  0.82089775495E+02 0.  0.
        -13    1    5    5    0    0 -0.20431267379E+01 -0.99907353747E+00  0.10429981972E+04  0.10430006769E+04  0.00000000000E+00 0.  1.
         14    1    5    5    0    0  0.59781735150E+01  0.40093053817E+02  0.25679565807E+03  0.25997538639E+03  0.00000000000E+00 0. -1.
         13    1    3    3    0    0 -0.27149964694E+02  0.52193122572E+02 -0.12546425385E+03  0.13857316342E+03  0.00000000000E+00 0. -1.
        -14    1    3    3    0    0 -0.18774184310E+01 -0.23788047401E+02 -0.15921264213E+03  0.16099087338E+03  0.00000000000E+00 0.  1.
          5    1    4    4  501    0 -0.44510529985E+02 -0.20416234705E+02  0.76173724227E+01  0.49734361177E+02  0.41800000000E+01 0. -1.
         -5    1    4    4    0  501  0.69602866333E+02 -0.47082820745E+02  0.97741229559E+02  0.12896577595E+03  0.41800000000E+01 0. -1.
</event>
<event>
11    1  0.8864208E-009  0.1343499E+03  0.7561462E-02  0.1114037E+00
         22   -1    0    0    0    0  0.00000000000E+00  0.00000000000E+00  0.22366632403E+03  0.22366632403E+03  0.00000000000E+00 0. -1.
         22   -1    0    0    0    0 -0.00000000000E+00 -0.00000000000E+00 -0.50576358781E+03  0.50576358781E+03  0.00000000000E+00 0. -1.
        -24    2    1    2    0    0 -0.30390007227E+02 -0.32315348650E+02 -0.31267138986E+03  0.33389625415E+03  0.10842267383E+03 0.  0.
         25    2    1    2    0    0  0.72120269960E+02  0.10681692874E+02 -0.13896271472E+03  0.20067929114E+03  0.12508441113E+03 0.  0.
         24    2    1    2    0    0 -0.41730262732E+02  0.21633655776E+02  0.16953684080E+03  0.19485436656E+03  0.83761888051E+02 0.  0.
        -11    1    5    5    0    0 -0.33611339703E+02  0.23976884674E+02  0.21449783551E+02  0.46526405080E+02  0.00000000000E+00 0.  1.
         12    1    5    5    0    0 -0.81189230294E+01 -0.23432288976E+01  0.14808705725E+03  0.14832796148E+03  0.00000000000E+00 0. -1.
         13    1    3    3    0    0  0.78558299148E+00 -0.56160665928E+02 -0.27056628114E+03  0.27633448939E+03  0.00000000000E+00 0. -1.
        -14    1    3    3    0    0 -0.31175590219E+02  0.23845317278E+02 -0.42105108720E+02  0.57561764756E+02  0.00000000000E+00 0.  1.
          5    1    4    4  501    0  0.47020526340E+02 -0.28446984090E+02 -0.14356254177E+03  0.15377853102E+03  0.41800000000E+01 0.  1.
         -5    1    4    4    0  501  0.25099743619E+02  0.39128676964E+02  0.45998270541E+01  0.46900760118E+02  0.41800000000E+01 0.  1.
</event>
<event>
11    1  0.8864208E-009  0.1473261E+03  0.7561462E-02  0.1099643E+00
         22   -1    0    0    0    0  0.00000000000E+00  0.00000000000E+00  0.81757135541E+03  0.81757135541E+03  0.00000000000E+00 0.  1.
         22   -1    0    0    0    0 -0.00000000000E+00 -0.00000000000E+00 -0.21870499318E+03  0.21870499318E+03  0.00000000000E+00 0. -1.
         24    2    1    2    0    0  0.63596237266E+02  0.10912034509E+02 -0.14838823355E+03  0.18243643621E+03  0.84264058232E+02 0.  0.
         25    2    1    2    0    0  0.18919635562E+02  0.16591346712E+01  0.33819713184E+02  0.13099845418E+03  0.12512440473E+03 0.  0.
        -24    2    1    2    0    0 -0.82515872827E+02 -0.12571169180E+02  0.71343488259E+03  0.72284145821E+03  0.80892140784E+02 0.  0.
        -11    1    3    3    0    0  0.36851913782E+01  0.24656919170E+02 -0.10314026443E+03  0.10611059535E+03  0.00000000000E+00 0.  1.
         12    1    3    3    0    0  0.59911045887E+02 -0.13744884661E+02 -0.45247969115E+02  0.76325840858E+02  0.00000000000E+00 0. -1.
         11    1    5    5    0    0 -0.83238918741E+00 -0.11659009715E+02  0.12315600169E+02  0.16979381226E+02  0.00000000000E+00 0. -1.
        -12    1    5    5    0    0 -0.81683483640E+02 -0.91215946532E+00  0.70111928242E+03  0.70586207698E+03  0.00000000000E+00 0.  1.
          5    1    4    4  501    0  0.46819941918E+02 -0.47042401990E+02  0.34055940466E+02  0.74715286436E+02  0.41800000000E+01 0. -1.
         -5    1    4    4    0  501 -0.27900306356E+02  0.48701536661E+02 -0.23622728150E+00  0.56283167744E+02  0.41800000000E+01 0. -1.
</event>
<event>
11    1  0.8864208E-009  0.1365687E+03  0.7561462E-02  0.1111452E+00
         22   -1    0    0    0    0  0.00000000000E+00  0.00000000000E+00  0.19476047794E+03  0.19476047794E+03  0.00000000000E+00 0.  1.
         22   -1    0    0    0    0 -0.00000000000E+00 -0.00000000000E+00 -0.37483652412E+03  0.37483652412E+03  0.00000000000E+00 0.  1.
        -24    2    1    2    0    0 -0.52309524105E+02 -0.29841890512E+02 -0.26986709173E+03  0.28836353102E+03  0.81844083983E+02 0.  0.
         25    2    1    2    0    0 -0.47501612121E+01 -0.63914472665E+01 -0.23264014748E+02  0.12748244455E+03  0.12508854727E+03 0.  0.
         24    2    1    2    0    0  0.57059685317E+02  0.36233337778E+02  0.11305506029E+03  0.15375102649E+03  0.79304911794E+02 0.  0.
        -13    1    5    5    0    0  0.53561070692E+02  0.42464626352E+02  0.12346585062E+03  0.14112352410E+03  0.00000000000E+00 0.  1.
         14    1    5    5    0    0  0.34986146256E+01 -0.62312885733E+01 -0.10410790324E+02  0.12627502396E+02  0.00000000000E+00 0. -1.
         11    1    3    3    0    0 -0.30029009708E+01  0.25241014472E+02 -0.45344182674E+02  0.51982892649E+02  0.00000000000E+00 0. -1.
        -12    1    3    3    0    0 -0.49306623135E+02 -0.55082904984E+02 -0.22452290905E+03  0.23638063837E+03  0.00000000000E+00 0.  1.
          5    1    4    4  501    0 -0.44501142077E+02 -0.48520745847E+02 -0.21489573633E+02  0.69382192230E+02  0.41800000000E+01 0.  1.
         -5    1    4    4    0  501  0.39750980865E+02  0.42129298580E+02 -0.17744411150E+01  0.58100252322E+02  0.41800000000E+01 0.  1.
</event>
<event>
11    1  0.8864208E-009  0.1475281E+03  0.7561462E-02  0.1099432E+00
         22   -1    0    0    0    0  0.00000000000E+00  0.00000000000E+00  0.18243752965E+03  0.18243752965E+03  0.00000000000E+00 0.  1.
         22   -1    0    0    0    0 -0.00000000000E+00 -0.00000000000E+00 -0.66545832833E+03  0.66545832833E+03  0.00000000000E+00 0. -1.
        -24    2    1    2    0    0 -0.13990175283E+02  0.77563844335E+02 -0.55537440167E+03  0.56640213738E+03  0.78477896596E+02 0.  0.
         25    2    1    2    0    0  0.13043436384E+02 -0.70695115616E+02 -0.33422579903E+02  0.14809824962E+03  0.12509233426E+03 0.  0.
         24    2    1    2    0    0  0.94673889918E+00 -0.68687287189E+01  0.10577618288E+03  0.13339547097E+03  0.80979473089E+02 0.  0.
        -11    1    5    5    0    0  0.35848664911E+02 -0.36531105288E+01  0.21113138922E+02  0.41764059041E+02  0.00000000000E+00 0.  1.
         12    1    5    5    0    0 -0.34901926012E+02 -0.32156181901E+01  0.84663043960E+02  0.91631411930E+02  0.00000000000E+00 0. -1.
         13    1    3    3    0    0  0.13852209337E+02  0.75835772788E+02 -0.30976282354E+03  0.31921145810E+03  0.00000000000E+00 0. -1.
        -14    1    3    3    0    0 -0.27842384620E+02  0.17280715471E+01 -0.24561157813E+03  0.24719067928E+03  0.00000000000E+00 0.  1.
          5    1    4    4  501    0  0.50357565464E+02 -0.86097935544E+02 -0.38908444660E+02  0.10714512761E+03  0.41800000000E+01 0.  1.
         -5    1    4    4    0  501 -0.37314129080E+02  0.15402819928E+02  0.54858647573E+01  0.40953122016E+02  0.41800000000E+01 0.  1.
</event>
<event>
11    1  0.8864208E-009  0.1343472E+03  0.7561462E-02  0.1114040E+00
         22   -1    0    0    0    0  0.00000000000E+00  0.00000000000E+00  0.11430824122E+04  0.11430824122E+04  0.00000000000E+00 0.  1.
         22   -1    0    0    0    0 -0.00000000000E+00 -0.00000000000E+00 -0.51442780506E+03  0.51442780506E+03  0.00000000000E+00 0. -1.
        -24    2    1    2    0    0 -0.16870548273E+02 -0.69960208073E+01 -0.49758874128E+03  0.50263157077E+03  0.68632213883E+02 0.  0.
         25    2    1    2    0    0  0.38704929865E+02 -0.36336205523E+02  0.40601014978E+03  0.42814788614E+03  0.12509188324E+03 0.  0.
         24    2    1    2    0    0 -0.21834381592E+02  0.43332226330E+02  0.72023319864E+03  0.72673076034E+03  0.83948290913E+02 0.  0.
        -11    1    5    5    0    0 -0.26842355877E+02  0.54992019703E+02  0.29362084233E+03  0.29992971402E+03  0.00000000000E+00 0.  1.
         12    1    5    5    0    0  0.50079742858E+01 -0.11659793373E+02  0.42661235631E+03  0.42680104633E+03  0.00000000000E+00 0. -1.
         13    1    3    3    0    0 -0.32909473782E+00 -0.35499176833E+02 -0.19050447924E+03  0.19378404596E+03  0.00000000000E+00 0. -1.
        -14    1    3    3    0    0 -0.16541453535E+02  0.28503156026E+02 -0.30708426204E+03  0.30884752481E+03  0.00000000000E+00 0.  1.
          5    1    4    4  501    0 -0.80538353519E+01 -0.72210538199E+02  0.17137677481E+03  0.18618994988E+03  0.41800000000E+01 0. -1.
         -5    1    4    4    0  501  0.46758765217E+02  0.35874332677E+02  0.23463337497E+03  0.24195793626E+03  0.41800000000E+01 0. -1.
</event>
<event>
11    1  0.8864208E-009  0.1396081E+03  0.7561462E-02  0.1107997E+00
         22   -1    0    0    0    0  0.00000000000E+00  0.00000000000E+00  0.14843187515E+04  0.14843187515E+04  0.00000000000E+00 0. -1.
         22   -1    0    0    0    0 -0.00000000000E+00 -0.00000000000E+00 -0.69079979090E+02  0.69079979090E+02  0.00000000000E+00 0.  1.
        -24    2    1    2    0    0 -0.17471173271E+02 -0.35588281238E+02 -0.20158490556E+02  0.91608062833E+02  0.80086857708E+02 0.  0.
         25    2    1    2    0    0  0.69710565415E+02  0.13196254862E+01  0.46627283685E+03  0.48776894949E+03  0.12508751079E+03 0.  0.
         24    2    1    2    0    0 -0.52239392144E+02  0.34268655752E+02  0.96912442616E+03  0.97402171832E+03  0.74919019713E+02 0.  0.
        -13    1    5    5    0    0 -0.35672123883E+02  0.16607751668E+02  0.16858771330E+03  0.17311884621E+03  0.00000000000E+00 0.  1.
         14    1    5    5    0    0 -0.16567268261E+02  0.17660904083E+02  0.80053671286E+03  0.80090287211E+03  0.00000000000E+00 0. -1.
         11    1    3    3    0    0  0.27198803326E+02 -0.25109859601E+02  0.78662391655E+01  0.37843859081E+02  0.00000000000E+00 0. -1.
        -12    1    3    3    0    0 -0.44669976596E+02 -0.10478421637E+02 -0.28024729721E+02  0.53764203752E+02  0.00000000000E+00 0.  1.
          5    1    4    4  501    0  0.19515616888E+02 -0.59816327952E+02  0.17934496474E+03  0.19010770939E+03  0.41800000000E+01 0.  1.
         -5    1    4    4    0  501  0.50194948527E+02  0.61135953438E+02  0.28692787211E+03  0.29766124009E+03  0.41800000000E+01 0.  1.
</event>
<event>
11    1  0.8864208E-009  0.1131845E+04  0.7561462E-02  0.8562821E-01
         22   -1    0    0    0    0  0.00000000000E+00  0.00000000000E+00  0.19187186500E+04  0.19187186500E+04  0.00000000000E+00 0.  1.
         22   -1    0    0    0    0 -0.00000000000E+00 -0.00000000000E+00 -0.82959686093E+03  0.82959686093E+03  0.00000000000E+00 0.  1.
         24    2    1    2    0    0 -0.23287421486E+03  0.11080434794E+04  0.23101371336E+03  0.11584494642E+04  0.81529583720E+02 0.  0.
         25    2    1    2    0    0  0.18452943735E+03 -0.11008072782E+04  0.51846290069E+03  0.12370453593E+04  0.12509861909E+03 0.  0.
        -24    2    1    2    0    0  0.48344777518E+02 -0.72362012268E+01  0.33964517505E+03  0.35282068752E+03  0.82061029041E+02 0.  0.
        -13    1    3    3    0    0 -0.20570857984E+03  0.87822597129E+03  0.15755702695E+03  0.91565336957E+03  0.00000000000E+00 0.  1.
         14    1    3    3    0    0 -0.27165635023E+02  0.22981750814E+03  0.73456686410E+02  0.24279609460E+03  0.00000000000E+00 0. -1.
         11    1    5    5    0    0  0.54351523565E+02 -0.34180034297E+02  0.27732198642E+03  0.28465742043E+03  0.00000000000E+00 0. -1.
        -12    1    5    5    0    0 -0.60067460471E+01  0.26943833070E+02  0.62323188629E+02  0.68163267083E+02  0.00000000000E+00 0.  1.
          5    1    4    4  501    0  0.82814432799E+02 -0.31037610920E+03  0.20237998754E+03  0.37969289063E+03  0.41800000000E+01 0.  1.
         -5    1    4    4    0  501  0.10171500455E+03 -0.79043116901E+03  0.31608291315E+03  0.85735246863E+03  0.41800000000E+01 0.  1.
</event>
<event>
11    1  0.8864208E-009  0.1399543E+03  0.7561462E-02  0.1107609E+00
         22   -1    0    0    0    0  0.00000000000E+00  0.00000000000E+00  0.10474130158E+04  0.10474130158E+04  0.00000000000E+00 0. -1.
         22   -1    0    0    0    0 -0.00000000000E+00 -0.00000000000E+00 -0.15735490154E+04  0.15735490154E+04  0.00000000000E+00 0. -1.
        -24    2    1    2    0    0 -0.64503756094E+01  0.63986060646E+02 -0.13699844301E+04  0.13737538306E+04  0.78780867233E+02 0.  0.
         25    2    1    2    0    0  0.25386898994E+02 -0.41724826223E+02 -0.17739634245E+03  0.22249077136E+03  0.12508886946E+03 0.  0.
         24    2    1    2    0    0 -0.18936523384E+02 -0.22261234423E+02  0.10212447729E+04  0.10247174292E+04  0.79061804482E+02 0.  0.
        -11    1    5    5    0    0  0.48137367191E+01  0.75499940241E+01  0.13188690774E+02  0.15941017386E+02  0.00000000000E+00 0.  1.
         12    1    5    5    0    0 -0.23750260103E+02 -0.29811228448E+02  0.10080560822E+04  0.10087764118E+04  0.00000000000E+00 0. -1.
         13    1    3    3    0    0  0.35504457864E+02  0.20503921370E+02 -0.50502252953E+03  0.50668405605E+03  0.00000000000E+00 0. -1.
        -14    1    3    3    0    0 -0.41954833473E+02  0.43482139276E+02 -0.86496190055E+03  0.86706977453E+03  0.00000000000E+00 0.  1.
          5    1    4    4  501    0  0.87410233508E+01 -0.10680039446E+02  0.18473167947E+02  0.23434996603E+02  0.41800000000E+01 0.  1.
         -5    1    4    4    0  501  0.16645875643E+02 -0.31044786777E+02 -0.19586951040E+03  0.19905577476E+03  0.41800000000E+01 0.  1.
</event>
<event>
11    1  0.8864208E-009  0.1359909E+03  0.7561462E-02  0.1112120E+00
         22   -1    0    0    0    0  0.00000000000E+00  0.00000000000E+00  0.16552505659E+03  0.16552505659E+03  0.00000000000E+00 0. -1.
         22   -1    0    0    0    0 -0.00000000000E+00 -0.00000000000E+00 -0.21932673085E+04  0.21932673085E+04  0.00000000000E+00 0.  1.
        -24    2    1    2    0    0 -0.55533429384E+02 -0.68986014683E+01 -0.16836989814E+04  0.16865532516E+04  0.80548481700E+02 0.  0.
         25    2    1    2    0    0  0.26803667426E+02  0.51548677427E+02 -0.48391734006E+03  0.50318875424E+03  0.12508887902E+03 0.  0.
         24    2    1    2    0    0  0.28729761958E+02 -0.44650075959E+02  0.13987406959E+03  0.16905035925E+03  0.78703494926E+02 0.  0.
        -13    1    5    5    0    0 -0.25073533346E+01 -0.87893165823E+01 -0.89620931941E+01  0.12800703932E+02  0.00000000000E+00 0.  1.
         14    1    5    5    0    0  0.31237115293E+02 -0.35860759376E+02  0.14883616278E+03  0.15624965532E+03  0.00000000000E+00 0. -1.
         11    1    3    3    0    0  0.36034729369E+01  0.15471852139E+02 -0.77555032602E+02  0.79165310002E+02  0.00000000000E+00 0. -1.
        -12    1    3    3    0    0 -0.59136902321E+02 -0.22370453607E+02 -0.16061439488E+04  0.16073879416E+04  0.00000000000E+00 0.  1.
          5    1    4    4  501    0  0.22700534428E+02 -0.25019799868E+02 -0.39319157737E+02  0.52007434217E+02  0.41800000000E+01 0.  1.
         -5    1    4    4    0  501  0.41031329975E+01  0.76568477295E+02 -0.44459818232E+03  0.45118132003E+03  0.41800000000E+01 0.  1.
</event>
<event>
11    1  0.8864208E-009  0.2015835E+03  0.7561462E-02  0.1053410E+00
         22   -1    0    0    0    0  0.00000000000E+00  0.00000000000E+00  0.71890509835E+03  0.71890509835E+03  0.00000000000E+00 0.  1.
         22   -1    0    0    0    0 -0.00000000000E+00 -0.00000000000E+00 -0.17631312299E+03  0.17631312299E+03  0.00000000000E+00 0.  1.
         24    2    1    2    0    0  0.16202455765E+03  0.31639818135E+02 -0.67817438882E+02  0.19583141576E+03  0.80608330871E+02 0.  0.
         25    2    1    2    0    0 -0.13364083541E+03 -0.20277920218E+02  0.16981014216E+03  0.25050674689E+03  0.12508828451E+03 0.  0.
        -24    2    1    2    0    0 -0.28383722248E+02 -0.11361897916E+02  0.44059927208E+03  0.44888005869E+03  0.80192643756E+02 0.  0.
        -13    1    3    3    0    0  0.17123066402E+03  0.32734293580E+02 -0.65852260065E+02  0.18635448594E+03  0.00000000000E+00 0.  1.
         14    1    3    3    0    0 -0.92061063630E+01 -0.10944754452E+01 -0.19651788173E+01  0.94769298114E+01  0.00000000000E+00 0. -1.
         13    1    5    5    0    0 -0.18507616617E+02  0.34326637929E+02  0.19071711082E+03  0.19466346936E+03  0.00000000000E+00 0. -1.
        -14    1    5    5    0    0 -0.98761056310E+01 -0.45688535845E+02  0.24988216126E+03  0.25421658932E+03  0.00000000000E+00 0.  1.
          5    1    4    4  501    0 -0.15373994772E+03 -0.31184464369E+02  0.16304617172E+03  0.22629619718E+03  0.41800000000E+01 0. -1.
         -5    1    4    4    0  501  0.20099112318E+02  0.10906544150E+02  0.67639704339E+01  0.24210549711E+02  0.41800000000E+01 0. -1.
</event>
<event>
11    1  0.8864208E-009  0.1863045E+03  0.7561462E-02  0.1064654E+00
         22   -1    0    0    0    0  0.00000000000E+00  0.00000000000E+00  0.82278473760E+03  0.82278473760E+03  0.00000000000E+00 0.  1.
         22   -1    0    0    0    0 -0.00000000000E+00 -0.00000000000E+00 -0.27310166076E+03  0.27310166076E+03  0.00000000000E+00 0. -1.
         24    2    1    2    0    0 -0.60980071149E+02 -0.11276795684E+03 -0.16431760555E+03  0.22539788306E+03  0.85841417908E+02 0.  0.
         25    2    1    2    0    0  0.65639430503E+02  0.19284507117E+03  0.12330319677E+03  0.26897777607E+03  0.12509040481E+03 0.  0.
        -24    2    1    2    0    0 -0.46593593543E+01 -0.80077114330E+02  0.59069748561E+03  0.60151073923E+03  0.80359168937E+02 0.  0.
        -11    1    3    3    0    0 -0.38809823790E+02 -0.77450537769E+02 -0.42209766033E+02  0.96366241869E+02  0.00000000000E+00 0.  1.
         12    1    3    3    0    0 -0.22170247359E+02 -0.35317419067E+02 -0.12210783951E+03  0.12903164119E+03  0.00000000000E+00 0. -1.
         13    1    5    5    0    0  0.30766008796E+02 -0.23120651009E+02  0.33341109531E+03  0.33562489520E+03  0.00000000000E+00 0. -1.
        -14    1    5    5    0    0 -0.35425368150E+02 -0.56956463321E+02  0.25728639030E+03  0.26588584403E+03  0.00000000000E+00 0.  1.
          5    1    4    4  501    0 -0.68563540189E+01  0.33404287712E+02 -0.22481212831E+02  0.41057683305E+02  0.41800000000E+01 0. -1.
         -5    1    4    4    0  501  0.72495784522E+02  0.15944078345E+03  0.14578440960E+03  0.22792009276E+03  0.41800000000E+01 0. -1.
</event>
<event>
11    1  0.8864208E-009  0.1349064E+03  0.7561462E-02  0.1113383E+00
         22   -1    0    0    0    0  0.00000000000E+00  0.00000000000E+00  0.21580085883E+04  0.21580085883E+04  0.00000000000E+00 0.  1.
         22   -1    0    0    0    0 -0.00000000000E+00 -0.00000000000E+00 -0.96047104671E+03  0.96047104671E+03  0.00000000000E+00 0. -1.
        -24    2    1    2    0    0  0.13450284194E+02 -0.19420568500E+00 -0.91745264651E+03  0.92108745517E+03  0.80633700339E+02 0.  0.
         25    2    1    2    0    0 -0.63246324581E+02 -0.59431791336E+01  0.82524414853E+02  0.16276658887E+03  0.12508902611E+03 0.  0.
         24    2    1    2    0    0  0.49796040387E+02  0.61373848186E+01  0.20324657733E+04  0.20346255910E+04  0.79163519747E+02 0.  0.
        -11    1    5    5    0    0 -0.77486521438E+00  0.13470671258E+01  0.14359557875E+04  0.14359566284E+04  0.00000000000E+00 0.  1.
         12    1    5    5    0    0  0.50570905602E+02  0.47903176928E+01  0.59650998583E+03  0.59866896264E+03  0.00000000000E+00 0. -1.
         11    1    3    3    0    0 -0.21345700530E+02  0.24857131832E+02 -0.57955620059E+03  0.58048161520E+03  0.00000000000E+00 0. -1.
        -12    1    3    3    0    0  0.34795984725E+02 -0.25051337517E+02 -0.33789644592E+03  0.34060583998E+03  0.00000000000E+00 0.  1.
          5    1    4    4  501    0 -0.95112042567E+02  0.12180228875E+02  0.81405591836E+02  0.12585309451E+03  0.41800000000E+01 0.  1.
         -5    1    4    4    0  501  0.31865717986E+02 -0.18123408009E+02  0.11188230167E+01  0.36913494355E+02  0.41800000000E+01 0.  1.
</event>
<event>
11    1  0.8864208E-009  0.1721498E+03  0.7561462E-02  0.1076176E+00
         22   -1    0    0    0    0  0.00000000000E+00  0.00000000000E+00  0.15719416003E+04  0.15719416003E+04  0.00000000000E+00 0. -1.
         22   -1    0    0    0    0 -0.00000000000E+00 -0.00000000000E+00 -0.93892454400E+02  0.93892454400E+02  0.00000000000E+00 0.  1.
         24    2    1    2    0    0  0.18214956897E+02 -0.11842763166E+03 -0.23326124826E+02  0.14514157159E+03  0.78518017728E+02 0.  0.
         25    2    1    2    0    0 -0.41282327015E+02  0.85936203652E+02  0.10521337399E+04  0.10638241364E+04  0.12508846890E+03 0.  0.
        -24    2    1    2    0    0  0.23067370118E+02  0.32491428010E+02  0.44924153088E+03  0.45686834671E+03  0.72958458713E+02 0.  0.
        -11    1    3    3    0    0 -0.21555916449E+02 -0.92773066875E+02 -0.22216583198E+02  0.97801206743E+02  0.00000000000E+00 0.  1.
         12    1    3    3    0    0  0.39770873346E+02 -0.25654564787E+02 -0.11095416278E+01  0.47340364845E+02  0.00000000000E+00 0. -1.
         11    1    5    5    0    0  0.41853683263E+02 -0.12777877584E+00  0.30222550211E+03  0.30510981836E+03  0.00000000000E+00 0. -1.
        -12    1    5    5    0    0 -0.18786313145E+02  0.32619206786E+02  0.14701602877E+03  0.15175852835E+03  0.00000000000E+00 0.  1.
          5    1    4    4  501    0  0.24401502253E+02 -0.20205808287E+02  0.18434153767E+03  0.18709084133E+03  0.41800000000E+01 0.  1.
         -5    1    4    4    0  501 -0.65683829268E+02  0.10614201194E+03  0.86779220219E+03  0.87673329508E+03  0.41800000000E+01 0.  1.
</event>
<event>
11    1  0.8864208E-009  0.1791669E+03  0.7561462E-02  0.1070319E+00
         22   -1    0    0    0    0  0.00000000000E+00  0.00000000000E+00  0.15232900210E+04  0.15232900210E+04  0.00000000000E+00 0. -1.
         22   -1    0    0    0    0 -0.00000000000E+00 -0.00000000000E+00 -0.96375460209E+03  0.96375460209E+03  0.00000000000E+00 0. -1.
         24    2    1    2    0    0 -0.25106898205E+02 -0.13209525399E+03 -0.75422284232E+03  0.77038795723E+03  0.81030835482E+02 0.  0.
         25    2    1    2    0    0  0.44044876706E+02  0.95648073222E+02 -0.16660737464E+03  0.23343948475E+03  0.12508985043E+03 0.  0.
        -24    2    1    2    0    0 -0.18937978500E+02  0.36447180772E+02  0.14803656359E+04  0.14832171811E+04  0.82241999226E+02 0.  0.
        -13    1    3    3    0    0 -0.19833493018E+02  0.35264686920E+01 -0.13253595203E+03  0.13405812921E+03  0.00000000000E+00 0.  1.
         14    1    3    3    0    0 -0.52734051868E+01 -0.13562172269E+03 -0.62168689028E+03  0.63632982801E+03  0.00000000000E+00 0. -1.
         11    1    5    5    0    0  0.18277477507E+02 -0.88799069215E+01  0.82018077499E+03  0.82043246071E+03  0.00000000000E+00 0. -1.
        -12    1    5    5    0    0 -0.37215456007E+02  0.45327087694E+02  0.66018486092E+03  0.66278472043E+03  0.00000000000E+00 0.  1.
          5    1    4    4  501    0  0.39576267161E+02 -0.87608433357E+00 -0.11931187948E+03  0.12577696701E+03  0.41800000000E+01 0.  1.
         -5    1    4    4    0  501  0.44686095443E+01  0.96524157555E+02 -0.47295495165E+02  0.10766251774E+03  0.41800000000E+01 0.  1.
</event>
<event>
11    1  0.8864208E-009  0.1561351E+03  0.7561462E-02  0.1090770E+00
         22   -1    0    0    0    0  0.00000000000E+00  0.00000000000E+00  0.85307370142E+02  0.85307370142E+02  0.00000000000E+00 0.  1.
         22   -1    0    0    0    0 -0.00000000000E+00 -0.00000000000E+00 -0.17113423264E+04  0.17113423264E+04  0.00000000000E+00 0. -1.
        -24    2    1    2    0    0 -0.33982069373E+02  0.31067113199E+02 -0.11997206481E+04  0.12032900852E+04  0.80358254481E+02 0.  0.
         25    2    1    2    0    0  0.10295329458E+03 -0.86628741157E+02 -0.43722028545E+03  0.47424876776E+03  0.12508555492E+03 0.  0.
         24    2    1    2    0    0 -0.68971225203E+02  0.55561627958E+02  0.10905977310E+02  0.11911084358E+03  0.78894412419E+02 0.  0.
        -13    1    5    5    0    0 -0.83245048364E+02  0.59912092352E+02  0.39293327206E+01  0.10263837753E+03  0.00000000000E+00 0.  1.
         14    1    5    5    0    0  0.14273823161E+02 -0.43504643939E+01  0.69766445892E+01  0.16472466051E+02  0.00000000000E+00 0. -1.
         13    1    3    3    0    0 -0.36909553524E+02  0.17605409491E+02 -0.11678948950E+04  0.11686106072E+04  0.00000000000E+00 0. -1.
        -14    1    3    3    0    0  0.29274841515E+01  0.13461703708E+02 -0.31825753107E+02  0.34679477952E+02  0.00000000000E+00 0.  1.
          5    1    4    4  501    0  0.18097118901E+02  0.16718360636E+02 -0.20283775027E+03  0.20437131557E+03  0.41800000000E+01 0.  1.
         -5    1    4    4    0  501  0.84856175675E+02 -0.10334710179E+03 -0.23438253518E+03  0.26987745218E+03  0.41800000000E+01 0.  1.
</event>
<event>
11    1  0.8864208E-009  0.1304446E+03  0.7561462E-02  0.1118724E+00
         22   -1    0    0    0    0  0.00000000000E+00  0.00000000000E+00  0.76537554966E+02  0.76537554966E+02  0.00000000000E+00 0.  1.
         22   -1    0    0    0    0 -0.00000000000E+00 -0.00000000000E+00 -0.88798678385E+03  0.88798678385E+03  0.00000000000E+00 0.  1.
        -24    2    1    2    0    0 -0.41802493331E+02 -0.35839087015E+01 -0.59927642451E+03  0.60593420463E+03  0.79143758577E+02 0.  0.
         25    2    1    2    0    0  0.97445088098E+01  0.23176065139E+02 -0.23629820442E+03  0.26854740214E+03  0.12509508517E+03 0.  0.
         24    2    1    2    0    0  0.32057984521E+02 -0.19592156437E+02  0.24125400050E+02  0.90042732046E+02  0.78192657592E+02 0.  0.
        -13    1    5    5    0    0  0.16440086248E+02 -0.31388033668E+02  0.47688667035E+02  0.59411228375E+02  0.00000000000E+00 0.  1.
         14    1    5    5    0    0  0.15617898273E+02  0.11795877231E+02 -0.23563266986E+02  0.30631503671E+02  0.00000000000E+00 0. -1.
         11    1    3    3    0    0  0.20173974707E+02 -0.84726829001E+01 -0.79609632293E+02  0.82561911102E+02  0.00000000000E+00 0. -1.
        -12    1    3    3    0    0 -0.61976468038E+02  0.48887741986E+01 -0.51966679222E+03  0.52337229353E+03  0.00000000000E+00 0.  1.
          5    1    4    4  501    0  0.21027021574E+02  0.51803611777E+02 -0.23016432329E+03  0.23689414925E+03  0.41800000000E+01 0.  1.
         -5    1    4    4    0  501 -0.11282512765E+02 -0.28627546638E+02 -0.61338811301E+01  0.31653252890E+02  0.41800000000E+01 0.  1.
</event>
<event>
11    1  0.8864208E-009  0.1270928E+03  0.7561462E-02  0.1122893E+00
         22   -1    0    0    0    0  0.00000000000E+00  0.00000000000E+00  0.14217124735E+03  0.14217124735E+03  0.00000000000E+00 0.  1.
         22   -1    0    0    0    0 -0.00000000000E+00 -0.00000000000E+00 -0.13606450939E+04  0.13606450939E+04  0.00000000000E+00 0.  1.
        -24    2    1    2    0    0  0.31327154372E+02  0.39461887357E+01 -0.96539617986E+03  0.96927274950E+03  0.80640658593E+02 0.  0.
         25    2    1    2    0    0 -0.52287738693E+02 -0.53624008741E+01 -0.36312102070E+03  0.38764472805E+03  0.12509514998E+03 0.  0.
         24    2    1    2    0    0  0.20960584321E+02  0.14162121384E+01  0.11004335397E+03  0.14589886375E+03  0.93464361868E+02 0.  0.
        -11    1    5    5    0    0  0.17288588151E+02 -0.13813233826E+01  0.12707479824E+03  0.12825290516E+03  0.00000000000E+00 0.  1.
         12    1    5    5    0    0  0.36719961696E+01  0.27975355210E+01 -0.17031444268E+02  0.17645958594E+02  0.00000000000E+00 0. -1.
         11    1    3    3    0    0  0.39386243510E+02 -0.61830442448E+01 -0.20916215159E+03  0.21292794995E+03  0.00000000000E+00 0. -1.
        -12    1    3    3    0    0 -0.80590891376E+01  0.10129232980E+02 -0.75623402827E+03  0.75634479954E+03  0.00000000000E+00 0.  1.
          5    1    4    4  501    0  0.11048786014E+02  0.17609051876E+02 -0.27892453298E+03  0.27972937257E+03  0.41800000000E+01 0.  1.
         -5    1    4    4    0  501 -0.63336524707E+02 -0.22971452750E+02 -0.84196487724E+02  0.10791535548E+03  0.41800000000E+01 0.  1.
</event>
<event>
11    1  0.8864208E-009  0.1796141E+03  0.7561462E-02  0.1069955E+00
         22   -1    0    0    0    0  0.00000000000E+00  0.00000000000E+00  0.20339044163E+03  0.20339044163E+03  0.00000000000E+00 0.  1.
         22   -1    0    0    0    0 -0.00000000000E+00 -0.00000000000E+00 -0.10089467328E+04  0.10089467328E+04  0.00000000000E+00 0.  1.
         24    2    1    2    0    0  0.47801002816E+02 -0.22416391732E+02 -0.62703917316E+03  0.63461118097E+03  0.82254457954E+02 0.  0.
         25    2    1    2    0    0  0.78073583295E+02 -0.21870464739E+02 -0.32930412845E+03  0.36147367914E+03  0.12509280579E+03 0.  0.
        -24    2    1    2    0    0 -0.12587458611E+03  0.44286856471E+02  0.15078701045E+03  0.21625231431E+03  0.78883482672E+02 0.  0.
        -11    1    3    3    0    0  0.31532557732E+02  0.28316869246E+02 -0.21457624226E+03  0.21872153763E+03  0.00000000000E+00 0.  1.
         12    1    3    3    0    0  0.16268445084E+02 -0.50733260978E+02 -0.41246293090E+03  0.41588964335E+03  0.00000000000E+00 0. -1.
         11    1    5    5    0    0 -0.73713841984E+02  0.49926061680E+02  0.48715304248E+02  0.10148656563E+03  0.00000000000E+00 0. -1.
        -12    1    5    5    0    0 -0.52160744127E+02 -0.56392052093E+01  0.10207170620E+03  0.11476574868E+03  0.00000000000E+00 0.  1.
          5    1    4    4  501    0  0.78543849955E+02 -0.33577907078E+02 -0.33643488964E+03  0.34713472827E+03  0.41800000000E+01 0.  1.
         -5    1    4    4    0  501 -0.47026666000E+00  0.11707442339E+02  0.71307611846E+01  0.14338950866E+02  0.41800000000E+01 0.  1.
</event>
<event>
11    1  0.8864208E-009  0.1402421E+03  0.7561462E-02  0.1107288E+00
         22   -1    0    0    0    0  0.00000000000E+00  0.00000000000E+00  0.23597944806E+04  0.23597944806E+04  0.00000000000E+00 0.  1.
         22   -1    0    0    0    0 -0.00000000000E+00 -0.00000000000E+00 -0.16705337653E+04  0.16705337653E+04  0.00000000000E+00 0. -1.
         24    2    1    2    0    0  0.73668556046E+01  0.62919971512E+02 -0.16539978667E+04  0.16571301475E+04  0.79738253547E+02 0.  0.
         25    2    1    2    0    0 -0.50008810984E+02 -0.70074016064E+02  0.40053595680E+03  0.42835634937E+03  0.12509540541E+03 0.  0.
        -24    2    1    2    0    0  0.42641955379E+02  0.71540445521E+01  0.19427226252E+04  0.19448417491E+04  0.79804222215E+02 0.  0.
        -13    1    3    3    0    0  0.67180032394E+01  0.37164122403E+01 -0.13244118963E+02  0.15308493544E+02  0.00000000000E+00 0.  1.
         14    1    3    3    0    0  0.64885236523E+00  0.59203559272E+02 -0.16407537478E+04  0.16418216539E+04  0.00000000000E+00 0. -1.
         11    1    5    5    0    0 -0.16668067719E+02  0.23859412375E+02  0.65119576401E+03  0.65184585532E+03  0.00000000000E+00 0. -1.
        -12    1    5    5    0    0  0.59310023098E+02 -0.16705367822E+02  0.12915268612E+04  0.12929958938E+04  0.00000000000E+00 0.  1.
          5    1    4    4  501    0 -0.44298052864E+02 -0.45399575700E+02  0.39745088539E+03  0.40250232007E+03  0.41800000000E+01 0.  1.
         -5    1    4    4    0  501 -0.57107581201E+01 -0.24674440364E+02  0.30850714047E+01  0.25854029302E+02  0.41800000000E+01 0.  1.
</event>
<event>
11    1  0.8864208E-009  0.1611313E+03  0.7561462E-02  0.1086018E+00
         22   -1    0    0    0    0  0.00000000000E+00  0.00000000000E+00  0.90732133142E+03  0.90732133142E+03  0.00000000000E+00 0.  1.
         22   -1    0    0    0    0 -0.00000000000E+00 -0.00000000000E+00 -0.59728092693E+03  0.59728092693E+03  0.00000000000E+00 0.  1.
         24    2    1    2    0    0 -0.79858738209E+02 -0.63323285760E+02 -0.57458257486E+03  0.58914593372E+03  0.80997156053E+02 0.  0.
         25    2    1    2    0    0  0.44841940482E+02  0.67221695722E+02  0.51103245713E+03  0.53228724767E+03  0.12508391498E+03 0.  0.
        -24    2    1    2    0    0  0.35016797727E+02 -0.38984099619E+01  0.37359052222E+03  0.38316907696E+03  0.77506706316E+02 0.  0.
        -11    1    3    3    0    0 -0.80108264454E+02 -0.17684085504E+02 -0.31083032910E+03  0.32147403379E+03  0.00000000000E+00 0.  1.
         12    1    3    3    0    0  0.24952624512E+00 -0.45639200256E+02 -0.26375224576E+03  0.26767189992E+03  0.00000000000E+00 0. -1.
         11    1    5    5    0    0  0.31834604059E+02  0.24476035985E+02  0.95260022329E+02  0.10337789999E+03  0.00000000000E+00 0. -1.
        -12    1    5    5    0    0  0.31821936683E+01 -0.28374445947E+02  0.27833049989E+03  0.27979117697E+03  0.00000000000E+00 0.  1.
          5    1    4    4  501    0 -0.14486739984E+02 -0.12965524122E+02  0.27874809382E+03  0.27945651301E+03  0.41800000000E+01 0.  1.
         -5    1    4    4    0  501  0.59328680466E+02  0.80187219844E+02  0.23228436331E+03  0.25283073466E+03  0.41800000000E+01 0.  1.
</event>
<event>
11    1  0.8864208E-009  0.1875964E+03  0.7561462E-02  0.1063659E+00
         22   -1    0    0    0    0  0.00000000000E+00  0.00000000000E+00  0.22515288284E+03  0.22515288284E+03  0.00000000000E+00 0.  1.
         22   -1    0    0    0    0 -0.00000000000E+00 -0.00000000000E+00 -0.28089816624E+03  0.28089816624E+03  0.00000000000E+00 0. -1.
         24    2    1    2    0    0 -0.14577062080E+03  0.61204226437E+02 -0.14698681140E+03  0.23002006869E+03  0.79429705098E+02 0.  0.
         25    2    1    2    0    0  0.88257914317E+02 -0.25160110475E+02  0.55637362566E+02  0.16481853115E+03  0.12508853464E+03 0.  0.
        -24    2    1    2    0    0  0.57512706480E+02 -0.36044115962E+02  0.35604165430E+02  0.11121244924E+03  0.80583264811E+02 0.  0.
        -11    1    3    3    0    0 -0.87763862601E+01  0.36218094434E+02 -0.24839303867E+02  0.44785782753E+02  0.00000000000E+00 0.  1.
         12    1    3    3    0    0 -0.13699423454E+03  0.24986132003E+02 -0.12214750754E+03  0.18523428594E+03  0.00000000000E+00 0. -1.
         13    1    5    5    0    0 -0.12386922008E+02  0.13931245172E+02  0.12877976391E+01  0.18686194145E+02  0.00000000000E+00 0. -1.
        -14    1    5    5    0    0  0.69899628489E+02 -0.49975361134E+02  0.34316367791E+02  0.92526255093E+02  0.00000000000E+00 0.  1.
          5    1    4    4  501    0  0.71843492407E+02  0.28625007161E+02 -0.10217581633E+02  0.78120098635E+02  0.41800000000E+01 0.  1.
         -5    1    4    4    0  501  0.16414421910E+02 -0.53785117636E+02  0.65854944198E+02  0.86698432518E+02  0.41800000000E+01 0.  1.
</event>
<event>
11    1  0.1101774E-008  0.1583313E+03  0.7561462E-02  0.1088657E+00
         22   -1    0    0    0    0  0.00000000000E+00  0.00000000000E+00  0.70915185139E+03  0.70915185139E+03  0.00000000000E+00 0. -1.
         22   -1    0    0    0    0 -0.00000000000E+00 -0.00000000000E+00 -0.62487760473E+03  0.62487760473E+03  0.00000000000E+00 0.  1.
        -24    2    1    2    0    0  0.21300577213E+02 -0.90699724854E+02 -0.51289056919E+03  0.52727217772E+03  0.79240512084E+02 0.  0.
         25    2    1    2    0    0  0.86668997895E+01  0.15739169259E+03  0.13496689138E+01  0.20123860770E+03  0.12509154878E+03 0.  0.
         24    2    1    2    0    0 -0.29967477002E+02 -0.66691967731E+02  0.59581514694E+03  0.60551867070E+03  0.79443709638E+02 0.  0.
        -11    1    5    5    0    0 -0.27209324220E+01 -0.27805951028E+02  0.47173291722E+02  0.54826032482E+02  0.00000000000E+00 0.  1.
         12    1    5    5    0    0 -0.27246544580E+02 -0.38886016703E+02  0.54864185522E+03  0.55069263822E+03  0.00000000000E+00 0. -1.
         11    1    3    3    0    0  0.10010599439E+02 -0.32432898722E+02 -0.49044690766E+02  0.59644670449E+02  0.00000000000E+00 0. -1.
        -12    1    3    3    0    0  0.11289977774E+02 -0.58266826132E+02 -0.46384587842E+03  0.46762750727E+03  0.00000000000E+00 0.  1.
          5    1    4    4  501    0  0.43645284852E+02  0.15997550129E+03 -0.35780107274E+00  0.16587547234E+03  0.41800000000E+01 0. -1.
         -5    1    4    4    0  501 -0.34978385062E+02 -0.25838087016E+01  0.17074699865E+01  0.35363135363E+02  0.41800000000E+01 0. -1.
</event>
<event>
11    1  0.8864208E-009  0.1692134E+03  0.7561462E-02  0.1078718E+00
         22   -1    0    0    0    0  0.00000000000E+00  0.00000000000E+00  0.10788206495E+04  0.10788206495E+04  0.00000000000E+00 0.  1.
         22   -1    0    0    0    0 -0.00000000000E+00 -0.00000000000E+00 -0.81088495728E+03  0.81088495728E+03  0.00000000000E+00 0. -1.
         24    2    1    2    0    0  0.18111351521E+00  0.40901135544E+02 -0.67736339026E+03  0.68319819162E+03  0.79155990813E+02 0.  0.
         25    2    1    2    0    0 -0.38832931808E+02 -0.14661586657E+03 -0.49091855636E+02  0.20263568641E+03  0.12508797782E+03 0.  0.
        -24    2    1    2    0    0  0.38651818293E+02  0.10571473103E+03  0.99439093812E+03  0.10038717287E+04  0.79218322120E+02 0.  0.
        -13    1    3    3    0    0  0.47415664879E+01  0.31554177239E+02 -0.85764819568E+02  0.91508211814E+02  0.00000000000E+00 0.  1.
         14    1    3    3    0    0 -0.45604529727E+01  0.93469583053E+01 -0.59159857069E+03  0.59168997981E+03  0.00000000000E+00 0. -1.
         11    1    5    5    0    0  0.78306761874E+01 -0.77829777091E+01  0.24456385824E+02  0.26832984164E+02  0.00000000000E+00 0. -1.
        -12    1    5    5    0    0  0.30821142106E+02  0.11349770874E+03  0.96993455229E+03  0.97703874458E+03  0.00000000000E+00 0.  1.
          5    1    4    4  501    0 -0.62122330548E+02 -0.46682090975E+02  0.18118329536E+02  0.79900862547E+02  0.41800000000E+01 0. -1.
         -5    1    4    4    0  501  0.23289398740E+02 -0.99933775596E+02 -0.67210185171E+02  0.12273482387E+03  0.41800000000E+01 0. -1.
</event>
<event>
11    1  0.8864208E-009  0.1450969E+03  0.7561462E-02  0.1101997E+00
         22   -1    0    0    0    0  0.00000000000E+00  0.00000000000E+00  0.89721049963E+03  0.89721049963E+03  0.00000000000E+00 0.  1.
         22   -1    0    0    0    0 -0.00000000000E+00 -0.00000000000E+00 -0.91164626257E+02  0.91164626257E+02  0.00000000000E+00 0.  1.
        -24    2    1    2    0    0  0.14663376508E+02  0.43218604642E+02 -0.26195925899E+02  0.96482970480E+02  0.80869491535E+02 0.  0.
         25    2    1    2    0    0  0.51929305843E+02 -0.11865766656E+01  0.15580554146E+03  0.20644911355E+03  0.12509120259E+03 0.  0.
         24    2    1    2    0    0 -0.66592682350E+02 -0.42032027976E+02  0.67643625781E+03  0.68544304186E+03  0.77877313984E+02 0.  0.
        -13    1    5    5    0    0 -0.23912527627E+02 -0.31951607042E+02  0.55317630750E+03  0.55461404719E+03  0.00000000000E+00 0.  1.
         14    1    5    5    0    0 -0.42680154724E+02 -0.10080420935E+02  0.12325995032E+03  0.13082899467E+03  0.00000000000E+00 0. -1.
         13    1    3    3    0    0 -0.26020361120E+01 -0.22620986463E+02  0.18940510249E+01  0.22848786615E+02  0.00000000000E+00 0. -1.
        -14    1    3    3    0    0  0.17265412620E+02  0.65839591105E+02 -0.28089976924E+02  0.73634183865E+02  0.00000000000E+00 0.  1.
          5    1    4    4  501    0  0.50954660717E+02 -0.10246906208E+02  0.17618401697E+03  0.18373801123E+03  0.41800000000E+01 0.  1.
         -5    1    4    4    0  501  0.97464512596E+00  0.90603295424E+01 -0.20378475507E+02  0.22711102319E+02  0.41800000000E+01 0.  1.
</event>
<event>
11    1  0.8864208E-009  0.1595962E+03  0.7561462E-02  0.1087458E+00
         22   -1    0    0    0    0  0.00000000000E+00  0.00000000000E+00  0.86681852151E+03  0.86681852151E+03  0.00000000000E+00 0. -1.
         22   -1    0    0    0    0 -0.00000000000E+00 -0.00000000000E+00 -0.49329087600E+03  0.49329087600E+03  0.00000000000E+00 0. -1.
        -24    2    1    2    0    0 -0.34700086322E+02 -0.12144486517E+03 -0.35087763923E+03  0.38151621459E+03  0.80539139655E+02 0.  0.
         25    2    1    2    0    0  0.28223454631E+02  0.29269845900E+02 -0.87172887385E+02  0.15779372874E+03  0.12508581560E+03 0.  0.
         24    2    1    2    0    0  0.64766316911E+01  0.92175019268E+02  0.81157817213E+03  0.82079945418E+03  0.80712041058E+02 0.  0.
        -11    1    5    5    0    0  0.32421060955E+02  0.79867354293E+01  0.27795577554E+03  0.27995415033E+03  0.00000000000E+00 0.  1.
         12    1    5    5    0    0 -0.25944429264E+02  0.84188283839E+02  0.53362239659E+03  0.54084530384E+03  0.00000000000E+00 0. -1.
         11    1    3    3    0    0 -0.14113130948E+02 -0.12754632046E+03 -0.30000945479E+03  0.32630188061E+03  0.00000000000E+00 0. -1.
        -12    1    3    3    0    0 -0.20586955374E+02  0.61014552917E+01 -0.50868184441E+02  0.55214333977E+02  0.00000000000E+00 0.  1.
          5    1    4    4  501    0  0.17596775448E+02  0.61896290559E+02 -0.50494513425E+00  0.64486623890E+02  0.41800000000E+01 0.  1.
         -5    1    4    4    0  501  0.10626679183E+02 -0.32626444659E+02 -0.86667942251E+02  0.93307104850E+02  0.41800000000E+01 0.  1.
</event>
<event>
11    1  0.8864208E-009  0.1302964E+03  0.7561462E-02  0.1118905E+00
         22   -1    0    0    0    0  0.00000000000E+00  0.00000000000E+00  0.75419853724E+03  0.75419853724E+03  0.00000000000E+00 0. -1.
         22   -1    0    0    0    0 -0.00000000000E+00 -0.00000000000E+00 -0.12184848233E+03  0.12184848233E+03  0.00000000000E+00 0.  1.
        -24    2    1    2    0    0 -0.73448825446E+01  0.20191648719E+01 -0.84733493123E+02  0.11807650744E+03  0.81879621548E+02 0.  0.
         25    2    1    2    0    0 -0.29406207069E+02  0.74696778166E+01  0.23523653776E+03  0.26814882631E+03  0.12508814194E+03 0.  0.
         24    2    1    2    0    0  0.36751089614E+02 -0.94888426885E+01  0.48184701028E+03  0.48982168582E+03  0.79423308081E+02 0.  0.
        -13    1    5    5    0    0 -0.10316230316E+01 -0.31249674480E+02  0.84669709363E+02  0.90258329725E+02  0.00000000000E+00 0.  1.
         14    1    5    5    0    0  0.37782712645E+02  0.21760831791E+02  0.39717730091E+03  0.39956335610E+03  0.00000000000E+00 0. -1.
         13    1    3    3    0    0  0.16247237882E+02  0.32028856495E+02 -0.15708365614E+02  0.39199147152E+02  0.00000000000E+00 0. -1.
        -14    1    3    3    0    0 -0.23592120427E+02 -0.30009691623E+02 -0.69025127510E+02  0.78877360283E+02  0.00000000000E+00 0.  1.
          5    1    4    4  501    0  0.49094496721E+02  0.81982299079E+01  0.85140592136E+02  0.98711060227E+02  0.41800000000E+01 0. -1.
         -5    1    4    4    0  501 -0.78500703790E+02 -0.72855209130E+00  0.15009594562E+03  0.16943776608E+03  0.41800000000E+01 0. -1.
</event>
<event>
11    1  0.8864208E-009  0.1797249E+03  0.7561462E-02  0.1069866E+00
         22   -1    0    0    0    0  0.00000000000E+00  0.00000000000E+00  0.62596325937E+03  0.62596325937E+03  0.00000000000E+00 0.  1.
         22   -1    0    0    0    0 -0.00000000000E+00 -0.00000000000E+00 -0.11285901401E+04  0.11285901401E+04  0.00000000000E+00 0.  1.
         24    2    1    2    0    0  0.91946094757E+02  0.66376692655E+02 -0.91342737209E+03  0.92396315746E+03  0.80612670141E+02 0.  0.
         25    2    1    2    0    0 -0.16993828649E+03 -0.16238112540E+03 -0.11086909442E+03  0.28842085690E+03  0.12509190020E+03 0.  0.
        -24    2    1    2    0    0  0.77992191729E+02  0.96004432750E+02  0.52166958578E+03  0.54216938511E+03  0.80677458703E+02 0.  0.
        -11    1    3    3    0    0  0.81801029721E+02  0.12220372773E+02 -0.60887187989E+03  0.61446375979E+03  0.00000000000E+00 0.  1.
         12    1    3    3    0    0  0.10145065035E+02  0.54156319881E+02 -0.30455549220E+03  0.30949939767E+03  0.00000000000E+00 0. -1.
         13    1    5    5    0    0  0.68139024531E+02  0.25661752319E+02  0.20251532624E+03  0.21520666708E+03  0.00000000000E+00 0. -1.
        -14    1    5    5    0    0  0.98531671973E+01  0.70342680431E+02  0.31915425954E+03  0.32696271803E+03  0.00000000000E+00 0.  1.
          5    1    4    4  501    0 -0.16483162009E+03 -0.83703854730E+02 -0.59600616478E+02  0.19428202223E+03  0.41800000000E+01 0.  1.
         -5    1    4    4    0  501 -0.51066663976E+01 -0.78677270675E+02 -0.51268477943E+02  0.94138834671E+02  0.41800000000E+01 0.  1.
</event>
<event>
11    1  0.8864208E-009  0.2595408E+03  0.7561462E-02  0.1018936E+00
         22   -1    0    0    0    0  0.00000000000E+00  0.00000000000E+00  0.21121231166E+04  0.21121231166E+04  0.00000000000E+00 0. -1.
         22   -1    0    0    0    0 -0.00000000000E+00 -0.00000000000E+00 -0.71474477283E+03  0.71474477283E+03  0.00000000000E+00 0. -1.
        -24    2    1    2    0    0  0.22961634140E+03 -0.99296689753E+01 -0.64858419974E+03  0.69204134628E+03  0.73739394150E+02 0.  0.
         25    2    1    2    0    0 -0.17763420775E+03  0.12593174731E+03  0.34322430069E+03  0.42527977764E+03  0.12508897612E+03 0.  0.
         24    2    1    2    0    0 -0.51982133654E+02 -0.11600207833E+03  0.17027382429E+04  0.17095467655E+04  0.84107047788E+02 0.  0.
        -11    1    5    5    0    0 -0.37936943098E+02 -0.48962745068E+02  0.37818942485E+03  0.38322813457E+03  0.00000000000E+00 0.  1.
         12    1    5    5    0    0 -0.14045190556E+02 -0.67039333265E+02  0.13245488180E+04  0.13263186310E+04  0.00000000000E+00 0. -1.
         11    1    3    3    0    0  0.19318697168E+03  0.19953695069E+02 -0.52674587628E+03  0.56140945321E+03  0.00000000000E+00 0. -1.
        -12    1    3    3    0    0  0.36429369718E+02 -0.29883364044E+02 -0.12183832346E+03  0.13063189307E+03  0.00000000000E+00 0.  1.
          5    1    4    4  501    0 -0.62705436175E+02 -0.12643549323E+02  0.13855205947E+03  0.15266295113E+03  0.41800000000E+01 0.  1.
         -5    1    4    4    0  501 -0.11492877157E+03  0.13857529663E+03  0.20467224122E+03  0.27261682651E+03  0.41800000000E+01 0.  1.
</event>
<event>
11    1  0.8864208E-009  0.1446960E+03  0.7561462E-02  0.1102425E+00
         22   -1    0    0    0    0  0.00000000000E+00  0.00000000000E+00  0.95648194351E+03  0.95648194351E+03  0.00000000000E+00 0. -1.
         22   -1    0    0    0    0 -0.00000000000E+00 -0.00000000000E+00 -0.61616855079E+03  0.61616855079E+03  0.00000000000E+00 0. -1.
        -24    2    1    2    0    0  0.20876320326E+02 -0.71983405004E+02 -0.56347813509E+03  0.57434280824E+03  0.82125643405E+02 0.  0.
         25    2    1    2    0    0  0.35243257629E+02  0.40803144787E+02  0.60823123677E+02  0.14917121852E+03  0.12508243773E+03 0.  0.
         24    2    1    2    0    0 -0.56119577955E+02  0.31180260217E+02  0.84296840413E+03  0.84913646754E+03  0.79469456354E+02 0.  0.
        -11    1    5    5    0    0 -0.25890184752E+02  0.41228345991E+02  0.21857752835E+03  0.22393350370E+03  0.00000000000E+00 0.  1.
         12    1    5    5    0    0 -0.30229393203E+02 -0.10048085774E+02  0.62439087578E+03  0.62520296385E+03  0.00000000000E+00 0. -1.
         13    1    3    3    0    0 -0.24533237561E+02 -0.56184889872E+02 -0.26364879305E+03  0.27068303912E+03  0.00000000000E+00 0. -1.
        -14    1    3    3    0    0  0.45409557887E+02 -0.15798515132E+02 -0.29982934204E+03  0.30365976911E+03  0.00000000000E+00 0.  1.
          5    1    4    4  501    0  0.43578553329E+02  0.82544891271E+02  0.41378835615E+02  0.10218820784E+03  0.41800000000E+01 0.  1.
         -5    1    4    4    0  501 -0.83352957004E+01 -0.41741746484E+02  0.19444288063E+02  0.46983010676E+02  0.41800000000E+01 0.  1.
</event>
<event>
11    1  0.8864208E-009  0.1972142E+03  0.7561462E-02  0.1056511E+00
         22   -1    0    0    0    0  0.00000000000E+00  0.00000000000E+00  0.41723386485E+03  0.41723386485E+03  0.00000000000E+00 0.  1.
         22   -1    0    0    0    0 -0.00000000000E+00 -0.00000000000E+00 -0.20514389185E+04  0.20514389185E+04  0.00000000000E+00 0.  1.
        -24    2    1    2    0    0 -0.10340852968E+03 -0.10916718528E+03 -0.18927174175E+04  0.19004040995E+04  0.80905627209E+02 0.  0.
         25    2    1    2    0    0  0.16982168854E+03  0.12687740700E+03 -0.40237017624E+02  0.24941756765E+03  0.12511124312E+03 0.  0.
         24    2    1    2    0    0 -0.66413158863E+02 -0.17710221719E+02  0.29874938144E+03  0.31885111626E+03  0.87695392162E+02 0.  0.
        -13    1    5    5    0    0 -0.79467383504E+02 -0.19200027183E+02  0.29354850256E+03  0.30472024783E+03  0.00000000000E+00 0.  1.
         14    1    5    5    0    0  0.13054224641E+02  0.14898054640E+01  0.52008788750E+01  0.14130868422E+02  0.00000000000E+00 0. -1.
         11    1    3    3    0    0 -0.62007266939E+02 -0.10687146118E+02 -0.80379986867E+03  0.80625885739E+03  0.00000000000E+00 0. -1.
        -12    1    3    3    0    0 -0.41401262743E+02 -0.98480039166E+02 -0.10889175488E+04  0.10941452421E+04  0.00000000000E+00 0.  1.
          5    1    4    4  501    0  0.11487566667E+03  0.98599871396E+02 -0.84374231057E+02  0.17336330839E+03  0.41800000000E+01 0.  1.
         -5    1    4    4    0  501  0.54946021879E+02  0.28277535608E+02  0.44137213434E+02  0.76054259250E+02  0.41800000000E+01 0.  1.
</event>
<event>
11    1  0.8864208E-009  0.1556552E+03  0.7561462E-02  0.1091236E+00
         22   -1    0    0    0    0  0.00000000000E+00  0.00000000000E+00  0.98371301759E+03  0.98371301759E+03  0.00000000000E+00 0. -1.
         22   -1    0    0    0    0 -0.00000000000E+00 -0.00000000000E+00 -0.11366993855E+04  0.11366993855E+04  0.00000000000E+00 0. -1.
        -24    2    1    2    0    0  0.40153240133E+02 -0.52627259912E+02 -0.10698353508E+04  0.10753703364E+04  0.86555019826E+02 0.  0.
         25    2    1    2    0    0  0.55163487735E+02  0.46034659740E+02  0.27347733887E+02  0.14682408199E+03  0.12508881735E+03 0.  0.
         24    2    1    2    0    0 -0.95316727868E+02  0.65926001717E+01  0.88950124901E+03  0.89821798467E+03  0.80338876054E+02 0.  0.
        -11    1    5    5    0    0 -0.93416091202E+02  0.29581108865E+02  0.61589794493E+03  0.62364403843E+03  0.00000000000E+00 0.  1.
         12    1    5    5    0    0 -0.19006366665E+01 -0.22988508693E+02  0.27360330408E+03  0.27457394624E+03  0.00000000000E+00 0. -1.
         11    1    3    3    0    0 -0.11886935785E+02  0.53493999326E+01 -0.50712653509E+03  0.50729403497E+03  0.00000000000E+00 0. -1.
        -12    1    3    3    0    0  0.52040175918E+02 -0.57976659845E+02 -0.56270881574E+03  0.56807630148E+03  0.00000000000E+00 0.  1.
          5    1    4    4  501    0  0.42427583770E+02  0.84475324579E+02 -0.51048241295E+01  0.94761342101E+02  0.41800000000E+01 0. -1.
         -5    1    4    4    0  501  0.12735903965E+02 -0.38440664839E+02  0.32452558017E+02  0.52062739890E+02  0.41800000000E+01 0. -1.
</event>
<event>
11    1  0.8864208E-009  0.1596613E+03  0.7561462E-02  0.1087396E+00
         22   -1    0    0    0    0  0.00000000000E+00  0.00000000000E+00  0.55835614570E+02  0.55835614570E+02  0.00000000000E+00 0. -1.
         22   -1    0    0    0    0 -0.00000000000E+00 -0.00000000000E+00 -0.12125277618E+04  0.12125277618E+04  0.00000000000E+00 0. -1.
        -24    2    1    2    0    0  0.63965406761E+01 -0.10719922067E+03 -0.71826420066E+03  0.73048996506E+03  0.78610040403E+02 0.  0.
         25    2    1    2    0    0 -0.21533880832E+02  0.80395256567E+02 -0.42521589406E+03  0.45098081870E+03  0.12509211393E+03 0.  0.
         24    2    1    2    0    0  0.15137340156E+02  0.26803964102E+02 -0.13212052550E+02  0.86892592658E+02  0.80175886448E+02 0.  0.
        -11    1    5    5    0    0  0.43405388643E+01  0.29697200946E+02 -0.44495970107E+02  0.53671737231E+02  0.00000000000E+00 0.  1.
         12    1    5    5    0    0  0.10796801291E+02 -0.28932368440E+01  0.31283917557E+02  0.33220855427E+02  0.00000000000E+00 0. -1.
         11    1    3    3    0    0  0.39887079013E+02 -0.41263886849E+02 -0.25656288241E+03  0.26290340443E+03  0.00000000000E+00 0. -1.
        -12    1    3    3    0    0 -0.33490538337E+02 -0.65935333820E+02 -0.46170131825E+03  0.46758656063E+03  0.00000000000E+00 0.  1.
          5    1    4    4  501    0  0.26002141567E+02  0.35845630079E+02 -0.34360335203E+03  0.34647042657E+03  0.41800000000E+01 0. -1.
         -5    1    4    4    0  501 -0.47536022398E+02  0.44549626488E+02 -0.81612542035E+02  0.10451039213E+03  0.41800000000E+01 0. -1.
</event>
<event>
11    1  0.8864208E-009  0.2503245E+03  0.7561462E-02  0.1023727E+00
         22   -1    0    0    0    0  0.00000000000E+00  0.00000000000E+00  0.71350814619E+03  0.71350814619E+03  0.00000000000E+00 0.  1.
         22   -1    0    0    0    0 -0.00000000000E+00 -0.00000000000E+00 -0.34049581802E+04  0.34049581802E+04  0.00000000000E+00 0. -1.
        -24    2    1    2    0    0  0.13879369111E+03  0.29106644625E+01 -0.31221229438E+04  0.31262295465E+04  0.79920838636E+02 0.  0.
         25    2    1    2    0    0 -0.27619702768E+03 -0.16140227733E+03 -0.14633852271E+03  0.37335469985E+03  0.12507308042E+03 0.  0.
         24    2    1    2    0    0  0.13740333656E+03  0.15849161286E+03  0.57701143257E+03  0.61888208000E+03  0.77933095551E+02 0.  0.
        -13    1    5    5    0    0  0.10515360742E+03  0.95758171775E+02  0.46719976622E+03  0.48836720833E+03  0.00000000000E+00 0.  1.
         14    1    5    5    0    0  0.32249729141E+02  0.62733441088E+02  0.10981166634E+03  0.13051487166E+03  0.00000000000E+00 0. -1.
         13    1    3    3    0    0  0.12915555321E+03 -0.24091872516E+02 -0.25126214348E+04  0.25160540633E+04  0.00000000000E+00 0. -1.
        -14    1    3    3    0    0  0.96381379072E+01  0.27002536978E+02 -0.60950150909E+03  0.61017548320E+03  0.00000000000E+00 0.  1.
          5    1    4    4  501    0 -0.26458171172E+03 -0.16889157088E+03 -0.16098227616E+03  0.35278975400E+03  0.41800000000E+01 0. -1.
         -5    1    4    4    0  501 -0.11615315956E+02  0.74892935500E+01  0.14643753449E+02  0.20564945848E+02  0.41800000000E+01 0. -1.
</event>
<event>
11    1  0.8864208E-009  0.1353584E+03  0.7561462E-02  0.1112855E+00
         22   -1    0    0    0    0  0.00000000000E+00  0.00000000000E+00  0.37807024839E+03  0.37807024839E+03  0.00000000000E+00 0. -1.
         22   -1    0    0    0    0 -0.00000000000E+00 -0.00000000000E+00 -0.12413078676E+04  0.12413078676E+04  0.00000000000E+00 0.  1.
        -24    2    1    2    0    0  0.81198399758E+01  0.44013784439E+02 -0.11777200582E+04  0.11813660587E+04  0.81228591543E+02 0.  0.
         25    2    1    2    0    0  0.11954754991E+02  0.99111495045E+01  0.20466969594E+02  0.12769364633E+03  0.12508246647E+03 0.  0.
         24    2    1    2    0    0 -0.20074594967E+02 -0.53924933943E+02  0.29401546946E+03  0.31031841092E+03  0.80879737920E+02 0.  0.
        -13    1    5    5    0    0 -0.44993252336E+02 -0.64954967442E+01  0.14536552412E+03  0.15230797693E+03  0.00000000000E+00 0.  1.
         14    1    5    5    0    0  0.24918657369E+02 -0.47429437199E+02  0.14864994534E+03  0.15801043398E+03  0.00000000000E+00 0. -1.
         13    1    3    3    0    0  0.21812445465E+02  0.83254683565E+01 -0.90142022279E+02  0.93116488234E+02  0.00000000000E+00 0. -1.
        -14    1    3    3    0    0 -0.13692605489E+02  0.35688316082E+02 -0.10875780360E+04  0.10882495705E+04  0.00000000000E+00 0.  1.
          5    1    4    4  501    0 -0.22396475781E+02  0.54044930281E+02  0.36850576556E+02  0.69266831954E+02  0.41800000000E+01 0. -1.
         -5    1    4    4    0  501  0.34351230772E+02 -0.44133780776E+02 -0.16383606962E+02  0.58426814377E+02  0.41800000000E+01 0. -1.
</event>
<event>
11    1  0.8864208E-009  0.1633551E+03  0.7561462E-02  0.1083963E+00
         22   -1    0    0    0    0  0.00000000000E+00  0.00000000000E+00  0.20324797612E+03  0.20324797612E+03  0.00000000000E+00 0.  1.
         22   -1    0    0    0    0 -0.00000000000E+00 -0.00000000000E+00 -0.11285204967E+04  0.11285204967E+04  0.00000000000E+00 0.  1.
         24    2    1    2    0    0 -0.56652283839E+02 -0.83375754337E+02 -0.90080299492E+03  0.90987668834E+03  0.79174204498E+02 0.  0.
         25    2    1    2    0    0  0.66666401018E+02  0.13360752622E+03 -0.16067986366E+03  0.25250903764E+03  0.12508962954E+03 0.  0.
        -24    2    1    2    0    0 -0.10014117179E+02 -0.50231771881E+02  0.13621033798E+03  0.16938274687E+03  0.86681862661E+02 0.  0.
        -11    1    3    3    0    0 -0.61548334914E+02 -0.85950314355E+02 -0.61497118844E+03  0.62399135946E+03  0.00000000000E+00 0.  1.
         12    1    3    3    0    0  0.48960510756E+01  0.25745600182E+01 -0.28583180648E+03  0.28588532888E+03  0.00000000000E+00 0. -1.
         13    1    5    5    0    0  0.31294528568E+01  0.32507160763E+00 -0.11911287198E+02  0.12319817752E+02  0.00000000000E+00 0. -1.
        -14    1    5    5    0    0 -0.13143570036E+02 -0.50556843489E+02  0.14812162518E+03  0.15706292911E+03  0.00000000000E+00 0.  1.
          5    1    4    4  501    0  0.37779288311E+01  0.27275435661E+02 -0.11876623118E+03  0.12198816420E+03  0.41800000000E+01 0. -1.
         -5    1    4    4    0  501  0.62888472187E+02  0.10633209056E+03 -0.41913632482E+02  0.13052087344E+03  0.41800000000E+01 0. -1.
</event>
<event>
11    1  0.8864208E-009  0.1286562E+03  0.7561462E-02  0.1120931E+00
         22   -1    0    0    0    0  0.00000000000E+00  0.00000000000E+00  0.47174960297E+03  0.47174960297E+03  0.00000000000E+00 0.  1.
         22   -1    0    0    0    0 -0.00000000000E+00 -0.00000000000E+00 -0.19196447742E+03  0.19196447742E+03  0.00000000000E+00 0. -1.
         24    2    1    2    0    0  0.20290314525E+02  0.51946352654E+01 -0.93498680741E+02  0.12386443457E+03  0.78496584329E+02 0.  0.
         25    2    1    2    0    0  0.50502840599E+01  0.12353471194E+02 -0.29042533362E+02  0.12916488545E+03  0.12514785364E+03 0.  0.
        -24    2    1    2    0    0 -0.25340598585E+02 -0.17548106460E+02  0.40232633965E+03  0.41068476037E+03  0.76455260401E+02 0.  0.
        -13    1    3    3    0    0  0.11473348041E+01 -0.33432914697E+02 -0.20943531115E+02  0.39467805334E+02  0.00000000000E+00 0.  1.
         14    1    3    3    0    0  0.19142979721E+02  0.38627549963E+02 -0.72555149627E+02  0.84396629234E+02  0.00000000000E+00 0. -1.
         13    1    5    5    0    0 -0.21575723170E+02 -0.25347528462E+01  0.25325917067E+02  0.33366733097E+02  0.00000000000E+00 0. -1.
        -14    1    5    5    0    0 -0.37648754150E+01 -0.15013353614E+02  0.37700042258E+03  0.37731802727E+03  0.00000000000E+00 0.  1.
          5    1    4    4  501    0  0.10337837769E+02  0.65873865268E+02 -0.34054402610E+02  0.74989410934E+02  0.41800000000E+01 0.  1.
         -5    1    4    4    0  501 -0.52875537086E+01 -0.53520394074E+02  0.50118692476E+01  0.54175474519E+02  0.41800000000E+01 0.  1.
</event>
<event>
11    1  0.8864208E-009  0.1342400E+03  0.7561462E-02  0.1114166E+00
         22   -1    0    0    0    0  0.00000000000E+00  0.00000000000E+00  0.15172077661E+04  0.15172077661E+04  0.00000000000E+00 0. -1.
         22   -1    0    0    0    0 -0.00000000000E+00 -0.00000000000E+00 -0.38871556960E+03  0.38871556960E+03  0.00000000000E+00 0. -1.
         24    2    1    2    0    0 -0.48094985939E+02  0.17647791445E+01 -0.36195024546E+03  0.37409395921E+03  0.81376089892E+02 0.  0.
         25    2    1    2    0    0  0.75994880476E+02 -0.49848581329E+01  0.25877226919E+03  0.29733709073E+03  0.12508472149E+03 0.  0.
        -24    2    1    2    0    0 -0.27899894537E+02  0.32200789884E+01  0.12316701727E+04  0.12344922857E+04  0.78555815144E+02 0.  0.
        -13    1    3    3    0    0 -0.22879143773E+02  0.40569206993E+02 -0.14633739779E+03  0.15357066702E+03  0.00000000000E+00 0.  1.
         14    1    3    3    0    0 -0.25215842167E+02 -0.38804427848E+02 -0.21561284767E+03  0.22052329219E+03  0.00000000000E+00 0. -1.
         11    1    5    5    0    0 -0.45493085852E+02 -0.14669400062E+02  0.10512063458E+04  0.10522925419E+04  0.00000000000E+00 0. -1.
        -12    1    5    5    0    0  0.17593191316E+02  0.17889479050E+02  0.18046382692E+03  0.18219974388E+03  0.00000000000E+00 0.  1.
          5    1    4    4  501    0  0.62166603434E+02 -0.45668866409E+02  0.71870489823E+02  0.10551384577E+03  0.41800000000E+01 0.  1.
         -5    1    4    4    0  501  0.13828277042E+02  0.40684008276E+02  0.18690177937E+03  0.19182324496E+03  0.41800000000E+01 0.  1.
</event>
<event>
11    1  0.8864208E-009  0.2946847E+03  0.7561462E-02  0.1002466E+00
         22   -1    0    0    0    0  0.00000000000E+00  0.00000000000E+00  0.15716719485E+03  0.15716719485E+03  0.00000000000E+00 0.  1.
         22   -1    0    0    0    0 -0.00000000000E+00 -0.00000000000E+00 -0.12757583309E+04  0.12757583309E+04  0.00000000000E+00 0.  1.
        -24    2    1    2    0    0  0.96689381056E+02 -0.27053488583E+03 -0.96255762096E+03  0.10078862857E+04  0.82338511286E+02 0.  0.
         25    2    1    2    0    0 -0.56181700135E+02  0.20443764964E+03 -0.18645161897E+03  0.30880790830E+03  0.12508789705E+03 0.  0.
         24    2    1    2    0    0 -0.40507680921E+02  0.66097236184E+02  0.30418103831E+02  0.11623133177E+03  0.81084798815E+02 0.  0.
        -11    1    5    5    0    0  0.20843671072E+02  0.28836964960E+02  0.26462283472E+02  0.44342774140E+02  0.00000000000E+00 0.  1.
         12    1    5    5    0    0 -0.61351351993E+02  0.37260271224E+02  0.39558203593E+01  0.71888557627E+02  0.00000000000E+00 0. -1.
         11    1    3    3    0    0  0.21765623387E+02 -0.89205280444E+02 -0.19326783612E+03  0.21397144879E+03  0.00000000000E+00 0. -1.
        -12    1    3    3    0    0  0.74923757669E+02 -0.18132960539E+03 -0.76928978484E+03  0.79391483694E+03  0.00000000000E+00 0.  1.
          5    1    4    4  501    0 -0.15701673537E+02  0.20026936705E+03 -0.13084751206E+03  0.23977678316E+03  0.41800000000E+01 0.  1.
         -5    1    4    4    0  501 -0.40480026598E+02  0.41682825978E+01 -0.55604106904E+02  0.69031125138E+02  0.41800000000E+01 0.  1.
</event>
<event>
11    1  0.8864208E-009  0.2944973E+03  0.7561462E-02  0.1002547E+00
         22   -1    0    0    0    0  0.00000000000E+00  0.00000000000E+00  0.24944528855E+04  0.24944528855E+04  0.00000000000E+00 0. -1.
         22   -1    0    0    0    0 -0.00000000000E+00 -0.00000000000E+00 -0.42226491983E+03  0.42226491983E+03  0.00000000000E+00 0. -1.
         24    2    1    2    0    0  0.48266638553E+02  0.39180288820E+02 -0.36275793439E+03  0.37770831303E+03  0.84885142031E+02 0.  0.
         25    2    1    2    0    0 -0.28598994084E+03  0.68957081728E+02  0.56328558115E+03  0.64767587800E+03  0.12509225242E+03 0.  0.
        -24    2    1    2    0    0  0.23772330229E+03 -0.10813737055E+03  0.18716603189E+04  0.18913336143E+04  0.76317965905E+02 0.  0.
        -13    1    3    3    0    0  0.33965828610E+02 -0.22328955588E+02 -0.11293092940E+03  0.12002355846E+03  0.00000000000E+00 0.  1.
         14    1    3    3    0    0  0.14300809943E+02  0.61509244408E+02 -0.24982700499E+03  0.25768475456E+03  0.00000000000E+00 0. -1.
         11    1    5    5    0    0  0.17171662724E+03 -0.61979847607E+02  0.14985138710E+04  0.15095932973E+04  0.00000000000E+00 0. -1.
        -12    1    5    5    0    0  0.66006675049E+02 -0.46157522941E+02  0.37314644786E+03  0.38174031701E+03  0.00000000000E+00 0.  1.
          5    1    4    4  501    0 -0.90024449328E+02  0.71853671345E+02  0.28364391249E+03  0.30616775313E+03  0.41800000000E+01 0.  1.
         -5    1    4    4    0  501 -0.19596549152E+03 -0.28965896167E+01  0.27964166866E+03  0.34150812486E+03  0.41800000000E+01 0.  1.
</event>
<event>
11    1  0.8864208E-009  0.1323956E+03  0.7561462E-02  0.1116360E+00
         22   -1    0    0    0    0  0.00000000000E+00  0.00000000000E+00  0.14476545288E+03  0.14476545288E+03  0.00000000000E+00 0.  1.
         22   -1    0    0    0    0 -0.00000000000E+00 -0.00000000000E+00 -0.30570545743E+03  0.30570545743E+03  0.00000000000E+00 0.  1.
         24    2    1    2    0    0 -0.17043201743E+02  0.19438539217E+02 -0.17512401794E+03  0.19547880860E+03  0.82916918774E+02 0.  0.
         25    2    1    2    0    0  0.55184345070E+02 -0.28407687771E+02 -0.46758379511E+02  0.14726329442E+03  0.12509125934E+03 0.  0.
        -24    2    1    2    0    0 -0.38141143327E+02  0.89691485534E+01  0.60942392891E+02  0.10772880729E+03  0.79726584203E+02 0.  0.
        -11    1    3    3    0    0 -0.41482952216E+02  0.26404794976E+02 -0.15630136387E+03  0.16385409629E+03  0.00000000000E+00 0.  1.
         12    1    3    3    0    0  0.24439750472E+02 -0.69662557590E+01 -0.18822654066E+02  0.31624712307E+02  0.00000000000E+00 0. -1.
         13    1    5    5    0    0 -0.89111316209E+01  0.13600352827E+01 -0.19673527792E+02  0.21640371035E+02  0.00000000000E+00 0. -1.
        -14    1    5    5    0    0 -0.29230011706E+02  0.76091132708E+01  0.80615920684E+02  0.86088436255E+02  0.00000000000E+00 0.  1.
          5    1    4    4  501    0 -0.20666550717E+02 -0.53419504131E+02 -0.67156756156E+01  0.57821470399E+02  0.41800000000E+01 0. -1.
         -5    1    4    4    0  501  0.75850895787E+02  0.25011816360E+02 -0.40042703896E+02  0.89441824023E+02  0.41800000000E+01 0. -1.
</event>
<event>
11    1  0.8864208E-009  0.1353541E+03  0.7561462E-02  0.1112860E+00
         22   -1    0    0    0    0  0.00000000000E+00  0.00000000000E+00  0.41632009692E+02  0.41632009692E+02  0.00000000000E+00 0. -1.
         22   -1    0    0    0    0 -0.00000000000E+00 -0.00000000000E+00 -0.14896514719E+04  0.14896514719E+04  0.00000000000E+00 0. -1.
         24    2    1    2    0    0 -0.52585256922E+01  0.15298122919E+02 -0.98734720124E+03  0.99079576141E+03  0.80994199667E+02 0.  0.
         25    2    1    2    0    0  0.42443206324E+02 -0.47900873744E+02 -0.40917827944E+03  0.43263173471E+03  0.12508970396E+03 0.  0.
        -24    2    1    2    0    0 -0.37184680632E+02  0.32602750825E+02 -0.51493981513E+02  0.10785598546E+03  0.80843327695E+02 0.  0.
        -13    1    3    3    0    0 -0.18940671582E+02  0.26360900208E+02 -0.15989663888E+03  0.16315814789E+03  0.00000000000E+00 0.  1.
         14    1    3    3    0    0  0.13682145890E+02 -0.11062777289E+02 -0.82745056236E+03  0.82763761352E+03  0.00000000000E+00 0. -1.
         11    1    5    5    0    0  0.22336642207E+01 -0.16986445633E+02  0.97762965802E+01  0.19725733596E+02  0.00000000000E+00 0. -1.
        -12    1    5    5    0    0 -0.39418344852E+02  0.49589196458E+02 -0.61270278093E+02  0.88130251865E+02  0.00000000000E+00 0.  1.
          5    1    4    4  501    0 -0.15749233843E+01 -0.40856888478E+01  0.84473465258E+01  0.10392463633E+02  0.41800000000E+01 0. -1.
         -5    1    4    4    0  501  0.44018129708E+02 -0.43815184897E+02 -0.41762562597E+03  0.42223927107E+03  0.41800000000E+01 0. -1.
</event>
<event>
11    1  0.8864208E-009  0.1445990E+03  0.7561462E-02  0.1102529E+00
         22   -1    0    0    0    0  0.00000000000E+00  0.00000000000E+00  0.49192124211E+03  0.49192124211E+03  0.00000000000E+00 0.  1.
         22   -1    0    0    0    0 -0.00000000000E+00 -0.00000000000E+00 -0.23192114826E+03  0.23192114826E+03  0.00000000000E+00 0. -1.
         24    2    1    2    0    0  0.80092591216E+02  0.15779380727E+02 -0.17104205818E+03  0.20996775323E+03  0.90372892546E+02 0.  0.
         25    2    1    2    0    0 -0.18328012853E+02  0.18353366365E+01  0.83376208428E+02  0.15145417883E+03  0.12508993419E+03 0.  0.
        -24    2    1    2    0    0 -0.61764578363E+02 -0.17614717363E+02  0.34766594360E+03  0.36242045831E+03  0.79698424440E+02 0.  0.
        -11    1    3    3    0    0 -0.20157875486E+02  0.27247778322E+01 -0.23062352592E+02  0.30751202667E+02  0.00000000000E+00 0.  1.
         12    1    3    3    0    0  0.10025046670E+03  0.13054602894E+02 -0.14797970559E+03  0.17921655056E+03  0.00000000000E+00 0. -1.
         13    1    5    5    0    0 -0.34106357852E+02  0.30375173152E+02  0.12892346372E+03  0.13677409947E+03  0.00000000000E+00 0. -1.
        -14    1    5    5    0    0 -0.27658220511E+02 -0.47989890515E+02  0.21874247988E+03  0.22564635884E+03  0.00000000000E+00 0.  1.
          5    1    4    4  501    0 -0.54034933923E+02  0.27072630005E+02  0.39738260105E+01  0.60712149300E+02  0.41800000000E+01 0. -1.
         -5    1    4    4    0  501  0.35706921071E+02 -0.25237293369E+02  0.79402382418E+02  0.90742029526E+02  0.41800000000E+01 0. -1.
</event>
<event>
11    1  0.8864208E-009  0.1635631E+03  0.7561462E-02  0.1083773E+00
         22   -1    0    0    0    0  0.00000000000E+00  0.00000000000E+00  0.24615053380E+04  0.24615053380E+04  0.00000000000E+00 0. -1.
         22   -1    0    0    0    0 -0.00000000000E+00 -0.00000000000E+00 -0.35682394497E+02  0.35682394497E+02  0.00000000000E+00 0.  1.
        -24    2    1    2    0    0 -0.52206940366E+02  0.49277223319E+02  0.10735158206E+03  0.15209800172E+03  0.80346938927E+02 0.  0.
         25    2    1    2    0    0  0.12078023629E+03 -0.10866329722E+03  0.98221887185E+03  0.10033921532E+04  0.12508526359E+03 0.  0.
         24    2    1    2    0    0 -0.68573295920E+02  0.59386073900E+02  0.13362524895E+04  0.13416975776E+04  0.79703645831E+02 0.  0.
        -11    1    5    5    0    0  0.85881954032E+01  0.31162227093E+01  0.20031060331E+02  0.22016160479E+02  0.00000000000E+00 0.  1.
         12    1    5    5    0    0 -0.77161491323E+02  0.56269851190E+02  0.13162214292E+04  0.13196814171E+04  0.00000000000E+00 0. -1.
         13    1    3    3    0    0  0.20285244733E+02  0.83250407774E+01  0.37397184609E+02  0.43351434515E+02  0.00000000000E+00 0. -1.
        -14    1    3    3    0    0 -0.72492185099E+02  0.40952182542E+02  0.69954397450E+02  0.10874656720E+03  0.00000000000E+00 0.  1.
          5    1    4    4  501    0 -0.21401470467E+02  0.54027386225E+01  0.12405554106E+03  0.12607324137E+03  0.41800000000E+01 0. -1.
         -5    1    4    4    0  501  0.14218170675E+03 -0.11406603584E+03  0.85816333079E+03  0.87731891179E+03  0.41800000000E+01 0. -1.
</event>
<event>
11    1  0.8864208E-009  0.1292367E+03  0.7561462E-02  0.1120210E+00
         22   -1    0    0    0    0  0.00000000000E+00  0.00000000000E+00  0.69748767247E+02  0.69748767247E+02  0.00000000000E+00 0.  1.
         22   -1    0    0    0    0 -0.00000000000E+00 -0.00000000000E+00 -0.14081447349E+04  0.14081447349E+04  0.00000000000E+00 0.  1.
        -24    2    1    2    0    0  0.68776170567E+01  0.19012491209E+02 -0.81014100507E+03  0.81438904637E+03  0.80574774647E+02 0.  0.
         25    2    1    2    0    0  0.25893305012E+02 -0.19774887801E+02 -0.55884368413E+03  0.57359861318E+03  0.12509035263E+03 0.  0.
         24    2    1    2    0    0 -0.32770922068E+02  0.76239659210E+00  0.30588721531E+02  0.89905842612E+02  0.77928660127E+02 0.  0.
        -13    1    5    5    0    0 -0.46368905898E+02  0.27927948653E+02  0.18374467450E+02  0.57163509376E+02  0.00000000000E+00 0.  1.
         14    1    5    5    0    0  0.13597983829E+02 -0.27165552061E+02  0.12214254081E+02  0.32742333236E+02  0.00000000000E+00 0. -1.
         11    1    3    3    0    0 -0.35731740134E+02  0.12471282024E+02 -0.28887245061E+03  0.29134100784E+03  0.00000000000E+00 0. -1.
        -12    1    3    3    0    0  0.42609357191E+02  0.65412091851E+01 -0.52126855446E+03  0.52304803853E+03  0.00000000000E+00 0.  1.
          5    1    4    4  501    0  0.23563018599E+01 -0.44343398262E+02 -0.66556985558E+02  0.80119871783E+02  0.41800000000E+01 0. -1.
         -5    1    4    4    0  501  0.23537003152E+02  0.24568510461E+02 -0.49228669857E+03  0.49347874140E+03  0.41800000000E+01 0. -1.
</event>
<event>
11    1  0.8864208E-009  0.1326982E+03  0.7561462E-02  0.1115997E+00
         22   -1    0    0    0    0  0.00000000000E+00  0.00000000000E+00  0.13555621167E+04  0.13555621167E+04  0.00000000000E+00 0. -1.
         22   -1    0    0    0    0 -0.00000000000E+00 -0.00000000000E+00 -0.63387856833E+02  0.63387856833E+02  0.00000000000E+00 0.  1.
        -24    2    1    2    0    0 -0.43171335568E+02  0.10953094445E+02  0.32893669165E+01  0.91283105907E+02  0.79611877234E+02 0.  0.
         25    2    1    2    0    0  0.38808383150E+02 -0.20922239395E+02  0.22732073059E+03  0.26318459006E+03  0.12509030012E+03 0.  0.
         24    2    1    2    0    0  0.43629524180E+01  0.99691449497E+01  0.10615641623E+04  0.10644822775E+04  0.78010443192E+02 0.  0.
        -11    1    5    5    0    0 -0.33267738539E+01 -0.13364214694E+01  0.85593365765E+00  0.36859285187E+01  0.00000000000E+00 0.  1.
         12    1    5    5    0    0  0.76897262719E+01  0.11305566419E+02  0.10607082287E+04  0.10607963490E+04  0.00000000000E+00 0. -1.
         13    1    3    3    0    0  0.30887852694E+01  0.14510840168E+02  0.33005018409E+02  0.36186134319E+02  0.00000000000E+00 0. -1.
        -14    1    3    3    0    0 -0.46260120838E+02 -0.35577457232E+01 -0.29715651492E+02  0.55096971588E+02  0.00000000000E+00 0.  1.
          5    1    4    4  501    0  0.14653915453E+02  0.48781139650E+02  0.13862002598E+03  0.14774072163E+03  0.41800000000E+01 0. -1.
         -5    1    4    4    0  501  0.24154467697E+02 -0.69703379044E+02  0.88700704610E+02  0.11544386843E+03  0.41800000000E+01 0. -1.
</event>
<event>
11    1  0.8864208E-009  0.1653411E+03  0.7561462E-02  0.1082159E+00
         22   -1    0    0    0    0  0.00000000000E+00  0.00000000000E+00  0.12425560317E+04  0.12425560317E+04  0.00000000000E+00 0. -1.
         22   -1    0    0    0    0 -0.00000000000E+00 -0.00000000000E+00 -0.54909558546E+03  0.54909558546E+03  0.00000000000E+00 0. -1.
         24    2    1    2    0    0 -0.11189590561E+00  0.10549370986E+03 -0.45092732074E+03  0.46970129487E+03  0.78453313981E+02 0.  0.
         25    2    1    2    0    0 -0.18644330274E+02 -0.13560753744E+03  0.11492594724E+02  0.18578639273E+03  0.12508992257E+03 0.  0.
        -24    2    1    2    0    0  0.18756226179E+02  0.30113827574E+02  0.11328951723E+04  0.11361639296E+04  0.78475250120E+02 0.  0.
        -13    1    3    3    0    0  0.22006434512E+02  0.98089443645E+02 -0.28643618718E+03  0.30356467423E+03  0.00000000000E+00 0.  1.
         14    1    3    3    0    0 -0.22118330418E+02  0.74042662170E+01 -0.16449113356E+03  0.16613662064E+03  0.00000000000E+00 0. -1.
         11    1    5    5    0    0  0.34225736553E+02  0.42610574851E+02  0.10246897126E+04  0.10261462221E+04  0.00000000000E+00 0. -1.
        -12    1    5    5    0    0 -0.15469510374E+02 -0.12496747277E+02  0.10820545967E+03  0.11001770742E+03  0.00000000000E+00 0.  1.
          5    1    4    4  501    0 -0.73784088457E+01 -0.85598873340E+02  0.67799423364E+02  0.10952553238E+03  0.41800000000E+01 0.  1.
         -5    1    4    4    0  501 -0.11265921428E+02 -0.50008664095E+02 -0.56306828640E+02  0.76260860353E+02  0.41800000000E+01 0.  1.
</event>
<event>
11    1  0.8864208E-009  0.3645663E+03  0.7561462E-02  0.9760510E-01
         22   -1    0    0    0    0  0.00000000000E+00  0.00000000000E+00  0.52194114197E+03  0.52194114197E+03  0.00000000000E+00 0. -1.
         22   -1    0    0    0    0 -0.00000000000E+00 -0.00000000000E+00 -0.17214822188E+04  0.17214822188E+04  0.00000000000E+00 0. -1.
         24    2    1    2    0    0  0.34562117352E+03  0.97053937572E+01 -0.15459082565E+04  0.15860483511E+04  0.78541990637E+02 0.  0.
         25    2    1    2    0    0 -0.31130701433E+03 -0.78293585165E+01  0.36895407998E+02  0.33761466413E+03  0.12509610018E+03 0.  0.
        -24    2    1    2    0    0 -0.34314159189E+02 -0.18760352406E+01  0.30947177166E+03  0.31976034553E+03  0.72752457622E+02 0.  0.
        -13    1    3    3    0    0  0.63176770896E+02  0.48766018544E+01 -0.16962758599E+03  0.18107623686E+03  0.00000000000E+00 0.  1.
         14    1    3    3    0    0  0.28244440263E+03  0.48287919028E+01 -0.13762806705E+04  0.14049721142E+04  0.00000000000E+00 0. -1.
         11    1    5    5    0    0 -0.96924737496E+01 -0.25029992033E+02  0.24934297272E+03  0.25078349745E+03  0.00000000000E+00 0. -1.
        -12    1    5    5    0    0 -0.24621685440E+02  0.23153956793E+02  0.60128798939E+02  0.68976848079E+02  0.00000000000E+00 0.  1.
          5    1    4    4  501    0 -0.75217702740E+02 -0.24621483498E+02  0.60514570064E+02  0.99716627727E+02  0.41800000000E+01 0. -1.
         -5    1    4    4    0  501 -0.23608931159E+03  0.16792124982E+02 -0.23619162066E+02  0.23789803641E+03  0.41800000000E+01 0. -1.
</event>
<event>
11    1  0.8864208E-009  0.1451653E+03  0.7561462E-02  0.1101924E+00
         22   -1    0    0    0    0  0.00000000000E+00  0.00000000000E+00  0.54396563014E+03  0.54396563014E+03  0.00000000000E+00 0.  1.
         22   -1    0    0    0    0 -0.00000000000E+00 -0.00000000000E+00 -0.15962221394E+04  0.15962221394E+04  0.00000000000E+00 0.  1.
         24    2    1    2    0    0 -0.36973051540E+02  0.63113399975E+02 -0.15285535289E+04  0.15323095596E+04  0.78398901741E+02 0.  0.
         25    2    1    2    0    0  0.57846649885E+02 -0.85365855245E+02  0.45086537928E+02  0.16826598205E+03  0.12508829149E+03 0.  0.
        -24    2    1    2    0    0 -0.20873598344E+02  0.22252455270E+02  0.43121048174E+03  0.43961222790E+03  0.79909652005E+02 0.  0.
        -11    1    3    3    0    0  0.66171457468E+01  0.38796520073E+02 -0.11239446807E+04  0.11246335411E+04  0.00000000000E+00 0.  1.
         12    1    3    3    0    0 -0.43590197287E+02  0.24316879902E+02 -0.40460884827E+03  0.40767601849E+03  0.00000000000E+00 0. -1.
         11    1    5    5    0    0 -0.10531723346E+02  0.43997401371E+02  0.13405924285E+03  0.14148699275E+03  0.00000000000E+00 0. -1.
        -12    1    5    5    0    0 -0.10341874998E+02 -0.21744946101E+02  0.29715123889E+03  0.29812523515E+03  0.00000000000E+00 0.  1.
          5    1    4    4  501    0  0.55804990139E+02 -0.97522558422E+01  0.68485828937E+02  0.88978000560E+02  0.41800000000E+01 0.  1.
         -5    1    4    4    0  501  0.20416597455E+01 -0.75613599403E+02 -0.23399291009E+02  0.79287981491E+02  0.41800000000E+01 0.  1.
</event>
<event>
11    1  0.8864208E-009  0.1461002E+03  0.7561462E-02  0.1100931E+00
         22   -1    0    0    0    0  0.00000000000E+00  0.00000000000E+00  0.12368287893E+03  0.12368287893E+03  0.00000000000E+00 0.  1.
         22   -1    0    0    0    0 -0.00000000000E+00 -0.00000000000E+00 -0.75113525689E+03  0.75113525689E+03  0.00000000000E+00 0. -1.
         24    2    1    2    0    0  0.23166546069E+02 -0.32060578132E+02 -0.57203688375E+03  0.57857067286E+03  0.77157356133E+02 0.  0.
         25    2    1    2    0    0  0.46621404827E+02  0.63874927865E+02 -0.96792052767E+02  0.17684125889E+03  0.12510222848E+03 0.  0.
        -24    2    1    2    0    0 -0.69787950896E+02 -0.31814349733E+02  0.41376558552E+02  0.11940620406E+03  0.81629106519E+02 0.  0.
        -11    1    3    3    0    0  0.35128450369E+02 -0.58887860834E+01 -0.10966827655E+03  0.11530748765E+03  0.00000000000E+00 0.  1.
         12    1    3    3    0    0 -0.11961904300E+02 -0.26171792049E+02 -0.46236860720E+03  0.46326318521E+03  0.00000000000E+00 0. -1.
         13    1    5    5    0    0 -0.53110064950E+02  0.13908250592E+02 -0.94559258459E+00  0.54909130196E+02  0.00000000000E+00 0. -1.
        -14    1    5    5    0    0 -0.16677885946E+02 -0.45722600325E+02  0.42322151137E+02  0.64497073863E+02  0.00000000000E+00 0.  1.
          5    1    4    4  501    0  0.68808426749E+02  0.21866315177E+02 -0.10594922946E+03  0.12827878607E+03  0.41800000000E+01 0. -1.
         -5    1    4    4    0  501 -0.22187021922E+02  0.42008612688E+02  0.91571766967E+01  0.48562472824E+02  0.41800000000E+01 0. -1.
</event>
<event>
11    1  0.8864208E-009  0.1988434E+03  0.7561462E-02  0.1055345E+00
         22   -1    0    0    0    0  0.00000000000E+00  0.00000000000E+00  0.51970685387E+03  0.51970685387E+03  0.00000000000E+00 0.  1.
         22   -1    0    0    0    0 -0.00000000000E+00 -0.00000000000E+00 -0.93974614603E+03  0.93974614603E+03  0.00000000000E+00 0.  1.
        -24    2    1    2    0    0 -0.29998204759E+02 -0.68691909747E+02 -0.85828413318E+03  0.86501102356E+03  0.77291311724E+02 0.  0.
         25    2    1    2    0    0 -0.13371519008E+03  0.46052372884E+02  0.10996772597E+03  0.21849715202E+03  0.12509009385E+03 0.  0.
         24    2    1    2    0    0  0.16371339484E+03  0.22639536863E+02  0.32827711504E+03  0.37594482431E+03  0.79082377242E+02 0.  0.
        -11    1    5    5    0    0  0.15514951812E+03  0.65073386196E+00  0.25039774368E+03  0.29456888238E+03  0.00000000000E+00 0.  1.
         12    1    5    5    0    0  0.85638767183E+01  0.21988803001E+02  0.77879371361E+02  0.81375941932E+02  0.00000000000E+00 0. -1.
         13    1    3    3    0    0 -0.41545635351E+02 -0.65955342021E+02 -0.46056143792E+03  0.46711131977E+03  0.00000000000E+00 0. -1.
        -14    1    3    3    0    0  0.11547430592E+02 -0.27365677260E+01 -0.39772269526E+03  0.39789970380E+03  0.00000000000E+00 0.  1.
          5    1    4    4  501    0 -0.89277687485E+01  0.29505934487E+02  0.84438458128E+02  0.89986837015E+02  0.41800000000E+01 0.  1.
         -5    1    4    4    0  501 -0.12478742133E+03  0.16546438397E+02  0.25529267844E+02  0.12851031501E+03  0.41800000000E+01 0.  1.
</event>
<event>
11    1  0.8864208E-009  0.1487292E+03  0.7561462E-02  0.1098184E+00
         22   -1    0    0    0    0  0.00000000000E+00  0.00000000000E+00  0.93345696564E+02  0.93345696564E+02  0.00000000000E+00 0. -1.
         22   -1    0    0    0    0 -0.00000000000E+00 -0.00000000000E+00 -0.82587575197E+03  0.82587575197E+03  0.00000000000E+00 0.  1.
         24    2    1    2    0    0  0.28378048920E+02  0.35104057987E+02 -0.54584174943E+03  0.55541799887E+03  0.92240606553E+02 0.  0.
         25    2    1    2    0    0 -0.99635407786E+02 -0.53009368143E+02 -0.19136578077E+03  0.25495907771E+03  0.12508421827E+03 0.  0.
        -24    2    1    2    0    0  0.71257358866E+02  0.17905310156E+02  0.46774748003E+01  0.10884437195E+03  0.80168617368E+02 0.  0.
        -11    1    3    3    0    0  0.52240709910E+02  0.15383720735E+02 -0.47494964829E+03  0.47806162683E+03  0.00000000000E+00 0.  1.
         12    1    3    3    0    0 -0.23862660990E+02  0.19720337252E+02 -0.70892101140E+02  0.77356372038E+02  0.00000000000E+00 0. -1.
         13    1    5    5    0    0  0.78574119143E+02  0.32084799876E+02  0.19480319528E+02  0.87079328380E+02  0.00000000000E+00 0. -1.
        -14    1    5    5    0    0 -0.73167602765E+01 -0.14179489720E+02 -0.14802844728E+02  0.21765043572E+02  0.00000000000E+00 0.  1.
          5    1    4    4  501    0 -0.31504790364E+02 -0.85166897938E+02 -0.84292598986E+02  0.12397042778E+03  0.41800000000E+01 0. -1.
         -5    1    4    4    0  501 -0.68130617423E+02  0.32157529794E+02 -0.10707318179E+03  0.13098864993E+03  0.41800000000E+01 0. -1.
</event>
<event>
11    1  0.8864208E-009  0.1437464E+03  0.7561462E-02  0.1103446E+00
         22   -1    0    0    0    0  0.00000000000E+00  0.00000000000E+00  0.10094908394E+04  0.10094908394E+04  0.00000000000E+00 0. -1.
         22   -1    0    0    0    0 -0.00000000000E+00 -0.00000000000E+00 -0.87969041975E+03  0.87969041975E+03  0.00000000000E+00 0. -1.
        -24    2    1    2    0    0 -0.52691218178E+02  0.48560261634E+02 -0.68416780767E+03  0.69284975816E+03  0.82587740271E+02 0.  0.
         25    2    1    2    0    0  0.69996395320E+02 -0.19162184153E+02 -0.16156783198E+03  0.21683631411E+03  0.12508852116E+03 0.  0.
         24    2    1    2    0    0 -0.17305177143E+02 -0.29398077482E+02  0.97553605934E+03  0.97949518693E+03  0.81095635044E+02 0.  0.
        -11    1    5    5    0    0  0.12540501913E+02 -0.86823894073E+01  0.34070489490E+02  0.37328894012E+02  0.00000000000E+00 0.  1.
         12    1    5    5    0    0 -0.29845679056E+02 -0.20715688074E+02  0.94146556985E+03  0.94216629292E+03  0.00000000000E+00 0. -1.
         11    1    3    3    0    0 -0.14010904646E+02  0.41750105074E+02 -0.57757508508E+03  0.57925154780E+03  0.00000000000E+00 0. -1.
        -12    1    3    3    0    0 -0.38680313532E+02  0.68101565605E+01 -0.10659272259E+03  0.11359821036E+03  0.00000000000E+00 0.  1.
          5    1    4    4  501    0  0.23687772873E+02  0.53320098866E+02 -0.66434096291E+02  0.88516128907E+02  0.41800000000E+01 0. -1.
         -5    1    4    4    0  501  0.46308622447E+02 -0.72482283019E+02 -0.95133735692E+02  0.12832018521E+03  0.41800000000E+01 0. -1.
</event>
<event>
11    1  0.8864208E-009  0.1520786E+03  0.7561462E-02  0.1094774E+00
         22   -1    0    0    0    0  0.00000000000E+00  0.00000000000E+00  0.18139846349E+03  0.18139846349E+03  0.00000000000E+00 0.  1.
         22   -1    0    0    0    0 -0.00000000000E+00 -0.00000000000E+00 -0.10785429569E+04  0.10785429569E+04  0.00000000000E+00 0. -1.
        -24    2    1    2    0    0  0.83199835576E+02 -0.25559487193E+02 -0.90788506357E+03  0.91550805831E+03  0.79524940360E+02 0.  0.
         25    2    1    2    0    0 -0.88037798956E+02 -0.15670592056E+02 -0.11286703781E+03  0.19076163305E+03  0.12511918685E+03 0.  0.
         24    2    1    2    0    0  0.48379633802E+01  0.41230079248E+02  0.12360760800E+03  0.15367172901E+03  0.81319334825E+02 0.  0.
        -13    1    5    5    0    0 -0.35304879939E+02  0.32037508266E+02  0.48458244885E+02  0.67978216958E+02  0.00000000000E+00 0.  1.
         14    1    5    5    0    0  0.40142843319E+02  0.91925709820E+01  0.75149363112E+02  0.85693512048E+02  0.00000000000E+00 0. -1.
         11    1    3    3    0    0  0.93830262693E+02 -0.27685789387E+02 -0.88248805504E+03  0.88789401868E+03  0.00000000000E+00 0. -1.
        -12    1    3    3    0    0 -0.10630427117E+02  0.21263021944E+01 -0.25397008538E+02  0.27614039625E+02  0.00000000000E+00 0.  1.
          5    1    4    4  501    0 -0.51453004037E+02 -0.58749044449E+02 -0.10873588366E+03  0.13393963806E+03  0.41800000000E+01 0. -1.
         -5    1    4    4    0  501 -0.36584794919E+02  0.43078452393E+02 -0.41311541537E+01  0.56821994989E+02  0.41800000000E+01 0. -1.
</event>
<event>
11    1  0.8864208E-009  0.1562153E+03  0.7561462E-02  0.1090692E+00
         22   -1    0    0    0    0  0.00000000000E+00  0.00000000000E+00  0.14330429236E+03  0.14330429236E+03  0.00000000000E+00 0. -1.
         22   -1    0    0    0    0 -0.00000000000E+00 -0.00000000000E+00 -0.79988650430E+03  0.79988650430E+03  0.00000000000E+00 0. -1.
        -24    2    1    2    0    0  0.77703910568E+02 -0.29535425417E+02 -0.44522599407E+03  0.46022033423E+03  0.81647603580E+02 0.  0.
         25    2    1    2    0    0 -0.13071121401E+03  0.16330187694E+02 -0.29732057932E+03  0.34842394094E+03  0.12509044421E+03 0.  0.
         24    2    1    2    0    0  0.53007303443E+02  0.13205237722E+02  0.85964361457E+02  0.13454652149E+03  0.87913266822E+02 0.  0.
        -13    1    5    5    0    0  0.27697626960E+02 -0.35225938419E+02  0.20515693706E+02  0.49284064006E+02  0.00000000000E+00 0.  1.
         14    1    5    5    0    0  0.25309676483E+02  0.48431176142E+02  0.65448667751E+02  0.85262457486E+02  0.00000000000E+00 0. -1.
         11    1    3    3    0    0  0.57976990874E+02 -0.37072690581E+02 -0.15946594350E+03  0.17368103809E+03  0.00000000000E+00 0. -1.
        -12    1    3    3    0    0  0.19726919694E+02  0.75372651639E+01 -0.28576005057E+03  0.28653929614E+03  0.00000000000E+00 0.  1.
          5    1    4    4  501    0 -0.44396468671E+02  0.63205826362E+02 -0.17616247203E+03  0.19239727615E+03  0.41800000000E+01 0. -1.
         -5    1    4    4    0  501 -0.86314745339E+02 -0.46875638667E+02 -0.12115810729E+03  0.15602666479E+03  0.41800000000E+01 0. -1.
</event>
<event>
11    1  0.8864208E-009  0.1362287E+03  0.7561462E-02  0.1111844E+00
         22   -1    0    0    0    0  0.00000000000E+00  0.00000000000E+00  0.18432018010E+03  0.18432018010E+03  0.00000000000E+00 0. -1.
         22   -1    0    0    0    0 -0.00000000000E+00 -0.00000000000E+00 -0.10252362920E+04  0.10252362920E+04  0.00000000000E+00 0.  1.
        -24    2    1    2    0    0  0.55300073019E+02  0.62228212763E+01 -0.87399954213E+03  0.87945655773E+03  0.80447596010E+02 0.  0.
         25    2    1    2    0    0  0.45957984237E+01 -0.56173303050E+01 -0.10286400307E+03  0.16212113790E+03  0.12509829921E+03 0.  0.
         24    2    1    2    0    0 -0.59895871443E+02 -0.60549097123E+00  0.13594743332E+03  0.16797877644E+03  0.78404608756E+02 0.  0.
        -13    1    5    5    0    0 -0.23926114908E+01 -0.12802003577E+02 -0.60015302516E+01  0.14339952953E+02  0.00000000000E+00 0.  1.
         14    1    5    5    0    0 -0.57503259952E+02  0.12196512605E+02  0.14194896357E+03  0.15363882349E+03  0.00000000000E+00 0. -1.
         13    1    3    3    0    0 -0.13432758252E+02  0.18540616258E+02 -0.11535025620E+03  0.11760048916E+03  0.00000000000E+00 0. -1.
        -14    1    3    3    0    0  0.68732831272E+02 -0.12317794982E+02 -0.75864928593E+03  0.76185606857E+03  0.00000000000E+00 0.  1.
          5    1    4    4  501    0 -0.15238946132E+02 -0.21975344530E+02 -0.12502539214E+03  0.12792170389E+03  0.41800000000E+01 0. -1.
         -5    1    4    4    0  501  0.19834744556E+02  0.16358014224E+02  0.22161389073E+02  0.34199434010E+02  0.41800000000E+01 0. -1.
</event>
<event>
11    1  0.8864208E-009  0.1555267E+03  0.7561462E-02  0.1091362E+00
         22   -1    0    0    0    0  0.00000000000E+00  0.00000000000E+00  0.56881642410E+03  0.56881642410E+03  0.00000000000E+00 0.  1.
         22   -1    0    0    0    0 -0.00000000000E+00 -0.00000000000E+00 -0.18383507307E+03  0.18383507307E+03  0.00000000000E+00 0.  1.
        -24    2    1    2    0    0  0.72270801168E+02 -0.47280849290E+02 -0.11117407717E+03  0.16086558869E+03  0.77842885225E+02 0.  0.
         25    2    1    2    0    0  0.37446085319E+01  0.10713626566E+03  0.14588955547E+03  0.22005347992E+03  0.12509024788E+03 0.  0.
         24    2    1    2    0    0 -0.76015409700E+02 -0.59855416373E+02  0.35026587274E+03  0.37173242856E+03  0.78344134815E+02 0.  0.
        -13    1    5    5    0    0 -0.54181672385E+02 -0.78197253936E+02  0.24995189537E+03  0.26744422623E+03  0.00000000000E+00 0.  1.
         14    1    5    5    0    0 -0.21833737314E+02  0.18341837562E+02  0.10031397737E+03  0.10428820233E+03  0.00000000000E+00 0. -1.
         11    1    3    3    0    0  0.13300152027E+02 -0.35465541341E+02 -0.41548313800E+01  0.38104609830E+02  0.00000000000E+00 0. -1.
        -12    1    3    3    0    0  0.58970649141E+02 -0.11815307949E+02 -0.10701924579E+03  0.12276097886E+03  0.00000000000E+00 0.  1.
          5    1    4    4  501    0 -0.13227353890E+02  0.11552049082E+03  0.57913582016E+02  0.12996692684E+03  0.41800000000E+01 0.  1.
         -5    1    4    4    0  501  0.16971962422E+02 -0.83842251572E+01  0.87975973454E+02  0.90086553076E+02  0.41800000000E+01 0.  1.
</event>
<event>
11    1  0.8864208E-009  0.1371608E+03  0.7561462E-02  0.1110771E+00
         22   -1    0    0    0    0  0.00000000000E+00  0.00000000000E+00  0.14939035302E+04  0.14939035302E+04  0.00000000000E+00 0.  1.
         22   -1    0    0    0    0 -0.00000000000E+00 -0.00000000000E+00 -0.35364711205E+03  0.35364711205E+03  0.00000000000E+00 0.  1.
         24    2    1    2    0    0  0.19423038484E+00  0.48368626719E+02 -0.33132820910E+03  0.34408407382E+03  0.79220615600E+02 0.  0.
         25    2    1    2    0    0 -0.51594664769E+02 -0.18793662054E+02  0.32522371387E+03  0.35274224560E+03  0.12506564915E+03 0.  0.
        -24    2    1    2    0    0  0.51400434384E+02 -0.29574964665E+02  0.11463609133E+04  0.11507243228E+04  0.80662508321E+02 0.  0.
        -11    1    3    3    0    0 -0.26039288242E+02  0.41348951721E+01 -0.21853666327E+03  0.22012136445E+03  0.00000000000E+00 0.  1.
         12    1    3    3    0    0  0.26233518627E+02  0.44233731547E+02 -0.11279154583E+03  0.12396270938E+03  0.00000000000E+00 0. -1.
         13    1    5    5    0    0  0.13333746541E+02 -0.35253588090E+02  0.19639150939E+03  0.19997557158E+03  0.00000000000E+00 0. -1.
        -14    1    5    5    0    0  0.38066687844E+02  0.56786234251E+01  0.94996940394E+03  0.95074875120E+03  0.00000000000E+00 0.  1.
          5    1    4    4  501    0 -0.75730789455E+02 -0.51601181718E+02  0.18245082593E+03  0.20421461923E+03  0.41800000000E+01 0. -1.
         -5    1    4    4    0  501  0.24136124686E+02  0.32807519664E+02  0.14277288795E+03  0.14852762637E+03  0.41800000000E+01 0. -1.
</event>
<event>
11    1  0.8864208E-009  0.1386294E+03  0.7561462E-02  0.1109099E+00
         22   -1    0    0    0    0  0.00000000000E+00  0.00000000000E+00  0.26428920997E+03  0.26428920997E+03  0.00000000000E+00 0. -1.
         22   -1    0    0    0    0 -0.00000000000E+00 -0.00000000000E+00 -0.14556574235E+04  0.14556574235E+04  0.00000000000E+00 0.  1.
         24    2    1    2    0    0 -0.37895749829E+02  0.47214594530E+02 -0.11734361858E+04  0.11777244444E+04  0.80106672748E+02 0.  0.
         25    2    1    2    0    0  0.16933583920E+02 -0.55491743744E+02 -0.25554040898E+03  0.29034843544E+03  0.12504092710E+03 0.  0.
        -24    2    1    2    0    0  0.20962165910E+02  0.82771492137E+01  0.23760838127E+03  0.25187375360E+03  0.80465652923E+02 0.  0.
        -13    1    3    3    0    0 -0.64368571581E+01  0.58616184392E+02 -0.94644071426E+03  0.94827597029E+03  0.00000000000E+00 0.  1.
         14    1    3    3    0    0 -0.31458892671E+02 -0.11401589862E+02 -0.22699547152E+03  0.22944847411E+03  0.00000000000E+00 0. -1.
         13    1    5    5    0    0  0.96521562692E+01  0.11994309173E+01  0.23831462022E+03  0.23851302054E+03  0.00000000000E+00 0. -1.
        -14    1    5    5    0    0  0.11310009641E+02  0.70777182964E+01 -0.70623894866E+00  0.13360733056E+02  0.00000000000E+00 0.  1.
          5    1    4    4  501    0 -0.13746653499E+02  0.30913047228E+02 -0.25193677324E+02  0.42388450650E+02  0.41800000000E+01 0. -1.
         -5    1    4    4    0  501  0.30680237419E+02 -0.86404790972E+02 -0.23034673166E+03  0.24795998479E+03  0.41800000000E+01 0. -1.
</event>
<event>
11    1  0.8864208E-009  0.2347871E+03  0.7561462E-02  0.1032331E+00
         22   -1    0    0    0    0  0.00000000000E+00  0.00000000000E+00  0.12411778493E+04  0.12411778493E+04  0.00000000000E+00 0. -1.
         22   -1    0    0    0    0 -0.00000000000E+00 -0.00000000000E+00 -0.79762793173E+03  0.79762793173E+03  0.00000000000E+00 0. -1.
        -24    2    1    2    0    0  0.34047130590E+02 -0.80138530632E+02 -0.31404146973E+03  0.33568554610E+03  0.80506831753E+02 0.  0.
         25    2    1    2    0    0 -0.64019174611E+02 -0.11779595221E+03 -0.44502262950E+03  0.48131834160E+03  0.12509142305E+03 0.  0.
         24    2    1    2    0    0  0.29972044020E+02  0.19793448284E+03  0.12026140168E+04  0.12218018934E+04  0.80268363646E+02 0.  0.
        -13    1    5    5    0    0 -0.13694642991E+02  0.74130688333E+01  0.40998038786E+02  0.43855855030E+02  0.00000000000E+00 0.  1.
         14    1    5    5    0    0  0.43666687011E+02  0.19052141401E+03  0.11616159781E+04  0.11779460383E+04  0.00000000000E+00 0. -1.
         11    1    3    3    0    0  0.60362530048E+02 -0.48663814467E+02 -0.20211988678E+03  0.21648152462E+03  0.00000000000E+00 0. -1.
        -12    1    3    3    0    0 -0.26315399458E+02 -0.31474716165E+02 -0.11192158296E+03  0.11920402148E+03  0.00000000000E+00 0.  1.
          5    1    4    4  501    0 -0.15670727161E+02 -0.12135023027E+03 -0.38529717333E+03  0.40428063799E+03  0.41800000000E+01 0.  1.
         -5    1    4    4    0  501 -0.48348447450E+02  0.35542780602E+01 -0.59725456171E+02  0.77037703615E+02  0.41800000000E+01 0.  1.
</event>
<event>
11    1  0.8864208E-009  0.1947164E+03  0.7561462E-02  0.1058324E+00
         22   -1    0    0    0    0  0.00000000000E+00  0.00000000000E+00  0.75119694961E+03  0.75119694961E+03  0.00000000000E+00 0.  1.
         22   -1    0    0    0    0 -0.00000000000E+00 -0.00000000000E+00 -0.62177385086E+03  0.62177385086E+03  0.00000000000E+00 0.  1.
         24    2    1    2    0    0  0.31808662373E+02 -0.77887801507E+02 -0.52571987934E+03  0.53858300934E+03  0.81313995054E+02 0.  0.
         25    2    1    2    0    0 -0.86344172317E+02 -0.69904341481E+02  0.13148185367E+02  0.16781217462E+03  0.12508444396E+03 0.  0.
        -24    2    1    2    0    0  0.54535509944E+02  0.14779214299E+03  0.64199479272E+03  0.66657561650E+03  0.85726887638E+02 0.  0.
        -13    1    3    3    0    0 -0.65713159543E+01 -0.47024807019E+02 -0.41106288042E+03  0.41379609269E+03  0.00000000000E+00 0.  1.
         14    1    3    3    0    0  0.38379978327E+02 -0.30862994489E+02 -0.11465699892E+03  0.12478691665E+03  0.00000000000E+00 0. -1.
         13    1    5    5    0    0  0.21942104319E+02  0.14473766888E+03  0.51138817712E+03  0.53192886407E+03  0.00000000000E+00 0. -1.
        -14    1    5    5    0    0  0.32593405625E+02  0.30544741133E+01  0.13060661560E+03  0.13464675243E+03  0.00000000000E+00 0.  1.
          5    1    4    4  501    0  0.29621221533E+02 -0.33787807278E+02  0.10092779760E+02  0.46242505221E+02  0.41800000000E+01 0.  1.
         -5    1    4    4    0  501 -0.11596539385E+03 -0.36116534202E+02  0.30554056074E+01  0.12156966940E+03  0.41800000000E+01 0.  1.
</event>
<event>
11    1  0.8864208E-009  0.2795978E+03  0.7561462E-02  0.1009216E+00
         22   -1    0    0    0    0  0.00000000000E+00  0.00000000000E+00  0.78894399955E+03  0.78894399955E+03  0.00000000000E+00 0.  1.
         22   -1    0    0    0    0 -0.00000000000E+00 -0.00000000000E+00 -0.12562542823E+04  0.12562542823E+04  0.00000000000E+00 0. -1.
         24    2    1    2    0    0 -0.13109291533E+03 -0.21661931640E+03 -0.11151537980E+04  0.11463318658E+04  0.79996702972E+02 0.  0.
         25    2    1    2    0    0  0.14682749210E+03  0.17092060774E+03  0.14234607020E+02  0.25811947627E+03  0.12510345081E+03 0.  0.
        -24    2    1    2    0    0 -0.15734576770E+02  0.45698708661E+02  0.63360890826E+03  0.64074693984E+03  0.82221915585E+02 0.  0.
        -13    1    3    3    0    0  0.55992601716E+01  0.23772544855E+01 -0.13069744363E+02  0.14416007460E+02  0.00000000000E+00 0.  1.
         14    1    3    3    0    0 -0.13669217551E+03 -0.21899657089E+03 -0.11020840537E+04  0.11319158583E+04  0.00000000000E+00 0. -1.
         13    1    5    5    0    0 -0.21871530764E+02 -0.19733846420E+02  0.17756742873E+03  0.17999438963E+03  0.00000000000E+00 0. -1.
        -14    1    5    5    0    0  0.61369539932E+01  0.65432555081E+02  0.45604147953E+03  0.46075255021E+03  0.00000000000E+00 0.  1.
          5    1    4    4  501    0  0.14707411087E+02  0.59112939054E+02  0.52827844128E+02  0.80739711541E+02  0.41800000000E+01 0.  1.
         -5    1    4    4    0  501  0.13212008102E+03  0.11180766869E+03 -0.38593237108E+02  0.17737976473E+03  0.41800000000E+01 0.  1.
</event>
<event>
11    1  0.8864208E-009  0.1836840E+03  0.7561462E-02  0.1066701E+00
         22   -1    0    0    0    0  0.00000000000E+00  0.00000000000E+00  0.25127148868E+03  0.25127148868E+03  0.00000000000E+00 0.  1.
         22   -1    0    0    0    0 -0.00000000000E+00 -0.00000000000E+00 -0.24352588578E+04  0.24352588578E+04  0.00000000000E+00 0.  1.
         24    2    1    2    0    0 -0.20848315700E+02  0.67421521399E+02 -0.22135646039E+04  0.22162196975E+04  0.82347908852E+02 0.  0.
         25    2    1    2    0    0 -0.11593961473E+03 -0.45106063771E+02 -0.14873459337E+03  0.23074679500E+03  0.12508218453E+03 0.  0.
        -24    2    1    2    0    0  0.13678793043E+03 -0.22315457629E+02  0.17831182813E+03  0.23956385400E+03  0.79917548345E+02 0.  0.
        -13    1    3    3    0    0 -0.21320075232E+02  0.85693033370E+02 -0.16527957360E+04  0.16551530402E+04  0.00000000000E+00 0.  1.
         14    1    3    3    0    0  0.47175953118E+00 -0.18271511970E+02 -0.56076886789E+03  0.56106665727E+03  0.00000000000E+00 0. -1.
         11    1    5    5    0    0  0.74944914278E+02  0.23343222044E+02  0.11860727197E+03  0.14222985325E+03  0.00000000000E+00 0. -1.
        -12    1    5    5    0    0  0.61843016150E+02 -0.45658679673E+02  0.59704556158E+02  0.97334000750E+02  0.00000000000E+00 0.  1.
          5    1    4    4  501    0  0.10330462482E+02  0.26362299118E+02 -0.11047471033E+02  0.30679118080E+02  0.41800000000E+01 0.  1.
         -5    1    4    4    0  501 -0.12627007721E+03 -0.71468362889E+02 -0.13768712234E+03  0.20006767693E+03  0.41800000000E+01 0.  1.
</event>
<event>
11    1  0.8864208E-009  0.1563657E+03  0.7561462E-02  0.1090546E+00
         22   -1    0    0    0    0  0.00000000000E+00  0.00000000000E+00  0.11120918486E+04  0.11120918486E+04  0.00000000000E+00 0. -1.
         22   -1    0    0    0    0 -0.00000000000E+00 -0.00000000000E+00 -0.16992171874E+03  0.16992171874E+03  0.00000000000E+00 0. -1.
         24    2    1    2    0    0 -0.18001978017E+02  0.23086113953E+02 -0.70341683046E+02  0.10923276794E+03  0.78273912306E+02 0.  0.
         25    2    1    2    0    0 -0.65674515159E+02 -0.66070286894E+02  0.33041076303E+01  0.15600260203E+03  0.12508984755E+03 0.  0.
        -24    2    1    2    0    0  0.83676493176E+02  0.42984172942E+02  0.10092077053E+04  0.10167781973E+04  0.80550081455E+02 0.  0.
        -11    1    3    3    0    0  0.16146840954E+02 -0.92812575997E+01  0.59910077660E+01  0.19564109729E+02  0.00000000000E+00 0.  1.
         12    1    3    3    0    0 -0.34148818972E+02  0.32367371553E+02 -0.76332690812E+02  0.89668658209E+02  0.00000000000E+00 0. -1.
         13    1    5    5    0    0  0.84880013548E+02  0.60546297917E+02  0.91673876204E+03  0.92264859439E+03  0.00000000000E+00 0. -1.
        -14    1    5    5    0    0 -0.12035203721E+01 -0.17562124975E+02  0.92468943208E+02  0.94129602957E+02  0.00000000000E+00 0.  1.
          5    1    4    4  501    0 -0.62117473898E+02 -0.69502836190E+02  0.52038852607E+02  0.10683978371E+03  0.41800000000E+01 0.  1.
         -5    1    4    4    0  501 -0.35570412613E+01  0.34325492957E+01 -0.48734744977E+02  0.49162818320E+02  0.41800000000E+01 0.  1.
</event>
<event>
11    1  0.8864208E-009  0.2117703E+03  0.7561462E-02  0.1046499E+00
         22   -1    0    0    0    0  0.00000000000E+00  0.00000000000E+00  0.14437900390E+03  0.14437900390E+03  0.00000000000E+00 0.  1.
         22   -1    0    0    0    0 -0.00000000000E+00 -0.00000000000E+00 -0.13585071356E+04  0.13585071356E+04  0.00000000000E+00 0.  1.
         24    2    1    2    0    0 -0.44868704051E+02 -0.48149908171E+02 -0.97867588220E+03  0.98408269562E+03  0.79250584562E+02 0.  0.
         25    2    1    2    0    0 -0.92978692435E+02  0.15081793557E+03 -0.24831331723E+03  0.32969432705E+03  0.12509100224E+03 0.  0.
        -24    2    1    2    0    0  0.13784739649E+03 -0.10266802740E+03  0.12861067719E+02  0.18910911684E+03  0.77808884069E+02 0.  0.
        -11    1    3    3    0    0 -0.52992612536E+02 -0.43700697004E+02 -0.96570214626E+03  0.96814183011E+03  0.00000000000E+00 0.  1.
         12    1    3    3    0    0  0.81239084859E+01 -0.44492111669E+01 -0.12973735933E+02  0.15940865508E+02  0.00000000000E+00 0. -1.
         13    1    5    5    0    0  0.87288449767E+02 -0.23645504929E+02 -0.14035634656E+02  0.91517115374E+02  0.00000000000E+00 0. -1.
        -14    1    5    5    0    0  0.50558946718E+02 -0.79022522471E+02  0.26896702375E+02  0.97592001464E+02  0.00000000000E+00 0.  1.
          5    1    4    4  501    0 -0.27088209494E+02 -0.30801968484E+01  0.29505349601E+01  0.27738723164E+02  0.41800000000E+01 0. -1.
         -5    1    4    4    0  501 -0.65890482941E+02  0.15389813242E+03 -0.25126385219E+03  0.30195560389E+03  0.41800000000E+01 0. -1.
</event>
<event>
11    1  0.8864208E-009  0.2253433E+03  0.7561462E-02  0.1037921E+00
         22   -1    0    0    0    0  0.00000000000E+00  0.00000000000E+00  0.63421425987E+03  0.63421425987E+03  0.00000000000E+00 0.  1.
         22   -1    0    0    0    0 -0.00000000000E+00 -0.00000000000E+00 -0.45873885662E+03  0.45873885662E+03  0.00000000000E+00 0. -1.
        -24    2    1    2    0    0 -0.16098549003E+03  0.94131341689E+02 -0.38109952749E+03  0.43179973476E+03  0.80231687012E+02 0.  0.
         25    2    1    2    0    0  0.16477271762E+03 -0.11134084555E+03  0.24790049341E+03  0.34153902117E+03  0.12508963184E+03 0.  0.
         24    2    1    2    0    0 -0.37872275987E+01  0.17209503858E+02  0.30867443734E+03  0.31961436055E+03  0.81011857693E+02 0.  0.
        -13    1    5    5    0    0 -0.31245684103E+02  0.29044233092E+02  0.98740782863E+02  0.10756208650E+03  0.00000000000E+00 0.  1.
         14    1    5    5    0    0  0.27458456504E+02 -0.11834729234E+02  0.20993365447E+03  0.21205227405E+03  0.00000000000E+00 0. -1.
         13    1    3    3    0    0 -0.12183726006E+03  0.10149586683E+03 -0.33655460070E+03  0.37204129901E+03  0.00000000000E+00 0. -1.
        -14    1    3    3    0    0 -0.39148229970E+02 -0.73645251374E+01 -0.44544926794E+02  0.59758435750E+02  0.00000000000E+00 0.  1.
          5    1    4    4  501    0  0.15087925098E+03 -0.11910237784E+03  0.15436796425E+03  0.24657020414E+03  0.41800000000E+01 0. -1.
         -5    1    4    4    0  501  0.13893466648E+02  0.77615322936E+01  0.93532529151E+02  0.94968817032E+02  0.41800000000E+01 0. -1.
</event>
<event>
11    1  0.8864208E-009  0.2058356E+03  0.7561462E-02  0.1050472E+00
         22   -1    0    0    0    0  0.00000000000E+00  0.00000000000E+00  0.32815996560E+03  0.32815996560E+03  0.00000000000E+00 0.  1.
         22   -1    0    0    0    0 -0.00000000000E+00 -0.00000000000E+00 -0.78308510915E+03  0.78308510915E+03  0.00000000000E+00 0.  1.
        -24    2    1    2    0    0  0.11419160433E+03 -0.34175848693E+02 -0.20197453914E+03  0.24780826739E+03  0.80046934944E+02 0.  0.
         25    2    1    2    0    0 -0.22391242054E+03  0.17274597791E+02 -0.51052195235E+03  0.57158942191E+03  0.12508644852E+03 0.  0.
         24    2    1    2    0    0  0.10972081621E+03  0.16901250902E+02  0.25757134794E+03  0.29184738545E+03  0.80669618323E+02 0.  0.
        -13    1    5    5    0    0  0.89685113869E+02  0.35846622219E+02  0.24110448778E+03  0.25973019463E+03  0.00000000000E+00 0.  1.
         14    1    5    5    0    0  0.20035702336E+02 -0.18945371317E+02  0.16466860163E+02  0.32117190819E+02  0.00000000000E+00 0. -1.
         11    1    3    3    0    0 -0.42854753812E+00 -0.24715072545E+02 -0.17020801860E+02  0.30012100224E+02  0.00000000000E+00 0. -1.
        -12    1    3    3    0    0  0.11462015187E+03 -0.94607761485E+01 -0.18495373728E+03  0.21779616717E+03  0.00000000000E+00 0.  1.
          5    1    4    4  501    0 -0.21258839340E+03  0.53115406748E+02 -0.44038059583E+03  0.49190203600E+03  0.41800000000E+01 0. -1.
         -5    1    4    4    0  501 -0.11324027140E+02 -0.35840808957E+02 -0.70141356521E+02  0.79687385902E+02  0.41800000000E+01 0. -1.
</event>
<event>
11    1  0.8864208E-009  0.1446065E+03  0.7561462E-02  0.1102521E+00
         22   -1    0    0    0    0  0.00000000000E+00  0.00000000000E+00  0.19304805139E+03  0.19304805139E+03  0.00000000000E+00 0. -1.
         22   -1    0    0    0    0 -0.00000000000E+00 -0.00000000000E+00 -0.69350038581E+03  0.69350038581E+03  0.00000000000E+00 0. -1.
         24    2    1    2    0    0 -0.27011404483E+02  0.66531502884E+02 -0.57005288559E+03  0.58017804559E+03  0.80561872921E+02 0.  0.
         25    2    1    2    0    0  0.43502027971E+02 -0.69049496619E+02 -0.49869003822E+02  0.15746317793E+03  0.12508986946E+03 0.  0.
        -24    2    1    2    0    0 -0.16490623488E+02  0.25179937353E+01  0.11946955499E+03  0.14890721368E+03  0.87304654867E+02 0.  0.
        -13    1    3    3    0    0 -0.30475882064E+02  0.33046291709E+02 -0.10911331553E+03  0.11801081480E+03  0.00000000000E+00 0.  1.
         14    1    3    3    0    0  0.34644775814E+01  0.33485211175E+02 -0.46093957005E+03  0.46216723079E+03  0.00000000000E+00 0. -1.
         11    1    5    5    0    0  0.21408938522E+02  0.29500109235E+02  0.79940846373E+02  0.87858625145E+02  0.00000000000E+00 0. -1.
        -12    1    5    5    0    0 -0.37899562010E+02 -0.26982115500E+02  0.39528708614E+02  0.61048588535E+02  0.00000000000E+00 0.  1.
          5    1    4    4  501    0  0.57469621503E+02 -0.17735273134E+02  0.25222204209E+02  0.65352347273E+02  0.41800000000E+01 0.  1.
         -5    1    4    4    0  501 -0.13967593533E+02 -0.51314223485E+02 -0.75091208031E+02  0.92110830658E+02  0.41800000000E+01 0.  1.
</event>
<event>
11    1  0.8864208E-009  0.1416492E+03  0.7561462E-02  0.1105731E+00
         22   -1    0    0    0    0  0.00000000000E+00  0.00000000000E+00  0.36743641864E+03  0.36743641864E+03  0.00000000000E+00 0. -1.
         22   -1    0    0    0    0 -0.00000000000E+00 -0.00000000000E+00 -0.23336667485E+04  0.23336667485E+04  0.00000000000E+00 0. -1.
         24    2    1    2    0    0  0.10460815805E+02  0.68103444734E+02 -0.20284435704E+04  0.20312271140E+04  0.80949135055E+02 0.  0.
         25    2    1    2    0    0 -0.21159228159E+02 -0.37792618925E+02 -0.28383920428E+03  0.31319028165E+03  0.12508982235E+03 0.  0.
        -24    2    1    2    0    0  0.10698412354E+02 -0.30310825809E+02  0.34605244480E+03  0.35668577151E+03  0.80244893060E+02 0.  0.
        -13    1    3    3    0    0  0.44364170554E+02  0.28218445703E+02 -0.85344396702E+03  0.85506202416E+03  0.00000000000E+00 0.  1.
         14    1    3    3    0    0 -0.33903354748E+02  0.39884999031E+02 -0.11749996033E+04  0.11761650898E+04  0.00000000000E+00 0. -1.
         11    1    5    5    0    0  0.24434379239E+02 -0.34041450968E+02  0.33747706970E+03  0.34006856933E+03  0.00000000000E+00 0. -1.
        -12    1    5    5    0    0 -0.13735966885E+02  0.37306251592E+01  0.85753750962E+01  0.16617202183E+02  0.00000000000E+00 0.  1.
          5    1    4    4  501    0 -0.22639939656E+02 -0.69993014557E+02 -0.26619809111E+03  0.27620732262E+03  0.41800000000E+01 0.  1.
         -5    1    4    4    0  501  0.14807114965E+01  0.32200395632E+02 -0.17641113165E+02  0.36982959037E+02  0.41800000000E+01 0.  1.
</event>
<event>
11    1  0.8864208E-009  0.1311537E+03  0.7561462E-02  0.1117860E+00
         22   -1    0    0    0    0  0.00000000000E+00  0.00000000000E+00  0.99821191145E+03  0.99821191145E+03  0.00000000000E+00 0.  1.
         22   -1    0    0    0    0 -0.00000000000E+00 -0.00000000000E+00 -0.17967314148E+04  0.17967314148E+04  0.00000000000E+00 0.  1.
         24    2    1    2    0    0  0.38348588325E+02  0.10529065364E+02 -0.15552382138E+04  0.15579323370E+04  0.82497207863E+02 0.  0.
         25    2    1    2    0    0 -0.56045026558E+02 -0.45473333478E+02 -0.21604150875E+03  0.25986649177E+03  0.12509113071E+03 0.  0.
        -24    2    1    2    0    0  0.17696438233E+02  0.34944268114E+02  0.97276021924E+03  0.97714449753E+03  0.83753561788E+02 0.  0.
        -11    1    3    3    0    0  0.17251713508E+01  0.36587284056E+02 -0.10672806400E+04  0.10679089709E+04  0.00000000000E+00 0.  1.
         12    1    3    3    0    0  0.36623416974E+02 -0.26058218692E+02 -0.48795757384E+03  0.49002336608E+03  0.00000000000E+00 0. -1.
         13    1    5    5    0    0 -0.23119763338E+02  0.38832323838E+02  0.33032974731E+03  0.33340698072E+03  0.00000000000E+00 0. -1.
        -14    1    5    5    0    0  0.40816201571E+02 -0.38880557237E+01  0.64243047193E+03  0.64373751681E+03  0.00000000000E+00 0.  1.
          5    1    4    4  501    0 -0.34111377416E+02 -0.73750514489E+02 -0.20743681433E+03  0.22282331295E+03  0.41800000000E+01 0. -1.
         -5    1    4    4    0  501 -0.21933649141E+02  0.28277181011E+02 -0.86046944171E+01  0.37043178813E+02  0.41800000000E+01 0. -1.
</event>
<event>
11    1  0.8864208E-009  0.1858831E+03  0.7561462E-02  0.1064981E+00
         22   -1    0    0    0    0  0.00000000000E+00  0.00000000000E+00  0.53858735583E+03  0.53858735583E+03  0.00000000000E+00 0.  1.
         22   -1    0    0    0    0 -0.00000000000E+00 -0.00000000000E+00 -0.11548284050E+04  0.11548284050E+04  0.00000000000E+00 0. -1.
         24    2    1    2    0    0  0.50068271533E+02 -0.14113334319E+03 -0.98779211561E+03  0.10025005760E+04  0.82756805422E+02 0.  0.
         25    2    1    2    0    0 -0.71326204930E+02  0.51073275521E+02 -0.11340856520E+03  0.19027531747E+03  0.12508911543E+03 0.  0.
        -24    2    1    2    0    0  0.21257933397E+02  0.90060067672E+02  0.48495963164E+03  0.50063986736E+03  0.83016365545E+02 0.  0.
        -11    1    3    3    0    0  0.80880019437E+01 -0.86805479868E+02 -0.33690141250E+03  0.34799880583E+03  0.00000000000E+00 0.  1.
         12    1    3    3    0    0  0.41980269589E+02 -0.54327863325E+02 -0.65089070311E+03  0.65450177017E+03  0.00000000000E+00 0. -1.
         13    1    5    5    0    0  0.45724815176E+00 -0.11458836339E+02  0.12561121424E+02  0.17008697115E+02  0.00000000000E+00 0. -1.
        -14    1    5    5    0    0  0.20800685245E+02  0.10151890401E+03  0.47239851022E+03  0.48363117025E+03  0.00000000000E+00 0.  1.
          5    1    4    4  501    0 -0.67806833778E+02  0.86767938337E+02 -0.10700137942E+03  0.15360081194E+03  0.41800000000E+01 0.  1.
         -5    1    4    4    0  501 -0.35193711519E+01 -0.35694662816E+02 -0.64071857796E+01  0.36674505538E+02  0.41800000000E+01 0.  1.
</event>
<event>
11    1  0.8864208E-009  0.1919604E+03  0.7561462E-02  0.1060359E+00
         22   -1    0    0    0    0  0.00000000000E+00  0.00000000000E+00  0.12046484187E+03  0.12046484187E+03  0.00000000000E+00 0. -1.
         22   -1    0    0    0    0 -0.00000000000E+00 -0.00000000000E+00 -0.68710183049E+03  0.68710183049E+03  0.00000000000E+00 0.  1.
        -24    2    1    2    0    0  0.11382472225E+02  0.12632843934E+03 -0.27545344609E+03  0.31351622507E+03  0.79557445642E+02 0.  0.
         25    2    1    2    0    0 -0.91611154676E+02  0.31455972707E+02 -0.24968693251E+03  0.29557440599E+03  0.12505432153E+03 0.  0.
         24    2    1    2    0    0  0.80228682452E+02 -0.15778441205E+03 -0.41496610026E+02  0.19847604130E+03  0.79612864239E+02 0.  0.
        -13    1    5    5    0    0  0.70659109791E+02 -0.11586244422E+03 -0.63888132465E+02  0.14999503074E+03  0.00000000000E+00 0.  1.
         14    1    5    5    0    0  0.95695726605E+01 -0.41921967829E+02  0.22391522439E+02  0.48481010558E+02  0.00000000000E+00 0. -1.
         11    1    3    3    0    0  0.17619641928E+02  0.26283605261E+02 -0.16178706486E+02  0.35539136607E+02  0.00000000000E+00 0. -1.
        -12    1    3    3    0    0 -0.62371697036E+01  0.10004483408E+03 -0.25927473961E+03  0.27797708846E+03  0.00000000000E+00 0.  1.
          5    1    4    4  501    0 -0.89030655591E+02 -0.30665554769E+02 -0.17037776475E+03  0.19471232371E+03  0.41800000000E+01 0.  1.
         -5    1    4    4    0  501 -0.25804990853E+01  0.62121527476E+02 -0.79309167759E+02  0.10086208228E+03  0.41800000000E+01 0.  1.
</event>
<event>
11    1  0.8864208E-009  0.2259917E+03  0.7561462E-02  0.1037528E+00
         22   -1    0    0    0    0  0.00000000000E+00  0.00000000000E+00  0.21093557552E+04  0.21093557552E+04  0.00000000000E+00 0.  1.
         22   -1    0    0    0    0 -0.00000000000E+00 -0.00000000000E+00 -0.27363789898E+03  0.27363789898E+03  0.00000000000E+00 0. -1.
        -24    2    1    2    0    0  0.66897545392E+02 -0.16894950340E+03 -0.18831846356E+03  0.27422777833E+03  0.81962274303E+02 0.  0.
         25    2    1    2    0    0 -0.59554270663E+02  0.28188395493E+03  0.59655000544E+03  0.67418438414E+03  0.12508956645E+03 0.  0.
         24    2    1    2    0    0 -0.73432747292E+01 -0.11293445153E+03  0.14274863144E+04  0.14345814917E+04  0.86595407913E+02 0.  0.
        -13    1    5    5    0    0 -0.10506092820E+02 -0.28250300262E+02  0.88526213958E+03  0.88577509179E+03  0.00000000000E+00 0.  1.
         14    1    5    5    0    0  0.31628180907E+01 -0.84684151264E+02  0.54222417479E+03  0.54880639995E+03  0.00000000000E+00 0. -1.
         11    1    3    3    0    0  0.31810182341E+00 -0.32555407873E+02 -0.83916297247E+02  0.90010558903E+02  0.00000000000E+00 0. -1.
        -12    1    3    3    0    0  0.66579443569E+02 -0.13639409553E+03 -0.10440216632E+03  0.18421721942E+03  0.00000000000E+00 0.  1.
          5    1    4    4  501    0 -0.81105807965E+02  0.17929418754E+03  0.29264141264E+03  0.35267694362E+03  0.41800000000E+01 0.  1.
         -5    1    4    4    0  501  0.21551537301E+02  0.10258976738E+03  0.30390859280E+03  0.32150744052E+03  0.41800000000E+01 0.  1.
</event>
<event>
11    1  0.8864208E-009  0.2909714E+03  0.7561462E-02  0.1004086E+00
         22   -1    0    0    0    0  0.00000000000E+00  0.00000000000E+00  0.71654767828E+02  0.71654767828E+02  0.00000000000E+00 0.  1.
         22   -1    0    0    0    0 -0.00000000000E+00 -0.00000000000E+00 -0.23214477682E+04  0.23214477682E+04  0.00000000000E+00 0.  1.
        -24    2    1    2    0    0 -0.31440004562E+03 -0.16497158793E+02 -0.11160923130E+04  0.11628897385E+04  0.86781033971E+02 0.  0.
         25    2    1    2    0    0  0.20361392357E+03 -0.12101836339E+03 -0.80493719076E+03  0.84833697799E+03  0.12509065919E+03 0.  0.
         24    2    1    2    0    0  0.11078612205E+03  0.13751552218E+03 -0.32876349666E+03  0.38187581957E+03  0.80991488175E+02 0.  0.
        -13    1    5    5    0    0  0.26921285776E+02 -0.63351020013E+01 -0.51422856314E+02  0.58388348981E+02  0.00000000000E+00 0.  1.
         14    1    5    5    0    0  0.83864836278E+02  0.14385062418E+03 -0.27734064034E+03  0.32348747059E+03  0.00000000000E+00 0. -1.
         13    1    3    3    0    0 -0.11420063889E+03 -0.19667524682E+02 -0.27746443956E+03  0.30069105851E+03  0.00000000000E+00 0. -1.
        -14    1    3    3    0    0 -0.20019940673E+03  0.31703658883E+01 -0.83862787343E+03  0.86219867999E+03  0.00000000000E+00 0.  1.
          5    1    4    4  501    0  0.72041322012E+02 -0.93516693334E+02 -0.23842045140E+03  0.26607725956E+03  0.41800000000E+01 0. -1.
         -5    1    4    4    0  501  0.13157260156E+03 -0.27501670054E+02 -0.56651673935E+03  0.58225971843E+03  0.41800000000E+01 0. -1.
</event>
<event>
11    1  0.8864208E-009  0.1443285E+03  0.7561462E-02  0.1102819E+00
         22   -1    0    0    0    0  0.00000000000E+00  0.00000000000E+00  0.11315854530E+04  0.11315854530E+04  0.00000000000E+00 0. -1.
         22   -1    0    0    0    0 -0.00000000000E+00 -0.00000000000E+00 -0.70479187827E+03  0.70479187827E+03  0.00000000000E+00 0. -1.
         24    2    1    2    0    0  0.26673233297E+02 -0.68500342570E+01 -0.61028400290E+03  0.61658151504E+03  0.83473445772E+02 0.  0.
         25    2    1    2    0    0  0.22712704962E+02 -0.46641109770E+02 -0.36267097682E+02  0.14018420543E+03  0.12508017025E+03 0.  0.
        -24    2    1    2    0    0 -0.49385938259E+02  0.53491144027E+02  0.10733446753E+04  0.10796116108E+04  0.90510578187E+02 0.  0.
        -11    1    3    3    0    0  0.18186562175E+02 -0.36627681265E+02 -0.15691058540E+03  0.16215199626E+03  0.00000000000E+00 0.  1.
         12    1    3    3    0    0  0.84866711219E+01  0.29777647008E+02 -0.45337341750E+03  0.45442951878E+03  0.00000000000E+00 0. -1.
         13    1    5    5    0    0 -0.57435047786E+02  0.56550854072E+02  0.10634270985E+04  0.10664773685E+04  0.00000000000E+00 0. -1.
        -14    1    5    5    0    0  0.80491095279E+01 -0.30597100451E+01  0.99175768425E+01  0.13134242277E+02  0.00000000000E+00 0.  1.
          5    1    4    4  501    0  0.21286154569E+02 -0.82746902518E+02  0.43580519138E+01  0.85654044091E+02  0.41800000000E+01 0.  1.
         -5    1    4    4    0  501  0.14265503925E+01  0.36105792748E+02 -0.40625149596E+02  0.54530161339E+02  0.41800000000E+01 0.  1.
</event>
<event>
11    1  0.8864208E-009  0.1376404E+03  0.7561462E-02  0.1110222E+00
         22   -1    0    0    0    0  0.00000000000E+00  0.00000000000E+00  0.16307001197E+04  0.16307001197E+04  0.00000000000E+00 0.  1.
         22   -1    0    0    0    0 -0.00000000000E+00 -0.00000000000E+00 -0.53252084798E+03  0.53252084798E+03  0.00000000000E+00 0.  1.
        -24    2    1    2    0    0  0.19559535955E+02 -0.15652756154E+02 -0.32509554349E+03  0.33467973034E+03  0.75470691551E+02 0.  0.
         25    2    1    2    0    0  0.12868252698E+02  0.63021621645E+02 -0.17601650891E+03  0.22531421807E+03  0.12508944294E+03 0.  0.
         24    2    1    2    0    0 -0.32427788653E+02 -0.47368865491E+02  0.15992913241E+04  0.16032270192E+04  0.96481941209E+02 0.  0.
        -11    1    5    5    0    0 -0.36758447379E+02 -0.37892298201E+02  0.15830555157E+04  0.15839355339E+04  0.00000000000E+00 0.  1.
         12    1    5    5    0    0  0.43306587260E+01 -0.94765672903E+01  0.16235808381E+02  0.19291485334E+02  0.00000000000E+00 0. -1.
         13    1    3    3    0    0  0.19699362299E+02 -0.13075575560E+01 -0.16441182252E+02  0.25692159419E+02  0.00000000000E+00 0. -1.
        -14    1    3    3    0    0 -0.13982634377E+00 -0.14345198598E+02 -0.30865436124E+03  0.30898757092E+03  0.00000000000E+00 0.  1.
          5    1    4    4  501    0  0.43758704533E+02  0.81405779647E+02 -0.78613182870E+02  0.12140523096E+03  0.41800000000E+01 0.  1.
         -5    1    4    4    0  501 -0.30890451836E+02 -0.18384158002E+02 -0.97403326042E+02  0.10390898712E+03  0.41800000000E+01 0.  1.
</event>
<event>
11    1  0.8864208E-009  0.1456970E+03  0.7561462E-02  0.1101359E+00
         22   -1    0    0    0    0  0.00000000000E+00  0.00000000000E+00  0.20727174071E+03  0.20727174071E+03  0.00000000000E+00 0. -1.
         22   -1    0    0    0    0 -0.00000000000E+00 -0.00000000000E+00 -0.13380585221E+04  0.13380585221E+04  0.00000000000E+00 0. -1.
         24    2    1    2    0    0  0.51818483979E+02 -0.49658986438E+02 -0.91667899022E+03  0.92276809028E+03  0.77777934589E+02 0.  0.
         25    2    1    2    0    0 -0.12234614504E+03  0.65857966738E+02 -0.38079092349E+03  0.42420947429E+03  0.12508437025E+03 0.  0.
        -24    2    1    2    0    0  0.70527661059E+02 -0.16198980300E+02  0.16668313234E+03  0.19835269821E+03  0.79523382386E+02 0.  0.
        -13    1    3    3    0    0  0.32837439706E+02 -0.55941741067E+02 -0.36448322393E+03  0.37021047577E+03  0.00000000000E+00 0.  1.
         14    1    3    3    0    0  0.18981044273E+02  0.62827546287E+01 -0.55219576629E+03  0.55255761451E+03  0.00000000000E+00 0. -1.
         13    1    5    5    0    0  0.65200576264E+02 -0.10368357271E+02  0.17490616140E+03  0.18695128583E+03  0.00000000000E+00 0. -1.
        -14    1    5    5    0    0  0.53270847950E+01 -0.58306230283E+01 -0.82230290652E+01  0.11401412383E+02  0.00000000000E+00 0.  1.
          5    1    4    4  501    0 -0.10625465633E+03 -0.11446461858E+02 -0.19773852817E+03  0.22480896646E+03  0.41800000000E+01 0.  1.
         -5    1    4    4    0  501 -0.16091488708E+02  0.77304428596E+02 -0.18305239532E+03  0.19940050783E+03  0.41800000000E+01 0.  1.
</event>
<event>
11    1  0.8864208E-009  0.1387068E+03  0.7561462E-02  0.1109011E+00
         22   -1    0    0    0    0  0.00000000000E+00  0.00000000000E+00  0.92403555098E+02  0.92403555098E+02  0.00000000000E+00 0.  1.
         22   -1    0    0    0    0 -0.00000000000E+00 -0.00000000000E+00 -0.30337315541E+04  0.30337315541E+04  0.00000000000E+00 0.  1.
         24    2    1    2    0    0  0.35906676210E+02  0.46545779398E+02 -0.27200230577E+04  0.27217419439E+04  0.76798279813E+02 0.  0.
         25    2    1    2    0    0 -0.88803251294E+02 -0.44840607858E+02 -0.25799692991E+03  0.30349077093E+03  0.12509010609E+03 0.  0.
        -24    2    1    2    0    0  0.52896575084E+02 -0.17051715409E+01  0.36691988599E+02  0.10090239438E+03  0.77679057015E+02 0.  0.
        -11    1    3    3    0    0  0.16605872819E+02 -0.11666326411E+02 -0.15340678725E+04  0.15342021039E+04  0.00000000000E+00 0.  1.
         12    1    3    3    0    0  0.19300803391E+02  0.58212105810E+02 -0.11859551852E+04  0.11875398400E+04  0.00000000000E+00 0. -1.
         11    1    5    5    0    0  0.17360067268E+02 -0.26410010526E+02 -0.13725253756E+02  0.34456395375E+02  0.00000000000E+00 0. -1.
        -12    1    5    5    0    0  0.35536507816E+02  0.24704838986E+02  0.50417242356E+02  0.66445999005E+02  0.00000000000E+00 0.  1.
          5    1    4    4  501    0 -0.12691699823E+02 -0.69765247823E+02 -0.17100941519E+03  0.18517548847E+03  0.41800000000E+01 0. -1.
         -5    1    4    4    0  501 -0.76111551471E+02  0.24924639966E+02 -0.86987514726E+02  0.11831528246E+03  0.41800000000E+01 0. -1.
</event>
<event>
11    1  0.8864208E-009  0.2456651E+03  0.7561462E-02  0.1026234E+00
         22   -1    0    0    0    0  0.00000000000E+00  0.00000000000E+00  0.61220115004E+03  0.61220115004E+03  0.00000000000E+00 0. -1.
         22   -1    0    0    0    0 -0.00000000000E+00 -0.00000000000E+00 -0.59380514439E+03  0.59380514439E+03  0.00000000000E+00 0.  1.
        -24    2    1    2    0    0 -0.50492237726E+02  0.30537195354E+02 -0.45421661284E+03  0.46500259516E+03  0.80204088121E+02 0.  0.
         25    2    1    2    0    0 -0.14866921695E+03  0.71372070730E+02 -0.53136855858E+01  0.20705318743E+03  0.12508508553E+03 0.  0.
         24    2    1    2    0    0  0.19916145468E+03 -0.10190926608E+03  0.47792630408E+03  0.53395051184E+03  0.81478913998E+02 0.  0.
        -13    1    5    5    0    0  0.83180942937E+02 -0.74981698340E+02  0.16764720585E+03  0.20161078836E+03  0.00000000000E+00 0.  1.
         14    1    5    5    0    0  0.11598051174E+03 -0.26927567743E+02  0.31027909823E+03  0.33233972349E+03  0.00000000000E+00 0. -1.
         11    1    3    3    0    0  0.14690010671E+02 -0.14055499808E+02 -0.79999453374E+02  0.82542510433E+02  0.00000000000E+00 0. -1.
        -12    1    3    3    0    0 -0.65182248397E+02  0.44592695162E+02 -0.37421715946E+03  0.38246008472E+03  0.00000000000E+00 0.  1.
          5    1    4    4  501    0 -0.10350268544E+03  0.99156363835E+02  0.25403703775E+02  0.14562833154E+03  0.41800000000E+01 0.  1.
         -5    1    4    4    0  501 -0.45166531508E+02 -0.27784293106E+02 -0.30717389360E+02  0.61424855889E+02  0.41800000000E+01 0.  1.
</event>
<event>
11    1  0.8864208E-009  0.1415363E+03  0.7561462E-02  0.1105855E+00
         22   -1    0    0    0    0  0.00000000000E+00  0.00000000000E+00  0.36549776079E+04  0.36549776079E+04  0.00000000000E+00 0. -1.
         22   -1    0    0    0    0 -0.00000000000E+00 -0.00000000000E+00 -0.19871440372E+03  0.19871440372E+03  0.00000000000E+00 0.  1.
        -24    2    1    2    0    0 -0.76089670323E+01  0.65509056112E+02 -0.16834642603E+03  0.19790486830E+03  0.80476611059E+02 0.  0.
         25    2    1    2    0    0  0.56277596947E+02 -0.66382205981E+02  0.37441485507E+03  0.40423880803E+03  0.12509502401E+03 0.  0.
         24    2    1    2    0    0 -0.48668629915E+02  0.87314986843E+00  0.32501947752E+04  0.32515483353E+04  0.80194154678E+02 0.  0.
        -13    1    5    5    0    0 -0.14238319841E+02 -0.97517570355E+01  0.12941977296E+03  0.13056532522E+03  0.00000000000E+00 0.  1.
         14    1    5    5    0    0 -0.34430310074E+02  0.10624906904E+02  0.31207750022E+04  0.31209830101E+04  0.00000000000E+00 0. -1.
         11    1    3    3    0    0  0.19360982914E+00 -0.19005044131E+02 -0.26626291878E+02  0.32713737273E+02  0.00000000000E+00 0. -1.
        -12    1    3    3    0    0 -0.78025768615E+01  0.84514100244E+02 -0.14172013415E+03  0.16519113103E+03  0.00000000000E+00 0.  1.
          5    1    4    4  501    0  0.66452831475E+02  0.82841391933E+01  0.24885483374E+03  0.25774174371E+03  0.41800000000E+01 0. -1.
         -5    1    4    4    0  501 -0.10175234528E+02 -0.74666345174E+02  0.12556002133E+03  0.14649706432E+03  0.41800000000E+01 0. -1.
</event>
<event>
11    1  0.8864208E-009  0.1385881E+03  0.7561462E-02  0.1109145E+00
         22   -1    0    0    0    0  0.00000000000E+00  0.00000000000E+00  0.56117696883E+03  0.56117696883E+03  0.00000000000E+00 0. -1.
         22   -1    0    0    0    0 -0.00000000000E+00 -0.00000000000E+00 -0.16362487277E+04  0.16362487277E+04  0.00000000000E+00 0.  1.
        -24    2    1    2    0    0  0.12862934505E+02 -0.58391362746E+02 -0.16003278982E+04  0.16032539507E+04  0.76150129198E+02 0.  0.
         25    2    1    2    0    0 -0.13744781893E+02  0.43811913943E+02  0.11604455960E+03  0.17670030042E+03  0.12509297951E+03 0.  0.
         24    2    1    2    0    0  0.88184738788E+00  0.14579448804E+02  0.40921157971E+03  0.41747144547E+03  0.81332360296E+02 0.  0.
        -13    1    5    5    0    0 -0.72605768866E+01  0.11807699147E+02  0.76780949024E+01  0.15845847317E+02  0.00000000000E+00 0.  1.
         14    1    5    5    0    0  0.81424242745E+01  0.27717496564E+01  0.40153348481E+03  0.40162559816E+03  0.00000000000E+00 0. -1.
         11    1    3    3    0    0  0.35511895256E+02 -0.14849122903E+01 -0.60626720975E+03  0.60730818312E+03  0.00000000000E+00 0. -1.
        -12    1    3    3    0    0 -0.22648960750E+02 -0.56906450456E+02 -0.99406068848E+03  0.99594576755E+03  0.00000000000E+00 0.  1.
          5    1    4    4  501    0 -0.53703196305E+02  0.47587860809E+02  0.23301449962E+02  0.75558373196E+02  0.41800000000E+01 0. -1.
         -5    1    4    4    0  501  0.39958414411E+02 -0.37759468661E+01  0.92743109642E+02  0.10114192723E+03  0.41800000000E+01 0. -1.
</event>
<event>
11    1  0.8864208E-009  0.1798872E+03  0.7561462E-02  0.1069734E+00
         22   -1    0    0    0    0  0.00000000000E+00  0.00000000000E+00  0.32455289992E+03  0.32455289992E+03  0.00000000000E+00 0.  1.
         22   -1    0    0    0    0 -0.00000000000E+00 -0.00000000000E+00 -0.60609532696E+03  0.60609532696E+03  0.00000000000E+00 0. -1.
        -24    2    1    2    0    0 -0.13090641775E+03 -0.71980424790E+02 -0.18953027121E+03  0.26433309541E+03  0.10785448466E+03 0.  0.
         25    2    1    2    0    0  0.77716836424E+02 -0.64848393503E+02 -0.33648634961E+03  0.37298293106E+03  0.12509189656E+03 0.  0.
         24    2    1    2    0    0  0.53189581331E+02  0.13682881829E+03  0.24447419378E+03  0.29333220040E+03  0.68737844704E+02 0.  0.
        -11    1    5    5    0    0  0.68208500068E+02  0.11226964443E+03  0.18111583110E+03  0.22374051223E+03  0.00000000000E+00 0.  1.
         12    1    5    5    0    0 -0.15018918737E+02  0.24559173867E+02  0.63358362681E+02  0.69591688172E+02  0.00000000000E+00 0. -1.
         11    1    3    3    0    0 -0.82353038568E+01 -0.84653682692E+01  0.14022193281E+02  0.18333155592E+02  0.00000000000E+00 0. -1.
        -12    1    3    3    0    0 -0.12267111390E+03 -0.63515056521E+02 -0.20355246449E+03  0.24599993982E+03  0.00000000000E+00 0.  1.
          5    1    4    4  501    0  0.21697617027E+01 -0.42239410516E+02 -0.20329367599E+02  0.47112962691E+02  0.41800000000E+01 0.  1.
         -5    1    4    4    0  501  0.75547074721E+02 -0.22608982987E+02 -0.31615698201E+03  0.32586996837E+03  0.41800000000E+01 0.  1.
</event>
<event>
11    1  0.8864208E-009  0.2086836E+03  0.7561462E-02  0.1048547E+00
         22   -1    0    0    0    0  0.00000000000E+00  0.00000000000E+00  0.17943877426E+04  0.17943877426E+04  0.00000000000E+00 0.  1.
         22   -1    0    0    0    0 -0.00000000000E+00 -0.00000000000E+00 -0.49044381053E+03  0.49044381053E+03  0.00000000000E+00 0. -1.
         24    2    1    2    0    0 -0.11065699748E+03  0.12530998908E+03 -0.45413320582E+03  0.49088299886E+03  0.82350382457E+02 0.  0.
         25    2    1    2    0    0  0.93423071837E+02 -0.13389464628E+03  0.62651299669E+03  0.65940987072E+03  0.12508875223E+03 0.  0.
        -24    2    1    2    0    0  0.17233925642E+02  0.85846571923E+01  0.11315641412E+04  0.11345386836E+04  0.79811742800E+02 0.  0.
        -13    1    3    3    0    0 -0.16124703116E+02 -0.57817667543E+01 -0.14364546253E+02  0.22355649542E+02  0.00000000000E+00 0.  1.
         14    1    3    3    0    0 -0.94532294363E+02  0.13109175584E+03 -0.43976865956E+03  0.46852734932E+03  0.00000000000E+00 0. -1.
         13    1    5    5    0    0  0.41999011795E+02 -0.89606807148E+01  0.39068436330E+03  0.39303750778E+03  0.00000000000E+00 0. -1.
        -14    1    5    5    0    0 -0.24765086153E+02  0.17545337907E+02  0.74087977790E+03  0.74150117578E+03  0.00000000000E+00 0.  1.
          5    1    4    4  501    0  0.79140649488E+02 -0.22769632289E+02  0.37626447406E+03  0.38519362066E+03  0.41800000000E+01 0.  1.
         -5    1    4    4    0  501  0.14282422349E+02 -0.11112501399E+03  0.25024852263E+03  0.27421625007E+03  0.41800000000E+01 0.  1.
</event>
<event>
11    1  0.8864208E-009  0.3372823E+03  0.7561462E-02  0.9855408E-01
         22   -1    0    0    0    0  0.00000000000E+00  0.00000000000E+00  0.12184680188E+04  0.12184680188E+04  0.00000000000E+00 0. -1.
         22   -1    0    0    0    0 -0.00000000000E+00 -0.00000000000E+00 -0.25749631757E+03  0.25749631757E+03  0.00000000000E+00 0.  1.
        -24    2    1    2    0    0  0.47752596002E+02 -0.31042157609E+03 -0.90561298648E+02  0.33664189994E+03  0.80526732545E+02 0.  0.
         25    2    1    2    0    0 -0.58918705853E+02  0.30293489114E+03  0.66253447568E+03  0.74151229034E+03  0.12509029977E+03 0.  0.
         24    2    1    2    0    0  0.11166109851E+02  0.74866849522E+01  0.38899852420E+03  0.39781014608E+03  0.82172550367E+02 0.  0.
        -13    1    5    5    0    0  0.44002047359E+02 -0.66241318774E+01  0.16135975852E+03  0.16738288731E+03  0.00000000000E+00 0.  1.
         14    1    5    5    0    0 -0.32835937508E+02  0.14110816830E+02  0.22763876568E+03  0.23042725877E+03  0.00000000000E+00 0. -1.
         11    1    3    3    0    0  0.91146034771E+01 -0.12954500813E+02 -0.24999064189E+02  0.29594734298E+02  0.00000000000E+00 0. -1.
        -12    1    3    3    0    0  0.38637992525E+02 -0.29746707528E+03 -0.65562234459E+02  0.30704716564E+03  0.00000000000E+00 0.  1.
          5    1    4    4  501    0 -0.18213150396E+02  0.26630209676E+03  0.46189138591E+03  0.53348819140E+03  0.41800000000E+01 0. -1.
         -5    1    4    4    0  501 -0.40705555457E+02  0.36632794382E+02  0.20064308976E+03  0.20802409894E+03  0.41800000000E+01 0. -1.
</event>
<event>
11    1  0.8864208E-009  0.1751523E+03  0.7561462E-02  0.1073633E+00
         22   -1    0    0    0    0  0.00000000000E+00  0.00000000000E+00  0.73195509654E+03  0.73195509654E+03  0.00000000000E+00 0.  1.
         22   -1    0    0    0    0 -0.00000000000E+00 -0.00000000000E+00 -0.72128541720E+03  0.72128541720E+03  0.00000000000E+00 0. -1.
        -24    2    1    2    0    0  0.10471065161E+03  0.63585079680E+02 -0.66919851070E+03  0.68491051896E+03  0.79173160484E+02 0.  0.
         25    2    1    2    0    0 -0.16569407105E+03  0.29879466524E+02  0.31389151514E+03  0.37751863057E+03  0.12508047589E+03 0.  0.
         24    2    1    2    0    0  0.60983419444E+02 -0.93464546204E+02  0.36597667488E+03  0.39081136421E+03  0.79624098070E+02 0.  0.
        -13    1    5    5    0    0  0.51821630453E+02 -0.92314192383E+02  0.36657767579E+03  0.38155810027E+03  0.00000000000E+00 0.  1.
         14    1    5    5    0    0  0.91617889906E+01 -0.11503538208E+01 -0.60100090378E+00  0.92532639381E+01  0.00000000000E+00 0. -1.
         13    1    3    3    0    0  0.67871972575E+02  0.98404051880E+01 -0.47844900701E+03  0.48333931202E+03  0.00000000000E+00 0. -1.
        -14    1    3    3    0    0  0.36838679034E+02  0.53744674492E+02 -0.19074950369E+03  0.20157120694E+03  0.00000000000E+00 0.  1.
          5    1    4    4  501    0 -0.14169313461E+03 -0.74689798978E+00  0.30649785565E+03  0.33769203451E+03  0.41800000000E+01 0. -1.
         -5    1    4    4    0  501 -0.24000936439E+02  0.30626364514E+02  0.73936594949E+01  0.39826596064E+02  0.41800000000E+01 0. -1.
</event>
<event>
11    1  0.8864208E-009  0.1349105E+03  0.7561462E-02  0.1113379E+00
         22   -1    0    0    0    0  0.00000000000E+00  0.00000000000E+00  0.29466717362E+03  0.29466717362E+03  0.00000000000E+00 0. -1.
         22   -1    0    0    0    0 -0.00000000000E+00 -0.00000000000E+00 -0.43261683774E+03  0.43261683774E+03  0.00000000000E+00 0. -1.
        -24    2    1    2    0    0  0.11420139228E+02  0.19051479619E+02 -0.33569202127E+03  0.34562183852E+03  0.79195603784E+02 0.  0.
         25    2    1    2    0    0 -0.46598785025E+02 -0.52011139561E+02 -0.19340577835E+02  0.14456011901E+03  0.12508782776E+03 0.  0.
         24    2    1    2    0    0  0.35178645797E+02  0.32959659943E+02  0.21708293498E+03  0.23710205383E+03  0.82270936344E+02 0.  0.
        -13    1    5    5    0    0 -0.98946640645E+01 -0.11483254868E+02  0.52939362334E+01  0.16056004489E+02  0.00000000000E+00 0.  1.
         14    1    5    5    0    0  0.45073309862E+02  0.44442914811E+02  0.21178899875E+03  0.22104604934E+03  0.00000000000E+00 0. -1.
         11    1    3    3    0    0  0.32037017218E+02  0.41039249698E+02 -0.20694792831E+03  0.21339642808E+03  0.00000000000E+00 0. -1.
        -12    1    3    3    0    0 -0.20616877991E+02 -0.21987770080E+02 -0.12874409296E+03  0.13222541043E+03  0.00000000000E+00 0.  1.
          5    1    4    4  501    0  0.38825434774E+02 -0.12311320822E+01  0.10967751204E+02  0.40579478041E+02  0.41800000000E+01 0. -1.
         -5    1    4    4    0  501 -0.85424219799E+02 -0.50780007479E+02 -0.30308329038E+02  0.10398064097E+03  0.41800000000E+01 0. -1.
</event>
<event>
11    1  0.8864208E-009  0.1902759E+03  0.7561462E-02  0.1061621E+00
         22   -1    0    0    0    0  0.00000000000E+00  0.00000000000E+00  0.40261886730E+03  0.40261886730E+03  0.00000000000E+00 0. -1.
         22   -1    0    0    0    0 -0.00000000000E+00 -0.00000000000E+00 -0.18116320083E+04  0.18116320083E+04  0.00000000000E+00 0. -1.
         24    2    1    2    0    0 -0.82859836081E+02 -0.93701699583E+02 -0.16698650515E+04  0.16767194428E+04  0.85399289722E+02 0.  0.
         25    2    1    2    0    0 -0.77241165541E+01  0.19915641459E+03  0.48877303586E+01  0.23536329086E+03  0.12509616032E+03 0.  0.
        -24    2    1    2    0    0  0.90583952636E+02 -0.10545471501E+03  0.25596418011E+03  0.30216814198E+03  0.80385167361E+02 0.  0.
        -11    1    3    3    0    0  0.10213695462E+02  0.83626543737E+01 -0.12752098572E+03  0.12820239998E+03  0.00000000000E+00 0.  1.
         12    1    3    3    0    0 -0.93073531544E+02 -0.10206435396E+03 -0.15423440658E+04  0.15485170428E+04  0.00000000000E+00 0. -1.
         13    1    5    5    0    0  0.89881031625E+02 -0.90862053077E+02  0.25750498982E+03  0.28747753359E+03  0.00000000000E+00 0. -1.
        -14    1    5    5    0    0  0.70292101089E+00 -0.14592661934E+02 -0.15408097077E+01  0.14690608389E+02  0.00000000000E+00 0.  1.
          5    1    4    4  501    0 -0.29777631734E+01  0.72133094670E+02  0.62650632604E+02  0.95679802393E+02  0.41800000000E+01 0. -1.
         -5    1    4    4    0  501 -0.47463533807E+01  0.12702331992E+03 -0.57762902246E+02  0.13968348847E+03  0.41800000000E+01 0. -1.
</event>
<event>
11    1  0.8864208E-009  0.1344598E+03  0.7561462E-02  0.1113908E+00
         22   -1    0    0    0    0  0.00000000000E+00  0.00000000000E+00  0.18682374642E+03  0.18682374642E+03  0.00000000000E+00 0.  1.
         22   -1    0    0    0    0 -0.00000000000E+00 -0.00000000000E+00 -0.13503353576E+04  0.13503353576E+04  0.00000000000E+00 0. -1.
         24    2    1    2    0    0  0.34392631429E+02 -0.29674399085E+02 -0.11127701767E+04  0.11176974218E+04  0.94480884693E+02 0.  0.
         25    2    1    2    0    0 -0.65279554427E+02  0.66022898986E+02 -0.19365025693E+03  0.24853308232E+03  0.12509127700E+03 0.  0.
        -24    2    1    2    0    0  0.30886922998E+02 -0.36348499901E+02  0.14290882246E+03  0.17092859985E+03  0.80736851876E+02 0.  0.
        -11    1    3    3    0    0 -0.13418480319E+01  0.12154987298E+02 -0.19325445710E+02  0.22869567644E+02  0.00000000000E+00 0.  1.
         12    1    3    3    0    0  0.35734479461E+02 -0.41829386383E+02 -0.10934447310E+04  0.10948278542E+04  0.00000000000E+00 0. -1.
         11    1    5    5    0    0 -0.15938361749E+02 -0.41492297820E+02  0.51000394186E+02  0.67651181518E+02  0.00000000000E+00 0. -1.
        -12    1    5    5    0    0  0.46825284746E+02  0.51437979194E+01  0.91908428275E+02  0.10327741833E+03  0.00000000000E+00 0.  1.
          5    1    4    4  501    0 -0.22550856465E+02  0.46950838040E+02 -0.19465261106E+03  0.20154412349E+03  0.41800000000E+01 0. -1.
         -5    1    4    4    0  501 -0.42728697962E+02  0.19072060946E+02  0.10023541321E+01  0.46988958831E+02  0.41800000000E+01 0. -1.
</event>
<event>
11    1  0.8864208E-009  0.1508420E+03  0.7561462E-02  0.1096022E+00
         22   -1    0    0    0    0  0.00000000000E+00  0.00000000000E+00  0.14255385021E+04  0.14255385021E+04  0.00000000000E+00 0.  1.
         22   -1    0    0    0    0 -0.00000000000E+00 -0.00000000000E+00 -0.37339798062E+03  0.37339798062E+03  0.00000000000E+00 0. -1.
        -24    2    1    2    0    0 -0.23905418749E+01 -0.84355937571E+02 -0.34609914561E+03  0.36524132758E+03  0.80591376003E+02 0.  0.
         25    2    1    2    0    0 -0.46809417858E+02  0.81116096480E+02  0.37260331067E+03  0.40404609001E+03  0.12509625503E+03 0.  0.
         24    2    1    2    0    0  0.49199959733E+02  0.32398410914E+01  0.10256363564E+04  0.10296490651E+04  0.76263550243E+02 0.  0.
        -13    1    5    5    0    0  0.49992531404E+02  0.33403598172E+02  0.73267389995E+03  0.73513678811E+03  0.00000000000E+00 0.  1.
         14    1    5    5    0    0 -0.79257167131E+00 -0.30163757081E+02  0.29296245643E+03  0.29451227697E+03  0.00000000000E+00 0. -1.
         11    1    3    3    0    0 -0.69296979614E+00 -0.90255051367E+02 -0.34742807673E+03  0.35896061484E+03  0.00000000000E+00 0. -1.
        -12    1    3    3    0    0 -0.16975720788E+01  0.58991137960E+01  0.13289311254E+01  0.62807127364E+01  0.00000000000E+00 0.  1.
          5    1    4    4  501    0 -0.28943922224E+01  0.10216309744E+03  0.19978132116E+03  0.22444537124E+03  0.41800000000E+01 0.  1.
         -5    1    4    4    0  501 -0.43915025635E+02 -0.21047000964E+02  0.17282198951E+03  0.17960071877E+03  0.41800000000E+01 0.  1.
</event>
<event>
11    1  0.8864208E-009  0.1296215E+03  0.7561462E-02  0.1119735E+00
         22   -1    0    0    0    0  0.00000000000E+00  0.00000000000E+00  0.20764478851E+03  0.20764478851E+03  0.00000000000E+00 0.  1.
         22   -1    0    0    0    0 -0.00000000000E+00 -0.00000000000E+00 -0.86017901892E+03  0.86017901892E+03  0.00000000000E+00 0. -1.
         24    2    1    2    0    0  0.50163638578E+02 -0.22364317392E+02 -0.71048089160E+03  0.71708625130E+03  0.80081465751E+02 0.  0.
         25    2    1    2    0    0 -0.16285986425E+02 -0.84571263896E-01 -0.97339476702E+02  0.15933461157E+03  0.12508918503E+03 0.  0.
        -24    2    1    2    0    0 -0.33877652153E+02  0.22448888656E+02  0.15528613789E+03  0.19140294456E+03  0.10425763591E+03 0.  0.
        -13    1    3    3    0    0  0.63421666282E+02  0.29510831322E+01 -0.36996222864E+03  0.37537057325E+03  0.00000000000E+00 0.  1.
         14    1    3    3    0    0 -0.13258027704E+02 -0.25315400524E+02 -0.34051866296E+03  0.34171567805E+03  0.00000000000E+00 0. -1.
         13    1    5    5    0    0 -0.17216751895E+02  0.33146114736E+00 -0.12543601430E+02  0.21304186188E+02  0.00000000000E+00 0. -1.
        -14    1    5    5    0    0 -0.16660900258E+02  0.22117427508E+02  0.16782973932E+03  0.17009875837E+03  0.00000000000E+00 0.  1.
          5    1    4    4  501    0  0.12345705565E+02 -0.52380755862E+02 -0.81063776947E+02  0.97390802253E+02  0.41800000000E+01 0.  1.
         -5    1    4    4    0  501 -0.28631691991E+02  0.52296184598E+02 -0.16275699754E+02  0.61943809313E+02  0.41800000000E+01 0.  1.
</event>
<event>
11    1  0.8864208E-009  0.1373036E+03  0.7561462E-02  0.1110607E+00
         22   -1    0    0    0    0  0.00000000000E+00  0.00000000000E+00  0.23105322964E+03  0.23105322964E+03  0.00000000000E+00 0. -1.
         22   -1    0    0    0    0 -0.00000000000E+00 -0.00000000000E+00 -0.12662122637E+04  0.12662122637E+04  0.00000000000E+00 0. -1.
        -24    2    1    2    0    0 -0.82094780898E+01 -0.54052945374E+02 -0.10387285270E+04  0.10432555971E+04  0.80225754089E+02 0.  0.
         25    2    1    2    0    0  0.47107770905E+02  0.71769692528E+02 -0.18708793233E+03  0.24088553425E+03  0.12511560792E+03 0.  0.
         24    2    1    2    0    0 -0.38898292815E+02 -0.17716747154E+02  0.19065742521E+03  0.21312436206E+03  0.85116271079E+02 0.  0.
        -13    1    5    5    0    0 -0.76535284352E-01 -0.13786072993E+02 -0.41894415540E+01  0.14408785055E+02  0.00000000000E+00 0.  1.
         14    1    5    5    0    0 -0.38821757531E+02 -0.39306741605E+01  0.19484686676E+03  0.19871557700E+03  0.00000000000E+00 0. -1.
         13    1    3    3    0    0  0.89493217525E+01 -0.28401023848E+02 -0.92307586310E+03  0.92355603921E+03  0.00000000000E+00 0. -1.
        -14    1    3    3    0    0 -0.17158799842E+02 -0.25651921526E+02 -0.11565266387E+03  0.11969955785E+03  0.00000000000E+00 0.  1.
          5    1    4    4  501    0  0.14410052522E+02  0.10393117396E+03 -0.14017448033E+03  0.17514478545E+03  0.41800000000E+01 0.  1.
         -5    1    4    4    0  501  0.32697718383E+02 -0.32161481429E+02 -0.46913452003E+02  0.65740748809E+02  0.41800000000E+01 0.  1.
</event>
<event>
11    1  0.8864208E-009  0.1553462E+03  0.7561462E-02  0.1091538E+00
         22   -1    0    0    0    0  0.00000000000E+00  0.00000000000E+00  0.30899493319E+04  0.30899493319E+04  0.00000000000E+00 0.  1.
         22   -1    0    0    0    0 -0.00000000000E+00 -0.00000000000E+00 -0.19542600255E+04  0.19542600255E+04  0.00000000000E+00 0. -1.
        -24    2    1    2    0    0 -0.71958739377E+01  0.14546016696E+01 -0.17267544021E+04  0.17287826424E+04  0.83395221066E+02 0.  0.
         25    2    1    2    0    0 -0.61965539432E+02  0.59447704024E+02 -0.19973417901E+03  0.25082628760E+03  0.12508527770E+03 0.  0.
         24    2    1    2    0    0  0.69161413370E+02 -0.60902305693E+02  0.30621778875E+04  0.30646004274E+04  0.79686717465E+02 0.  0.
        -11    1    5    5    0    0  0.70244878730E+02 -0.17440781350E+02  0.23370117641E+04  0.23381322695E+04  0.00000000000E+00 0.  1.
         12    1    5    5    0    0 -0.10834653603E+01 -0.43461524344E+02  0.72516612339E+03  0.72646815795E+03  0.00000000000E+00 0. -1.
         11    1    3    3    0    0  0.17804643780E+02  0.12269830386E+02 -0.15298731711E+04  0.15300259715E+04  0.00000000000E+00 0. -1.
        -12    1    3    3    0    0 -0.25000517717E+02 -0.10815228717E+02 -0.19688123106E+03  0.19875667084E+03  0.00000000000E+00 0.  1.
          5    1    4    4  501    0  0.13230932748E+01  0.67461017589E+02 -0.16445382025E+03  0.17780683582E+03  0.41800000000E+01 0.  1.
         -5    1    4    4    0  501 -0.63288632707E+02 -0.80133135649E+01 -0.35280358758E+02  0.73019451780E+02  0.41800000000E+01 0.  1.
</event>
<event>
11    1  0.8864208E-009  0.1926255E+03  0.7561462E-02  0.1059865E+00
         22   -1    0    0    0    0  0.00000000000E+00  0.00000000000E+00  0.20550711470E+03  0.20550711470E+03  0.00000000000E+00 0. -1.
         22   -1    0    0    0    0 -0.00000000000E+00 -0.00000000000E+00 -0.19356391414E+04  0.19356391414E+04  0.00000000000E+00 0. -1.
         24    2    1    2    0    0 -0.93664559033E+02 -0.12096135358E+03 -0.17235773856E+04  0.17322901529E+04  0.81886940366E+02 0.  0.
         25    2    1    2    0    0  0.88064064223E+02  0.51713687657E+02 -0.15623397192E+03  0.22469273205E+03  0.12509270545E+03 0.  0.
        -24    2    1    2    0    0  0.56004948102E+01  0.69247665919E+02  0.14967933091E+03  0.18416337107E+03  0.81765765229E+02 0.  0.
        -11    1    3    3    0    0 -0.20493014905E+02 -0.74069365338E+02 -0.52870429337E+03  0.53426067081E+03  0.00000000000E+00 0.  1.
         12    1    3    3    0    0 -0.73171544128E+02 -0.46891988238E+02 -0.11948730923E+04  0.11980294821E+04  0.00000000000E+00 0. -1.
         13    1    5    5    0    0 -0.22160892711E+02 -0.92027691967E+01  0.36560946458E+02  0.43732127007E+02  0.00000000000E+00 0. -1.
        -14    1    5    5    0    0  0.27761387522E+02  0.78450435116E+02  0.11311838445E+03  0.14043124406E+03  0.00000000000E+00 0.  1.
          5    1    4    4  501    0  0.19316868228E+02  0.41501722380E+02  0.76791136244E+01  0.46604458421E+02  0.41800000000E+01 0. -1.
         -5    1    4    4    0  501  0.68747195994E+02  0.10211965277E+02 -0.16391308554E+03  0.17808827363E+03  0.41800000000E+01 0. -1.
</event>
<event>
11    1  0.8864208E-009  0.1522124E+03  0.7561462E-02  0.1094639E+00
         22   -1    0    0    0    0  0.00000000000E+00  0.00000000000E+00  0.15039081683E+04  0.15039081683E+04  0.00000000000E+00 0.  1.
         22   -1    0    0    0    0 -0.00000000000E+00 -0.00000000000E+00 -0.34290174759E+03  0.34290174759E+03  0.00000000000E+00 0. -1.
         24    2    1    2    0    0  0.30308452259E+02  0.21928173910E+02 -0.26838360405E+03  0.28501591937E+03  0.88345165595E+02 0.  0.
         25    2    1    2    0    0 -0.99736199434E+02  0.29330609727E+02  0.40068917589E+02  0.16750683578E+03  0.12508168424E+03 0.  0.
        -24    2    1    2    0    0  0.69427747175E+02 -0.51258783637E+02  0.13893211072E+04  0.13942871607E+04  0.79849062515E+02 0.  0.
        -11    1    3    3    0    0  0.49071183012E+02  0.73034397744E+00 -0.75385435499E+02  0.89952644708E+02  0.00000000000E+00 0.  1.
         12    1    3    3    0    0 -0.18762730753E+02  0.21197829933E+02 -0.19299816855E+03  0.19506327467E+03  0.00000000000E+00 0. -1.
         11    1    5    5    0    0  0.22412467926E+02 -0.23843221128E+02  0.13969800254E+03  0.14347944043E+03  0.00000000000E+00 0. -1.
        -12    1    5    5    0    0  0.47015279249E+02 -0.27415562509E+02  0.12496231046E+04  0.12508077203E+04  0.00000000000E+00 0.  1.
          5    1    4    4  501    0 -0.34464270670E+02  0.31945569891E+02  0.78510932917E+02  0.91595547796E+02  0.41800000000E+01 0. -1.
         -5    1    4    4    0  501 -0.65271928764E+02 -0.26149601642E+01 -0.38442015328E+02  0.75911287986E+02  0.41800000000E+01 0. -1.
</event>
<event>
11    1  0.8864208E-009  0.1643286E+03  0.7561462E-02  0.1083075E+00
         22   -1    0    0    0    0  0.00000000000E+00  0.00000000000E+00  0.96225270814E+03  0.96225270814E+03  0.00000000000E+00 0.  1.
         22   -1    0    0    0    0 -0.00000000000E+00 -0.00000000000E+00 -0.38383955406E+03  0.38383955406E+03  0.00000000000E+00 0. -1.
        -24    2    1    2    0    0  0.55808592777E+02 -0.98865636651E+02 -0.32040833844E+03  0.34951664412E+03  0.81310319394E+02 0.  0.
         25    2    1    2    0    0  0.32086990255E+02  0.70888464389E+02  0.78234255986E+02  0.16680335881E+03  0.12509201563E+03 0.  0.
         24    2    1    2    0    0 -0.87895583031E+02  0.27977172263E+02  0.82058723652E+03  0.82977225927E+03  0.81548965754E+02 0.  0.
        -13    1    5    5    0    0 -0.10230382442E+03  0.29012072190E+02  0.65716801752E+03  0.66571583733E+03  0.00000000000E+00 0.  1.
         14    1    5    5    0    0  0.14408241386E+02 -0.10348999275E+01  0.16341921900E+03  0.16405642193E+03  0.00000000000E+00 0. -1.
         11    1    3    3    0    0  0.26503384993E+02 -0.93990764761E+02 -0.16869723394E+03  0.19492421608E+03  0.00000000000E+00 0. -1.
        -12    1    3    3    0    0  0.29305207784E+02 -0.48748718903E+01 -0.15171110450E+03  0.15459242804E+03  0.00000000000E+00 0.  1.
          5    1    4    4  501    0 -0.21073859807E+02 -0.23563141198E+02  0.41395574961E+02  0.52253183794E+02  0.41800000000E+01 0. -1.
         -5    1    4    4    0  501  0.53160850062E+02  0.94451605587E+02  0.36838681025E+02  0.11455017502E+03  0.41800000000E+01 0. -1.
</event>
<event>
11    1  0.8864208E-009  0.1803621E+03  0.7561462E-02  0.1069350E+00
         22   -1    0    0    0    0  0.00000000000E+00  0.00000000000E+00  0.27573007747E+03  0.27573007747E+03  0.00000000000E+00 0. -1.
         22   -1    0    0    0    0 -0.00000000000E+00 -0.00000000000E+00 -0.84749440825E+03  0.84749440825E+03  0.00000000000E+00 0. -1.
        -24    2    1    2    0    0 -0.11335050211E+03  0.93197221752E+02 -0.51565601227E+03  0.54065673696E+03  0.69817804053E+02 0.  0.
         25    2    1    2    0    0  0.54806363886E+02 -0.89637640698E+02 -0.28814010025E+03  0.33122916376E+03  0.12509755153E+03 0.  0.
         24    2    1    2    0    0  0.58544138224E+02 -0.35595810547E+01  0.23203178174E+03  0.25133858501E+03  0.76760991649E+02 0.  0.
        -13    1    5    5    0    0  0.75645269066E+02 -0.10637962557E+02  0.20312702944E+03  0.21701604334E+03  0.00000000000E+00 0.  1.
         14    1    5    5    0    0 -0.17101130843E+02  0.70783815019E+01  0.28904752297E+02  0.34322541662E+02  0.00000000000E+00 0. -1.
         13    1    3    3    0    0 -0.65884331223E+02  0.41568626852E+02 -0.38045068585E+03  0.38834446076E+03  0.00000000000E+00 0. -1.
        -14    1    3    3    0    0 -0.47466170887E+02  0.51628594900E+02 -0.13520532642E+03  0.15231227620E+03  0.00000000000E+00 0.  1.
          5    1    4    4  501    0  0.73100590623E+02 -0.17305686205E+01 -0.12054707141E+03  0.14105233087E+03  0.41800000000E+01 0. -1.
         -5    1    4    4    0  501 -0.18294226737E+02 -0.87907072077E+02 -0.16759302884E+03  0.19017683289E+03  0.41800000000E+01 0. -1.
</event>
<event>
11    1  0.8864208E-009  0.1940111E+03  0.7561462E-02  0.1058841E+00
         22   -1    0    0    0    0  0.00000000000E+00  0.00000000000E+00  0.31256312971E+03  0.31256312971E+03  0.00000000000E+00 0.  1.
         22   -1    0    0    0    0 -0.00000000000E+00 -0.00000000000E+00 -0.96004493135E+03  0.96004493135E+03  0.00000000000E+00 0.  1.
        -24    2    1    2    0    0  0.12217810867E+02 -0.12566937553E+03 -0.61443864086E+03  0.63227103523E+03  0.79307955217E+02 0.  0.
         25    2    1    2    0    0  0.34303242311E+02  0.25667837019E+03 -0.24276315830E+03  0.37635331526E+03  0.12508944290E+03 0.  0.
         24    2    1    2    0    0 -0.46521053178E+02 -0.13100899466E+03  0.20971999752E+03  0.26398371057E+03  0.79858355965E+02 0.  0.
        -11    1    5    5    0    0 -0.41021795006E+02 -0.10240076188E+03  0.20720989174E+03  0.23474378146E+03  0.00000000000E+00 0.  1.
         12    1    5    5    0    0 -0.54992581724E+01 -0.28608232789E+02  0.25101057793E+01  0.29239929117E+02  0.00000000000E+00 0. -1.
         13    1    3    3    0    0  0.12100687958E+02 -0.16285761364E+02 -0.22442454226E+02  0.30254196799E+02  0.00000000000E+00 0. -1.
        -14    1    3    3    0    0  0.11712290967E+00 -0.10938361416E+03 -0.59199618663E+03  0.60201683843E+03  0.00000000000E+00 0.  1.
          5    1    4    4  501    0  0.60323660472E+02  0.51303912775E+02 -0.83273241235E+02  0.11499104567E+03  0.41800000000E+01 0.  1.
         -5    1    4    4    0  501 -0.26020418161E+02  0.20537445742E+03 -0.15948991706E+03  0.26136226959E+03  0.41800000000E+01 0.  1.
</event>
<event>
11    1  0.8864208E-009  0.1831237E+03  0.7561462E-02  0.1067144E+00
         22   -1    0    0    0    0  0.00000000000E+00  0.00000000000E+00  0.85563294721E+03  0.85563294721E+03  0.00000000000E+00 0. -1.
         22   -1    0    0    0    0 -0.00000000000E+00 -0.00000000000E+00 -0.12028822934E+04  0.12028822934E+04  0.00000000000E+00 0. -1.
        -24    2    1    2    0    0 -0.78587949925E+01  0.21673209137E+02 -0.93315405639E+03  0.93680578502E+03  0.79354251592E+02 0.  0.
         25    2    1    2    0    0  0.11965609790E+03 -0.94132558963E+02 -0.22308463881E+03  0.29764463772E+03  0.12508818437E+03 0.  0.
         24    2    1    2    0    0 -0.11179730291E+03  0.72459349826E+02  0.80898934902E+03  0.82406481784E+03  0.82885842343E+02 0.  0.
        -13    1    5    5    0    0 -0.69831542286E+02 -0.12995456607E+01  0.29789123032E+03  0.30596947269E+03  0.00000000000E+00 0.  1.
         14    1    5    5    0    0 -0.41965760624E+02  0.73758895487E+02  0.51109811870E+03  0.51809534515E+03  0.00000000000E+00 0. -1.
         13    1    3    3    0    0 -0.23563250229E+02  0.28174290846E+02 -0.88460963804E+03  0.88537180277E+03  0.00000000000E+00 0. -1.
        -14    1    3    3    0    0  0.15704455236E+02 -0.65010817087E+01 -0.48544418341E+02  0.51433982247E+02  0.00000000000E+00 0.  1.
          5    1    4    4  501    0  0.61089047738E+02 -0.39245900912E+02 -0.20179016228E+03  0.21449674702E+03  0.41800000000E+01 0.  1.
         -5    1    4    4    0  501  0.58567050164E+02 -0.54886658051E+02 -0.21294476532E+02  0.83147890699E+02  0.41800000000E+01 0.  1.
</event>
<event>
11    1  0.8864208E-009  0.2212864E+03  0.7561462E-02  0.1040415E+00
         22   -1    0    0    0    0  0.00000000000E+00  0.00000000000E+00  0.16686843264E+04  0.16686843264E+04  0.00000000000E+00 0. -1.
         22   -1    0    0    0    0 -0.00000000000E+00 -0.00000000000E+00 -0.60504323097E+03  0.60504323097E+03  0.00000000000E+00 0. -1.
        -24    2    1    2    0    0  0.25186678112E+02  0.33713729720E+00 -0.53508919651E+03  0.54166130105E+03  0.80262285114E+02 0.  0.
         25    2    1    2    0    0 -0.18566176844E+03 -0.82471628287E+02  0.17774467833E+03  0.29748602989E+03  0.12503161828E+03 0.  0.
         24    2    1    2    0    0  0.16047509033E+03  0.82134490989E+02  0.14209856136E+04  0.14345802264E+04  0.79510897030E+02 0.  0.
        -13    1    5    5    0    0  0.18914447001E+02  0.44344414518E+02  0.26540524082E+03  0.26974826275E+03  0.00000000000E+00 0.  1.
         14    1    5    5    0    0  0.14156064333E+03  0.37790076472E+02  0.11555803728E+04  0.11648319637E+04  0.00000000000E+00 0. -1.
         13    1    3    3    0    0 -0.91657850588E+01  0.33330683249E+02 -0.17006339987E+03  0.17354107882E+03  0.00000000000E+00 0. -1.
        -14    1    3    3    0    0  0.34352463171E+02 -0.32993545952E+02 -0.36502579664E+03  0.36812022223E+03  0.00000000000E+00 0.  1.
          5    1    4    4  501    0 -0.45756536727E+02 -0.85314813766E+02  0.55751014474E+02  0.11179412380E+03  0.41800000000E+01 0.  1.
         -5    1    4    4    0  501 -0.13990523171E+03  0.28431854793E+01  0.12199366386E+03  0.18569190609E+03  0.41800000000E+01 0.  1.
</event>
<event>
11    1  0.8864208E-009  0.2098877E+03  0.7561462E-02  0.1047744E+00
         22   -1    0    0    0    0  0.00000000000E+00  0.00000000000E+00  0.13855562023E+03  0.13855562023E+03  0.00000000000E+00 0. -1.
         22   -1    0    0    0    0 -0.00000000000E+00 -0.00000000000E+00 -0.11020174643E+04  0.11020174643E+04  0.00000000000E+00 0.  1.
         24    2    1    2    0    0  0.46443026244E+02  0.11890052231E+03 -0.75722787097E+03  0.77245261869E+03  0.83634386857E+02 0.  0.
         25    2    1    2    0    0  0.13196134102E+03 -0.12489935680E+03 -0.13995007394E+03  0.26124600970E+03  0.12509919877E+03 0.  0.
        -24    2    1    2    0    0 -0.17840436727E+03  0.59988344909E+01 -0.66283899134E+02  0.20687445612E+03  0.80866439473E+02 0.  0.
        -11    1    3    3    0    0  0.13397527857E+02  0.11275598093E+03 -0.65696740344E+03  0.66670801268E+03  0.00000000000E+00 0.  1.
         12    1    3    3    0    0  0.33045498387E+02  0.61445413818E+01 -0.10026046753E+03  0.10574460602E+03  0.00000000000E+00 0. -1.
         11    1    5    5    0    0 -0.11680685307E+02  0.20931231945E+02 -0.24651371557E+02  0.34383789780E+02  0.00000000000E+00 0. -1.
        -12    1    5    5    0    0 -0.16672368196E+03 -0.14932397454E+02 -0.41632527577E+02  0.17249066634E+03  0.00000000000E+00 0.  1.
          5    1    4    4  501    0  0.13670580124E+03 -0.66028118500E+02 -0.13253851934E+03  0.20157410556E+03  0.41800000000E+01 0.  1.
         -5    1    4    4    0  501 -0.47444602108E+01 -0.58871238298E+02 -0.74115545944E+01  0.59671904134E+02  0.41800000000E+01 0.  1.
</event>
<event>
11    1  0.8864208E-009  0.1343049E+03  0.7561462E-02  0.1114090E+00
         22   -1    0    0    0    0  0.00000000000E+00  0.00000000000E+00  0.18644342769E+03  0.18644342769E+03  0.00000000000E+00 0. -1.
         22   -1    0    0    0    0 -0.00000000000E+00 -0.00000000000E+00 -0.44008521281E+03  0.44008521281E+03  0.00000000000E+00 0.  1.
        -24    2    1    2    0    0 -0.14337470671E+01 -0.22428638514E+02 -0.31621032708E+03  0.32701898850E+03  0.80295382370E+02 0.  0.
         25    2    1    2    0    0  0.41075933732E+02 -0.86715966839E+01 -0.62199504791E+02  0.14587296025E+03  0.12509081987E+03 0.  0.
         24    2    1    2    0    0 -0.39642186665E+02  0.31100235198E+02  0.12476804674E+03  0.15363669175E+03  0.74151466418E+02 0.  0.
        -13    1    5    5    0    0  0.66377912090E+01 -0.86933332906E+01 -0.35851388141E+01  0.11510323026E+02  0.00000000000E+00 0.  1.
         14    1    5    5    0    0 -0.46279977874E+02  0.39793568488E+02  0.12835318556E+03  0.14212636873E+03  0.00000000000E+00 0. -1.
         11    1    3    3    0    0 -0.39607385290E+00  0.30214512021E+02 -0.98417369832E+02  0.10295169885E+03  0.00000000000E+00 0. -1.
        -12    1    3    3    0    0 -0.10376732142E+01 -0.52643150535E+02 -0.21779295725E+03  0.22406728965E+03  0.00000000000E+00 0.  1.
          5    1    4    4  501    0 -0.18766243154E+02  0.30954535724E+02 -0.64345019289E+02  0.73946663693E+02  0.41800000000E+01 0. -1.
         -5    1    4    4    0  501  0.59842176886E+02 -0.39626132408E+02  0.21455144975E+01  0.71926296558E+02  0.41800000000E+01 0. -1.
</event>
<event>
11    1  0.8864208E-009  0.1281468E+03  0.7561462E-02  0.1121567E+00
         22   -1    0    0    0    0  0.00000000000E+00  0.00000000000E+00  0.18434276835E+04  0.18434276835E+04  0.00000000000E+00 0.  1.
         22   -1    0    0    0    0 -0.00000000000E+00 -0.00000000000E+00 -0.98456594056E+02  0.98456594056E+02  0.00000000000E+00 0. -1.
         24    2    1    2    0    0 -0.74339128399E+00 -0.18256357667E+02 -0.60242225520E+02  0.10265393603E+03  0.81085495753E+02 0.  0.
         25    2    1    2    0    0 -0.26906095422E+02  0.14052162348E+02  0.24745163380E+03  0.27893688025E+03  0.12510823657E+03 0.  0.
        -24    2    1    2    0    0  0.27649486706E+02  0.42041953190E+01  0.15577616811E+04  0.15602934613E+04  0.84333033907E+02 0.  0.
        -11    1    3    3    0    0  0.11976975736E+02  0.27128007750E+02 -0.43478002926E+02  0.52628067518E+02  0.00000000000E+00 0.  1.
         12    1    3    3    0    0 -0.12720367020E+02 -0.45384365417E+02 -0.16764222594E+02  0.50025868514E+02  0.00000000000E+00 0. -1.
         13    1    5    5    0    0 -0.27246112457E+02  0.59732509695E+01  0.28884714872E+03  0.29019080911E+03  0.00000000000E+00 0. -1.
        -14    1    5    5    0    0  0.54895599163E+02 -0.17690556505E+01  0.12689145324E+04  0.12701026521E+04  0.00000000000E+00 0.  1.
          5    1    4    4  501    0 -0.50360457207E+02  0.44123546920E+02  0.68348501779E+02  0.95770836575E+02  0.41800000000E+01 0. -1.
         -5    1    4    4    0  501  0.23454361784E+02 -0.30071384572E+02  0.17910313202E+03  0.18316604368E+03  0.41800000000E+01 0. -1.
</event>
<event>
11    1  0.8864208E-009  0.1451212E+03  0.7561462E-02  0.1101971E+00
         22   -1    0    0    0    0  0.00000000000E+00  0.00000000000E+00  0.96852829553E+03  0.96852829553E+03  0.00000000000E+00 0.  1.
         22   -1    0    0    0    0 -0.00000000000E+00 -0.00000000000E+00 -0.95888648460E+02  0.95888648460E+02  0.00000000000E+00 0.  1.
        -24    2    1    2    0    0 -0.37327471164E+02 -0.68550767793E+02 -0.40196729543E+02  0.11711367745E+03  0.77506699784E+02 0.  0.
         25    2    1    2    0    0  0.49349671990E+02  0.11852849129E+02  0.31626537440E+03  0.34387242166E+03  0.12509426517E+03 0.  0.
         24    2    1    2    0    0 -0.12022200826E+02  0.56697918664E+02  0.59657100221E+03  0.60343084488E+03  0.69804273329E+02 0.  0.
        -13    1    5    5    0    0 -0.27796135385E+02  0.36750511414E+02  0.53261288566E+03  0.53460238608E+03  0.00000000000E+00 0.  1.
         14    1    5    5    0    0  0.15773934559E+02  0.19947407251E+02  0.63958116558E+02  0.68828458803E+02  0.00000000000E+00 0. -1.
         11    1    3    3    0    0 -0.23504666480E+02 -0.16888142998E+02  0.21061946450E+02  0.35795031897E+02  0.00000000000E+00 0. -1.
        -12    1    3    3    0    0 -0.13822804684E+02 -0.51662624795E+02 -0.61258675994E+02  0.81318645553E+02  0.00000000000E+00 0.  1.
          5    1    4    4  501    0  0.97863650415E+01 -0.43610336387E+02  0.42822392762E+02  0.62039214231E+02  0.41800000000E+01 0.  1.
         -5    1    4    4    0  501  0.39563306948E+02  0.55463185516E+02  0.27344298164E+03  0.28183320743E+03  0.41800000000E+01 0.  1.
</event>
<event>
11    1  0.8864208E-009  0.1552685E+03  0.7561462E-02  0.1091614E+00
         22   -1    0    0    0    0  0.00000000000E+00  0.00000000000E+00  0.16839922556E+03  0.16839922556E+03  0.00000000000E+00 0. -1.
         22   -1    0    0    0    0 -0.00000000000E+00 -0.00000000000E+00 -0.13273604343E+04  0.13273604343E+04  0.00000000000E+00 0. -1.
        -24    2    1    2    0    0  0.17755190380E+02  0.10712778406E+02 -0.93192807536E+03  0.93555928939E+03  0.79694641744E+02 0.  0.
         25    2    1    2    0    0 -0.24786243017E+02  0.81538963439E+02 -0.35527500055E+03  0.38617451623E+03  0.12508984997E+03 0.  0.
         24    2    1    2    0    0  0.70310526375E+01 -0.92251741845E+02  0.12824186721E+03  0.17402585419E+03  0.72658116164E+02 0.  0.
        -11    1    5    5    0    0  0.34257967545E+02 -0.48932615021E+02  0.39567485596E+02  0.71649110738E+02  0.00000000000E+00 0.  1.
         12    1    5    5    0    0 -0.27226914907E+02 -0.43319126825E+02  0.88674381616E+02  0.10237674345E+03  0.00000000000E+00 0. -1.
         11    1    3    3    0    0 -0.43991491660E+01  0.37293694860E+02 -0.70587184420E+03  0.70687002526E+03  0.00000000000E+00 0. -1.
        -12    1    3    3    0    0  0.22154339546E+02 -0.26580916453E+02 -0.22605623116E+03  0.22868926413E+03  0.00000000000E+00 0.  1.
          5    1    4    4  501    0 -0.50590632894E+02  0.83885797781E+02 -0.14983574281E+03  0.17906552273E+03  0.41800000000E+01 0. -1.
         -5    1    4    4    0  501  0.25804389877E+02 -0.23468343420E+01 -0.20543925774E+03  0.20710899350E+03  0.41800000000E+01 0. -1.
</event>
<event>
11    1  0.8864208E-009  0.2683030E+03  0.7561462E-02  0.1014577E+00
         22   -1    0    0    0    0  0.00000000000E+00  0.00000000000E+00  0.17537200389E+04  0.17537200389E+04  0.00000000000E+00 0.  1.
         22   -1    0    0    0    0 -0.00000000000E+00 -0.00000000000E+00 -0.15438987230E+03  0.15438987230E+03  0.00000000000E+00 0. -1.
         24    2    1    2    0    0  0.10314155606E+02  0.82687417858E+02 -0.19520364688E+02  0.11558213814E+03  0.77682656638E+02 0.  0.
         25    2    1    2    0    0 -0.17843084496E+03 -0.23899189699E+03  0.26621162281E+03  0.41889087131E+03  0.12508493388E+03 0.  0.
        -24    2    1    2    0    0  0.16811668935E+03  0.15630447914E+03  0.13526389085E+04  0.13736369018E+04  0.67468582806E+02 0.  0.
        -11    1    3    3    0    0 -0.16617151119E+02 -0.69802854315E+01  0.51811892349E+01  0.18753634792E+02  0.00000000000E+00 0.  1.
         12    1    3    3    0    0  0.26931306725E+02  0.89667703289E+02 -0.24701553923E+02  0.96828503352E+02  0.00000000000E+00 0. -1.
         13    1    5    5    0    0  0.13994346388E+03  0.14866911900E+03  0.10553731611E+04  0.10749414818E+04  0.00000000000E+00 0. -1.
        -14    1    5    5    0    0  0.28173225468E+02  0.76353601399E+01  0.29726574741E+03  0.29869542002E+03  0.00000000000E+00 0.  1.
          5    1    4    4  501    0 -0.10716464347E+03 -0.59460110143E+02  0.14876115209E+03  0.19278775448E+03  0.41800000000E+01 0. -1.
         -5    1    4    4    0  501 -0.71266201490E+02 -0.17953178685E+03  0.11745047072E+03  0.22610311682E+03  0.41800000000E+01 0. -1.
</event>
<event>
11    1  0.8864208E-009  0.5028587E+03  0.7561462E-02  0.9387156E-01
         22   -1    0    0    0    0  0.00000000000E+00  0.00000000000E+00  0.11974148547E+04  0.11974148547E+04  0.00000000000E+00 0.  1.
         22   -1    0    0    0    0 -0.00000000000E+00 -0.00000000000E+00 -0.10398962723E+04  0.10398962723E+04  0.00000000000E+00 0.  1.
        -24    2    1    2    0    0 -0.29788492827E+03 -0.26399790803E+03 -0.23441345162E+03  0.46905255710E+03  0.81426709934E+02 0.  0.
         25    2    1    2    0    0  0.12230868259E+03  0.70297368942E+03 -0.41106717367E+03  0.83291932650E+03  0.12508781445E+03 0.  0.
         24    2    1    2    0    0  0.17557624568E+03 -0.43897578140E+03  0.80299920768E+03  0.93533924339E+03  0.80777583449E+02 0.  0.
        -13    1    5    5    0    0  0.13102583968E+03 -0.26730936825E+03  0.43879539099E+03  0.53024849286E+03  0.00000000000E+00 0.  1.
         14    1    5    5    0    0  0.44550405992E+02 -0.17166641314E+03  0.36420381669E+03  0.40509075053E+03  0.00000000000E+00 0. -1.
         13    1    3    3    0    0 -0.19218518919E+02 -0.24034610658E+02  0.36290361071E+01  0.30986834011E+02  0.00000000000E+00 0. -1.
        -14    1    3    3    0    0 -0.27866640935E+03 -0.23996329737E+03 -0.23804248772E+03  0.43806572309E+03  0.00000000000E+00 0.  1.
          5    1    4    4  501    0  0.13767791745E+03  0.68733470333E+03 -0.40579899025E+03  0.80998425678E+03  0.41800000000E+01 0. -1.
         -5    1    4    4    0  501 -0.15369234857E+02  0.15638986096E+02 -0.52681834239E+01  0.22935069714E+02  0.41800000000E+01 0. -1.
</event>
<event>
11    1  0.8864208E-009  0.2022531E+03  0.7561462E-02  0.1052942E+00
         22   -1    0    0    0    0  0.00000000000E+00  0.00000000000E+00  0.33118803271E+03  0.33118803271E+03  0.00000000000E+00 0. -1.
         22   -1    0    0    0    0 -0.00000000000E+00 -0.00000000000E+00 -0.47940059286E+03  0.47940059286E+03  0.00000000000E+00 0.  1.
        -24    2    1    2    0    0  0.14193695955E+03 -0.35553069985E+02 -0.27647619211E+03  0.32282272536E+03  0.79782867388E+02 0.  0.
         25    2    1    2    0    0 -0.19090242311E+03  0.91923744337E+02 -0.74093126296E+02  0.25696462218E+03  0.12508923121E+03 0.  0.
         24    2    1    2    0    0  0.48965463560E+02 -0.56370674352E+02  0.20235675826E+03  0.23080127803E+03  0.82132227407E+02 0.  0.
        -13    1    5    5    0    0  0.12908300593E+02  0.18478714382E+02  0.18926617856E+02  0.29433042196E+02  0.00000000000E+00 0.  1.
         14    1    5    5    0    0  0.36057162967E+02 -0.74849388734E+02  0.18343014041E+03  0.20136823584E+03  0.00000000000E+00 0. -1.
         13    1    3    3    0    0  0.27526655599E+02  0.23478591518E+02 -0.81597529760E+02  0.89258713250E+02  0.00000000000E+00 0. -1.
        -14    1    3    3    0    0  0.11441030396E+03 -0.59031661502E+02 -0.19487866235E+03  0.23356401211E+03  0.00000000000E+00 0.  1.
          5    1    4    4  501    0 -0.16289742508E+03  0.31566116227E+02 -0.89450560325E+02  0.18854937267E+03  0.41800000000E+01 0. -1.
         -5    1    4    4    0  501 -0.28004998037E+02  0.60357628110E+02  0.15357434029E+02  0.68415249514E+02  0.41800000000E+01 0. -1.
</event>
<event>
11    1  0.8864208E-009  0.1689733E+03  0.7561462E-02  0.1078929E+00
         22   -1    0    0    0    0  0.00000000000E+00  0.00000000000E+00  0.16998288323E+04  0.16998288323E+04  0.00000000000E+00 0.  1.
         22   -1    0    0    0    0 -0.00000000000E+00 -0.00000000000E+00 -0.85567594103E+03  0.85567594103E+03  0.00000000000E+00 0.  1.
        -24    2    1    2    0    0 -0.46620434049E+02 -0.10621503749E+03 -0.76549227499E+03  0.77790472604E+03  0.75513181988E+02 0.  0.
         25    2    1    2    0    0  0.37151010860E+02  0.78136615466E+02 -0.13026780528E+02  0.15266066050E+03  0.12510016774E+03 0.  0.
         24    2    1    2    0    0  0.94694231891E+01  0.28078422027E+02  0.16226719468E+04  0.16249393868E+04  0.80533819415E+02 0.  0.
        -11    1    5    5    0    0  0.45094206344E+02  0.13496861248E+02  0.95363609241E+03  0.95479707240E+03  0.00000000000E+00 0.  1.
         12    1    5    5    0    0 -0.35624783154E+02  0.14581560778E+02  0.66903585438E+03  0.67014231439E+03  0.00000000000E+00 0. -1.
         11    1    3    3    0    0 -0.46473274735E+02 -0.77645496811E+02 -0.35264784243E+03  0.36407291743E+03  0.00000000000E+00 0. -1.
        -12    1    3    3    0    0 -0.14715931366E+00 -0.28569540681E+02 -0.41284443257E+03  0.41383180860E+03  0.00000000000E+00 0.  1.
          5    1    4    4  501    0  0.35646163117E+02  0.15800260420E+02  0.50239925765E+02  0.63732407103E+02  0.41800000000E+01 0.  1.
         -5    1    4    4    0  501  0.15048477426E+01  0.62336355046E+02 -0.63266706293E+02  0.88928253397E+02  0.41800000000E+01 0.  1.
</event>
<event>
11    1  0.8864208E-009  0.1451238E+03  0.7561462E-02  0.1101968E+00
         22   -1    0    0    0    0  0.00000000000E+00  0.00000000000E+00  0.73261490380E+03  0.73261490380E+03  0.00000000000E+00 0.  1.
         22   -1    0    0    0    0 -0.00000000000E+00 -0.00000000000E+00 -0.48354222673E+03  0.48354222673E+03  0.00000000000E+00 0. -1.
         24    2    1    2    0    0 -0.71779562023E+02 -0.20975278078E+02 -0.44504313110E+03  0.45844677697E+03  0.80732836946E+02 0.  0.
         25    2    1    2    0    0  0.47080708995E+02  0.97471506461E+01  0.12692536967E+03  0.18453938365E+03  0.12503253395E+03 0.  0.
        -24    2    1    2    0    0  0.24698853028E+02  0.11228127431E+02  0.56719043851E+03  0.57317096992E+03  0.77999122029E+02 0.  0.
        -13    1    3    3    0    0 -0.22939675896E+02  0.30424686260E+02 -0.18681484599E+03  0.19066115741E+03  0.00000000000E+00 0.  1.
         14    1    3    3    0    0 -0.48839886128E+02 -0.51399964337E+02 -0.25822828511E+03  0.26778561956E+03  0.00000000000E+00 0. -1.
         11    1    5    5    0    0  0.51659544020E+01  0.17633458042E+02  0.27408504568E+02  0.32997758258E+02  0.00000000000E+00 0. -1.
        -12    1    5    5    0    0  0.19532898626E+02 -0.64053306103E+01  0.53978193394E+03  0.54017321166E+03  0.00000000000E+00 0.  1.
          5    1    4    4  501    0 -0.24996999727E+02  0.40628283951E+02  0.79488155411E+02  0.92797342111E+02  0.41800000000E+01 0.  1.
         -5    1    4    4    0  501  0.72077708722E+02 -0.30881133305E+02  0.47437214258E+02  0.91742041537E+02  0.41800000000E+01 0.  1.
</event>
<event>
11    1  0.8864208E-009  0.1260358E+03  0.7561462E-02  0.1124238E+00
         22   -1    0    0    0    0  0.00000000000E+00  0.00000000000E+00  0.48328874299E+02  0.48328874299E+02  0.00000000000E+00 0. -1.
         22   -1    0    0    0    0 -0.00000000000E+00 -0.00000000000E+00 -0.17394258191E+04  0.17394258191E+04  0.00000000000E+00 0. -1.
         24    2    1    2    0    0 -0.11986976090E+02 -0.15573017752E+02 -0.13813315670E+04  0.13838231541E+04  0.80643767842E+02 0.  0.
         25    2    1    2    0    0  0.13940433132E+02 -0.16751615663E+01 -0.29155978078E+03  0.31757128722E+03  0.12508906769E+03 0.  0.
        -24    2    1    2    0    0 -0.19534570422E+01  0.17248179318E+02 -0.18205596961E+02  0.86360252042E+02  0.82615577756E+02 0.  0.
        -11    1    3    3    0    0  0.26519025618E+02  0.13245460364E+02 -0.31042604215E+03  0.31183814485E+03  0.00000000000E+00 0.  1.
         12    1    3    3    0    0 -0.38506001709E+02 -0.28818478116E+02 -0.10709055249E+04  0.10719850092E+04  0.00000000000E+00 0. -1.
         11    1    5    5    0    0 -0.17731013468E+02  0.44577050120E+02  0.34345573689E+01  0.48096761017E+02  0.00000000000E+00 0. -1.
        -12    1    5    5    0    0  0.15777556425E+02 -0.27328870802E+02 -0.21640154329E+02  0.38263491025E+02  0.00000000000E+00 0.  1.
          5    1    4    4  501    0  0.66846248185E+02 -0.30354606293E+01 -0.20832155717E+03  0.21884464467E+03  0.41800000000E+01 0.  1.
         -5    1    4    4    0  501 -0.52905815053E+02  0.13602990629E+01 -0.83238223612E+02  0.98726642555E+02  0.41800000000E+01 0.  1.
</event>
<event>
11    1  0.8864208E-009  0.1511775E+03  0.7561462E-02  0.1095682E+00
         22   -1    0    0    0    0  0.00000000000E+00  0.00000000000E+00  0.13952484342E+03  0.13952484342E+03  0.00000000000E+00 0.  1.
         22   -1    0    0    0    0 -0.00000000000E+00 -0.00000000000E+00 -0.20753258489E+04  0.20753258489E+04  0.00000000000E+00 0. -1.
        -24    2    1    2    0    0  0.24553147496E+02 -0.52521303774E+02 -0.15306861264E+04  0.15339499628E+04  0.81493107445E+02 0.  0.
         25    2    1    2    0    0  0.34798557188E+02  0.11179663378E+03 -0.50161548236E+03  0.53006780277E+03  0.12507740195E+03 0.  0.
         24    2    1    2    0    0 -0.59351704684E+02 -0.59275330002E+02  0.96500603204E+02  0.15083292678E+03  0.80012597668E+02 0.  0.
        -11    1    5    5    0    0 -0.76679466776E+02 -0.60607769408E+02  0.87859644058E+02  0.13142434855E+03  0.00000000000E+00 0.  1.
         12    1    5    5    0    0  0.17327762091E+02  0.13324394053E+01  0.86409591458E+01  0.19408578228E+02  0.00000000000E+00 0. -1.
         11    1    3    3    0    0  0.28233859555E+02 -0.18559045073E+02 -0.13261768933E+04  0.13266072295E+04  0.00000000000E+00 0. -1.
        -12    1    3    3    0    0 -0.36807120583E+01 -0.33962258701E+02 -0.20450923302E+03  0.20734273329E+03  0.00000000000E+00 0.  1.
          5    1    4    4  501    0  0.55420627501E+02  0.18779582857E+02 -0.31585852513E+03  0.32126032899E+03  0.41800000000E+01 0. -1.
         -5    1    4    4    0  501 -0.20622070313E+02  0.93017050919E+02 -0.18575695724E+03  0.20880747378E+03  0.41800000000E+01 0. -1.
</event>
<event>
11    1  0.8864208E-009  0.1652694E+03  0.7561462E-02  0.1082223E+00
         22   -1    0    0    0    0  0.00000000000E+00  0.00000000000E+00  0.84528450707E+02  0.84528450707E+02  0.00000000000E+00 0.  1.
         22   -1    0    0    0    0 -0.00000000000E+00 -0.00000000000E+00 -0.89418242626E+03  0.89418242626E+03  0.00000000000E+00 0.  1.
         24    2    1    2    0    0  0.21896739549E+02  0.27568014992E+02 -0.49177721763E+03  0.49902812302E+03  0.77102354847E+02 0.  0.
         25    2    1    2    0    0 -0.95143630372E+02 -0.97585369507E+02 -0.29588048030E+03  0.34895264558E+03  0.12508986964E+03 0.  0.
        -24    2    1    2    0    0  0.73246890823E+02  0.70017354516E+02 -0.21996277615E+02  0.13073010838E+03  0.79617762203E+02 0.  0.
        -11    1    3    3    0    0  0.20006923643E+02 -0.23708091091E+02 -0.24627524456E+03  0.24822136624E+03  0.00000000000E+00 0.  1.
         12    1    3    3    0    0  0.18898159060E+01  0.51276106082E+02 -0.24550197308E+03  0.25080675677E+03  0.00000000000E+00 0. -1.
         13    1    5    5    0    0 -0.17087923479E+02  0.17093938766E+02 -0.41036381708E+01  0.24516111388E+02  0.00000000000E+00 0. -1.
        -14    1    5    5    0    0  0.90334814303E+02  0.52923415750E+02 -0.17892639445E+02  0.10621399699E+03  0.00000000000E+00 0.  1.
          5    1    4    4  501    0 -0.26177316629E+02  0.27897124055E+02 -0.38746933862E+02  0.54610426844E+02  0.41800000000E+01 0.  1.
         -5    1    4    4    0  501 -0.68966313743E+02 -0.12548249356E+03 -0.25713354644E+03  0.29434221873E+03  0.41800000000E+01 0.  1.
</event>
<event>
11    1  0.8864208E-009  0.1399039E+03  0.7561462E-02  0.1107666E+00
         22   -1    0    0    0    0  0.00000000000E+00  0.00000000000E+00  0.19832173968E+03  0.19832173968E+03  0.00000000000E+00 0. -1.
         22   -1    0    0    0    0 -0.00000000000E+00 -0.00000000000E+00 -0.51889446507E+03  0.51889446507E+03  0.00000000000E+00 0. -1.
        -24    2    1    2    0    0 -0.40604135667E+02 -0.67000516017E+02 -0.32676462588E+03  0.34565837945E+03  0.81035977039E+02 0.  0.
         25    2    1    2    0    0  0.30874676520E+02  0.47568901775E+01 -0.14213997408E+03  0.19190394540E+03  0.12508988118E+03 0.  0.
         24    2    1    2    0    0  0.97294591465E+01  0.62243625839E+02  0.14833187457E+03  0.17965387990E+03  0.79399245693E+02 0.  0.
        -11    1    5    5    0    0  0.36886161651E+02  0.32953408406E+02  0.38180222369E+02  0.62483961358E+02  0.00000000000E+00 0.  1.
         12    1    5    5    0    0 -0.27156702504E+02  0.29290217433E+02  0.11015165220E+03  0.11716991854E+03  0.00000000000E+00 0. -1.
         11    1    3    3    0    0 -0.42320415656E+02 -0.21317707269E+02 -0.26279341741E+03  0.26703153832E+03  0.00000000000E+00 0. -1.
        -12    1    3    3    0    0  0.17162799891E+01 -0.45682808748E+02 -0.63971208474E+02  0.78626841128E+02  0.00000000000E+00 0.  1.
          5    1    4    4  501    0  0.26666211891E+02  0.50308920471E+02 -0.13345391184E+03  0.14515334416E+03  0.41800000000E+01 0.  1.
         -5    1    4    4    0  501  0.42084646293E+01 -0.45552030294E+02 -0.86860622355E+01  0.46750601232E+02  0.41800000000E+01 0.  1.
</event>
<event>
11    1  0.8864208E-009  0.1327012E+03  0.7561462E-02  0.1115994E+00
         22   -1    0    0    0    0  0.00000000000E+00  0.00000000000E+00  0.12831964652E+04  0.12831964652E+04  0.00000000000E+00 0.  1.
         22   -1    0    0    0    0 -0.00000000000E+00 -0.00000000000E+00 -0.61350317255E+03  0.61350317255E+03  0.00000000000E+00 0. -1.
         24    2    1    2    0    0  0.50082057538E+02 -0.24963956477E+02 -0.59840857281E+03  0.60623347881E+03  0.79339770696E+02 0.  0.
         25    2    1    2    0    0  0.75087287478E+00  0.43833004969E+02  0.55881192092E+03  0.57431726406E+03  0.12509060996E+03 0.  0.
        -24    2    1    2    0    0 -0.50832930412E+02 -0.18869048492E+02  0.70928994454E+03  0.71614889488E+03  0.82686071411E+02 0.  0.
        -11    1    3    3    0    0  0.16342840994E+02 -0.20119605917E+02 -0.46206594214E+02  0.52980527960E+02  0.00000000000E+00 0.  1.
         12    1    3    3    0    0  0.33739216543E+02 -0.48443505596E+01 -0.55220197859E+03  0.55325295085E+03  0.00000000000E+00 0. -1.
         11    1    5    5    0    0  0.44231166918E+01  0.26780480147E+02  0.20633670493E+03  0.20811437692E+03  0.00000000000E+00 0. -1.
        -12    1    5    5    0    0 -0.55256047104E+02 -0.45649528639E+02  0.50295323960E+03  0.50803451796E+03  0.00000000000E+00 0.  1.
          5    1    4    4  501    0  0.53408396572E+02 -0.10592294456E+02  0.28556790604E+03  0.29074242017E+03  0.41800000000E+01 0.  1.
         -5    1    4    4    0  501 -0.52657523697E+02  0.54425299425E+02  0.27324401489E+03  0.28357484390E+03  0.41800000000E+01 0.  1.
</event>
<event>
11    1  0.8864208E-009  0.1414579E+03  0.7561462E-02  0.1105941E+00
         22   -1    0    0    0    0  0.00000000000E+00  0.00000000000E+00  0.72145831078E+03  0.72145831078E+03  0.00000000000E+00 0. -1.
         22   -1    0    0    0    0 -0.00000000000E+00 -0.00000000000E+00 -0.94492150676E+03  0.94492150676E+03  0.00000000000E+00 0. -1.
        -24    2    1    2    0    0  0.51720715669E+02  0.15567234984E+02 -0.90339048330E+03  0.90858084018E+03  0.80544438617E+02 0.  0.
         25    2    1    2    0    0 -0.70467152212E+02 -0.74569009048E+02  0.15872904422E+03  0.22664590068E+03  0.12508916087E+03 0.  0.
         24    2    1    2    0    0  0.18746436543E+02  0.59001774064E+02  0.52119824310E+03  0.53115307668E+03  0.81506711567E+02 0.  0.
        -11    1    5    5    0    0 -0.14884477925E+02  0.49112355180E+02  0.15486355277E+03  0.16314500020E+03  0.00000000000E+00 0.  1.
         12    1    5    5    0    0  0.33630914468E+02  0.98894188841E+01  0.36633469033E+03  0.36800807648E+03  0.00000000000E+00 0. -1.
         13    1    3    3    0    0  0.52478775810E+01 -0.24124901621E+02 -0.49776986898E+03  0.49838177491E+03  0.00000000000E+00 0. -1.
        -14    1    3    3    0    0  0.46472838088E+02  0.39692136606E+02 -0.40562061433E+03  0.41019906528E+03  0.00000000000E+00 0.  1.
          5    1    4    4  501    0 -0.10285747182E+03 -0.57117068336E+02  0.88600772566E+02  0.14734173986E+03  0.41800000000E+01 0. -1.
         -5    1    4    4    0  501  0.32390319611E+02 -0.17451940712E+02  0.70128271654E+02  0.79304160826E+02  0.41800000000E+01 0. -1.
</event>
<event>
11    1  0.8864208E-009  0.1275753E+03  0.7561462E-02  0.1122285E+00
         22   -1    0    0    0    0  0.00000000000E+00  0.00000000000E+00  0.74582798532E+03  0.74582798532E+03  0.00000000000E+00 0.  1.
         22   -1    0    0    0    0 -0.00000000000E+00 -0.00000000000E+00 -0.64888344998E+02  0.64888344998E+02  0.00000000000E+00 0. -1.
        -24    2    1    2    0    0  0.61709597884E+01  0.40019255770E+01 -0.19646600689E+02  0.77846582598E+02  0.74966694942E+02 0.  0.
         25    2    1    2    0    0  0.20830427934E+02 -0.29577097133E+01  0.35261971600E+03  0.37474093810E+03  0.12508977496E+03 0.  0.
         24    2    1    2    0    0 -0.27001387722E+02 -0.10442158638E+01  0.34796652501E+03  0.35812880962E+03  0.80283101756E+02 0.  0.
        -13    1    5    5    0    0 -0.32371141266E+02  0.30504589696E+02  0.12098331567E+03  0.12890067280E+03  0.00000000000E+00 0.  1.
         14    1    5    5    0    0  0.53697535437E+01 -0.31548805560E+02  0.22698320934E+03  0.22922813682E+03  0.00000000000E+00 0. -1.
         11    1    3    3    0    0 -0.11891362589E+02 -0.32224494677E+02 -0.13484555015E+02  0.36900620392E+02  0.00000000000E+00 0. -1.
        -12    1    3    3    0    0  0.18062322378E+02  0.36226420254E+02 -0.61620456742E+01  0.40945962206E+02  0.00000000000E+00 0.  1.
          5    1    4    4  501    0  0.41610772643E+02  0.24146397413E+02  0.33011095893E+03  0.33362437338E+03  0.41800000000E+01 0. -1.
         -5    1    4    4    0  501 -0.20780344709E+02 -0.27104107127E+02  0.22508757073E+02  0.41116564720E+02  0.41800000000E+01 0. -1.
</event>
<event>
11    1  0.8864208E-009  0.1498523E+03  0.7561462E-02  0.1097030E+00
         22   -1    0    0    0    0  0.00000000000E+00  0.00000000000E+00  0.33272276136E+03  0.33272276136E+03  0.00000000000E+00 0.  1.
         22   -1    0    0    0    0 -0.00000000000E+00 -0.00000000000E+00 -0.13036159320E+04  0.13036159320E+04  0.00000000000E+00 0. -1.
         24    2    1    2    0    0  0.80960720900E+02 -0.18069938927E+02 -0.11862851158E+04  0.11913327225E+04  0.71555004790E+02 0.  0.
         25    2    1    2    0    0 -0.78854628864E+02 -0.17660986532E+02 -0.56455452754E+02  0.15926494888E+03  0.12509253717E+03 0.  0.
        -24    2    1    2    0    0 -0.21060920361E+01  0.35730925459E+02  0.27184739793E+03  0.28574102196E+03  0.80410131259E+02 0.  0.
        -11    1    3    3    0    0  0.18276594136E+02 -0.34144444102E+02 -0.26975245376E+03  0.27251837235E+03  0.00000000000E+00 0.  1.
         12    1    3    3    0    0  0.62684126763E+02  0.16074505175E+02 -0.91653266204E+03  0.91881435016E+03  0.00000000000E+00 0. -1.
         13    1    5    5    0    0  0.93403171730E+01  0.59008856089E+02  0.15657126002E+03  0.16758235613E+03  0.00000000000E+00 0. -1.
        -14    1    5    5    0    0 -0.11446409209E+02 -0.23277930630E+02  0.11527613792E+03  0.11815866583E+03  0.00000000000E+00 0.  1.
          5    1    4    4  501    0 -0.64682902919E+01  0.39777230404E+02  0.14129816100E+02  0.42909100911E+02  0.41800000000E+01 0.  1.
         -5    1    4    4    0  501 -0.72386338572E+02 -0.57438216936E+02 -0.70585268854E+02  0.11635584797E+03  0.41800000000E+01 0.  1.
</event>
<event>
11    1  0.8864208E-009  0.2825407E+03  0.7561462E-02  0.1007864E+00
         22   -1    0    0    0    0  0.00000000000E+00  0.00000000000E+00  0.13935582902E+04  0.13935582902E+04  0.00000000000E+00 0.  1.
         22   -1    0    0    0    0 -0.00000000000E+00 -0.00000000000E+00 -0.10004053638E+04  0.10004053638E+04  0.00000000000E+00 0.  1.
         24    2    1    2    0    0  0.24224489829E+02  0.24950610514E+03 -0.91825380622E+03  0.95515117956E+03  0.79269166528E+02 0.  0.
         25    2    1    2    0    0 -0.11676915156E+02 -0.32763500530E+03  0.45255129705E+03  0.57265347279E+03  0.12509307092E+03 0.  0.
        -24    2    1    2    0    0 -0.12547574673E+02  0.78128900155E+02  0.85885543557E+03  0.86615900157E+03  0.79606470320E+02 0.  0.
        -11    1    3    3    0    0  0.19879165168E+02  0.23915152030E+03 -0.91027393388E+03  0.94137519915E+03  0.00000000000E+00 0.  1.
         12    1    3    3    0    0  0.43453246618E+01  0.10354584839E+02 -0.79798723352E+01  0.13775980404E+02  0.00000000000E+00 0. -1.
         11    1    5    5    0    0 -0.36098237069E+02  0.29056049180E+02  0.21138394844E+03  0.21640358216E+03  0.00000000000E+00 0. -1.
        -12    1    5    5    0    0  0.23550662395E+02  0.49072850975E+02  0.64747148714E+03  0.64975541941E+03  0.00000000000E+00 0.  1.
          5    1    4    4  501    0 -0.23904066647E+02 -0.32742028775E+03  0.45329934330E+03  0.55970815277E+03  0.41800000000E+01 0. -1.
         -5    1    4    4    0  501  0.12227151491E+02 -0.21471754106E+00 -0.74804625478E+00  0.12945320019E+02  0.41800000000E+01 0. -1.
</event>
<event>
11    1  0.8864208E-009  0.1526222E+03  0.7561462E-02  0.1094229E+00
         22   -1    0    0    0    0  0.00000000000E+00  0.00000000000E+00  0.39105208989E+03  0.39105208989E+03  0.00000000000E+00 0.  1.
         22   -1    0    0    0    0 -0.00000000000E+00 -0.00000000000E+00 -0.18419486657E+03  0.18419486657E+03  0.00000000000E+00 0. -1.
        -24    2    1    2    0    0 -0.60495581788E+02 -0.55358229742E+02 -0.98263137715E+02  0.15095988555E+03  0.80056191493E+02 0.  0.
         25    2    1    2    0    0  0.97570541850E+02  0.67932693162E+02  0.97868443122E+02  0.19839298562E+03  0.12508670253E+03 0.  0.
         24    2    1    2    0    0 -0.37074960063E+02 -0.12574463420E+02  0.20725191792E+03  0.22589408528E+03  0.80883314047E+02 0.  0.
        -11    1    5    5    0    0 -0.40051871374E+02 -0.43139186661E+02  0.14452793076E+03  0.15605596623E+03  0.00000000000E+00 0.  1.
         12    1    5    5    0    0  0.29769113118E+01  0.30564723241E+02  0.62723987159E+02  0.69838119053E+02  0.00000000000E+00 0. -1.
         13    1    3    3    0    0 -0.31121912925E+02 -0.69227870946E+02 -0.89427796535E+02  0.11729621636E+03  0.00000000000E+00 0. -1.
        -14    1    3    3    0    0 -0.29373668862E+02  0.13869641204E+02 -0.88353411800E+01  0.33663669190E+02  0.00000000000E+00 0.  1.
          5    1    4    4  501    0 -0.13418722336E+02  0.69018825704E+01 -0.19946226302E+02  0.25357887054E+02  0.41800000000E+01 0.  1.
         -5    1    4    4    0  501  0.11098926419E+03  0.61030810592E+02  0.11781466942E+03  0.17303509857E+03  0.41800000000E+01 0.  1.
</event>
<event>
11    1  0.8864208E-009  0.2274477E+03  0.7561462E-02  0.1036650E+00
         22   -1    0    0    0    0  0.00000000000E+00  0.00000000000E+00  0.44398703841E+03  0.44398703841E+03  0.00000000000E+00 0. -1.
         22   -1    0    0    0    0 -0.00000000000E+00 -0.00000000000E+00 -0.23214380862E+04  0.23214380862E+04  0.00000000000E+00 0.  1.
         24    2    1    2    0    0 -0.18499864253E+03 -0.49202798131E+02 -0.21920897610E+04  0.22018925571E+04  0.80174183224E+02 0.  0.
         25    2    1    2    0    0  0.15040500023E+03  0.67826151016E+02 -0.28614066364E+02  0.20901908512E+03  0.12509261487E+03 0.  0.
        -24    2    1    2    0    0  0.34593642299E+02 -0.18623352884E+02  0.34325277949E+03  0.35451348246E+03  0.79459356025E+02 0.  0.
        -11    1    3    3    0    0 -0.93712526018E+02 -0.66027339543E+02 -0.12416882468E+04  0.12469688646E+04  0.00000000000E+00 0.  1.
         12    1    3    3    0    0 -0.91286116512E+02  0.16824541411E+02 -0.95040151421E+03  0.95492369249E+03  0.00000000000E+00 0. -1.
         11    1    5    5    0    0 -0.18043903479E+02 -0.26792029993E+02  0.17739045198E+03  0.18030742574E+03  0.00000000000E+00 0. -1.
        -12    1    5    5    0    0  0.52637545778E+02  0.81686771084E+01  0.16586232751E+03  0.17420605672E+03  0.00000000000E+00 0.  1.
          5    1    4    4  501    0  0.16152096732E+03  0.85910007478E+02 -0.35313513058E+02  0.18637078331E+03  0.41800000000E+01 0. -1.
         -5    1    4    4    0  501 -0.11115967087E+02 -0.18083856462E+02  0.66994466941E+01  0.22648301809E+02  0.41800000000E+01 0. -1.
</event>
<event>
11    1  0.8864208E-009  0.1348861E+03  0.7561462E-02  0.1113407E+00
         22   -1    0    0    0    0  0.00000000000E+00  0.00000000000E+00  0.26551580493E+03  0.26551580493E+03  0.00000000000E+00 0. -1.
         22   -1    0    0    0    0 -0.00000000000E+00 -0.00000000000E+00 -0.35855228902E+03  0.35855228902E+03  0.00000000000E+00 0.  1.
         24    2    1    2    0    0  0.12225359828E+02 -0.14729310797E+02 -0.26914956537E+03  0.28232067046E+03  0.83048542520E+02 0.  0.
         25    2    1    2    0    0 -0.10849854387E+02 -0.37841234860E+02 -0.10455306404E+02  0.13155202384E+03  0.12508774180E+03 0.  0.
        -24    2    1    2    0    0 -0.13755054409E+01  0.52570545656E+02  0.18656838768E+03  0.21019539965E+03  0.81294455318E+02 0.  0.
        -11    1    3    3    0    0  0.67544103764E+01 -0.17751054524E+02 -0.27384536949E+03  0.27450320288E+03  0.00000000000E+00 0.  1.
         12    1    3    3    0    0  0.54709494513E+01  0.30217437278E+01  0.46958041281E+01  0.78174675864E+01  0.00000000000E+00 0. -1.
         13    1    5    5    0    0  0.37051780879E+02  0.99728103851E+01  0.90544458597E+02  0.98339160033E+02  0.00000000000E+00 0. -1.
        -14    1    5    5    0    0 -0.38427286320E+02  0.42597735271E+02  0.96023929081E+02  0.11185623961E+03  0.00000000000E+00 0.  1.
          5    1    4    4  501    0 -0.41159573327E+02 -0.38445275184E+02  0.42301213333E+02  0.70562133683E+02  0.41800000000E+01 0. -1.
         -5    1    4    4    0  501  0.30309718941E+02  0.60404032400E+00 -0.52756519737E+02  0.60989890160E+02  0.41800000000E+01 0. -1.
</event>
<event>
11    1  0.8864208E-009  0.1859160E+03  0.7561462E-02  0.1064955E+00
         22   -1    0    0    0    0  0.00000000000E+00  0.00000000000E+00  0.11262274418E+03  0.11262274418E+03  0.00000000000E+00 0. -1.
         22   -1    0    0    0    0 -0.00000000000E+00 -0.00000000000E+00 -0.15915621821E+04  0.15915621821E+04  0.00000000000E+00 0. -1.
        -24    2    1    2    0    0 -0.73204534948E+02  0.63210195772E+02 -0.88874341634E+03  0.89629565640E+03  0.64238701770E+02 0.  0.
         25    2    1    2    0    0 -0.65295135475E+02 -0.15960098633E+02 -0.62215801814E+03  0.63815733768E+03  0.12508400632E+03 0.  0.
         24    2    1    2    0    0  0.13849967042E+03 -0.47250097139E+02  0.31961996536E+02  0.16973193223E+03  0.79828749263E+02 0.  0.
        -11    1    5    5    0    0  0.67028978588E+02 -0.38727926639E+02  0.54081551481E+02  0.94432782882E+02  0.00000000000E+00 0.  1.
         12    1    5    5    0    0  0.71470691835E+02 -0.85221704997E+01 -0.22119554945E+02  0.75299149347E+02  0.00000000000E+00 0. -1.
         11    1    3    3    0    0 -0.54826508749E+02  0.38524924683E+02 -0.33158500476E+03  0.33828794135E+03  0.00000000000E+00 0. -1.
        -12    1    3    3    0    0 -0.18378026199E+02  0.24685271089E+02 -0.55715841158E+03  0.55800771505E+03  0.00000000000E+00 0.  1.
          5    1    4    4  501    0 -0.81458115158E+01 -0.37225907042E+01 -0.52218564365E+03  0.52227916938E+03  0.41800000000E+01 0. -1.
         -5    1    4    4    0  501 -0.57149323959E+02 -0.12237507929E+02 -0.99972374488E+02  0.11587816831E+03  0.41800000000E+01 0. -1.
</event>
<event>
11    1  0.8864208E-009  0.1643397E+03  0.7561462E-02  0.1083065E+00
         22   -1    0    0    0    0  0.00000000000E+00  0.00000000000E+00  0.95580345293E+03  0.95580345293E+03  0.00000000000E+00 0.  1.
         22   -1    0    0    0    0 -0.00000000000E+00 -0.00000000000E+00 -0.43081712519E+03  0.43081712519E+03  0.00000000000E+00 0. -1.
         24    2    1    2    0    0 -0.21177716067E+02 -0.98832762409E+01 -0.36263006909E+03  0.37272188254E+03  0.82914774974E+02 0.  0.
         25    2    1    2    0    0 -0.79910547545E+02 -0.29695574877E+02  0.41328890810E+02  0.15691638481E+03  0.12508857594E+03 0.  0.
        -24    2    1    2    0    0  0.10108826361E+03  0.39578851118E+02  0.84628750602E+03  0.85698231076E+03  0.80192366287E+02 0.  0.
        -11    1    3    3    0    0  0.93706479044E+00  0.35524275023E+02 -0.15878449882E+03  0.16271253569E+03  0.00000000000E+00 0.  1.
         12    1    3    3    0    0 -0.22114780858E+02 -0.45407551264E+02 -0.20384557027E+03  0.21000934685E+03  0.00000000000E+00 0. -1.
         13    1    5    5    0    0  0.25521575770E+02  0.12984694782E+02  0.58500822536E+02  0.65132936106E+02  0.00000000000E+00 0. -1.
        -14    1    5    5    0    0  0.75566687843E+02  0.26594156336E+02  0.78778668348E+03  0.79184937465E+03  0.00000000000E+00 0.  1.
          5    1    4    4  501    0 -0.83330372090E+02  0.16175266892E+02 -0.12593859472E+02  0.85916633244E+02  0.41800000000E+01 0. -1.
         -5    1    4    4    0  501  0.34198245443E+01 -0.45870841769E+02  0.53922750283E+02  0.70999751567E+02  0.41800000000E+01 0. -1.
</event>
<event>
11    1  0.8864208E-009  0.1582543E+03  0.7561462E-02  0.1088731E+00
         22   -1    0    0    0    0  0.00000000000E+00  0.00000000000E+00  0.97238860484E+03  0.97238860484E+03  0.00000000000E+00 0.  1.
         22   -1    0    0    0    0 -0.00000000000E+00 -0.00000000000E+00 -0.21121765258E+04  0.21121765258E+04  0.00000000000E+00 0.  1.
         24    2    1    2    0    0 -0.24573370550E+02 -0.77224037276E+02 -0.20725536576E+04  0.20756352898E+04  0.78840281528E+02 0.  0.
         25    2    1    2    0    0 -0.61136204765E+02  0.11767714997E+03  0.22100190514E+03  0.28648681809E+03  0.12508919902E+03 0.  0.
        -24    2    1    2    0    0  0.85709575316E+02 -0.40453112693E+02  0.71176383152E+03  0.72244302277E+03  0.79583815361E+02 0.  0.
        -11    1    3    3    0    0 -0.39407356253E+02 -0.51760235338E+02 -0.18494454482E+04  0.18505892379E+04  0.00000000000E+00 0.  1.
         12    1    3    3    0    0  0.14833985703E+02 -0.25463801937E+02 -0.22310820947E+03  0.22504605189E+03  0.00000000000E+00 0. -1.
         13    1    5    5    0    0  0.49634340566E+02 -0.15862289911E+02  0.14641415250E+03  0.15541005134E+03  0.00000000000E+00 0. -1.
        -14    1    5    5    0    0  0.36075234750E+02 -0.24590822781E+02  0.56534967902E+03  0.56703297143E+03  0.00000000000E+00 0.  1.
          5    1    4    4  501    0 -0.54266663467E+02  0.46930186272E+02  0.19959035077E+03  0.21213461214E+03  0.41800000000E+01 0. -1.
         -5    1    4    4    0  501 -0.68695412981E+01  0.70746963696E+02  0.21411554366E+02  0.74352205954E+02  0.41800000000E+01 0. -1.
</event>
<event>
11    1  0.8864208E-009  0.2673709E+03  0.7561462E-02  0.1015032E+00
         22   -1    0    0    0    0  0.00000000000E+00  0.00000000000E+00  0.81426048578E+03  0.81426048578E+03  0.00000000000E+00 0.  1.
         22   -1    0    0    0    0 -0.00000000000E+00 -0.00000000000E+00 -0.72041778319E+03  0.72041778319E+03  0.00000000000E+00 0.  1.
        -24    2    1    2    0    0 -0.17152984585E+03  0.13643118818E+03 -0.49640740898E+03  0.54853291503E+03  0.80200287113E+02 0.  0.
         25    2    1    2    0    0  0.30378058707E+03 -0.22522589200E+03  0.31476029386E+02  0.39955899784E+03  0.12508918746E+03 0.  0.
         24    2    1    2    0    0 -0.13225074122E+03  0.88794703816E+02  0.55877408217E+03  0.58658635611E+03  0.80500436562E+02 0.  0.
        -11    1    5    5    0    0 -0.84888953385E+02  0.45428668602E+02  0.45073539477E+03  0.46090378002E+03  0.00000000000E+00 0.  1.
         12    1    5    5    0    0 -0.47361787833E+02  0.43366035213E+02  0.10803868741E+03  0.12568257609E+03  0.00000000000E+00 0. -1.
         11    1    3    3    0    0 -0.88658045944E+02  0.10135096576E+03 -0.36689375807E+03  0.39082386964E+03  0.00000000000E+00 0. -1.
        -12    1    3    3    0    0 -0.82871799905E+02  0.35080222426E+02 -0.12951365091E+03  0.15770904539E+03  0.00000000000E+00 0.  1.
          5    1    4    4  501    0  0.31382428071E+03 -0.21643206384E+03  0.20526887729E+02  0.38179489643E+03  0.41800000000E+01 0.  1.
         -5    1    4    4    0  501 -0.10043693643E+02 -0.87938281610E+01  0.10949141657E+02  0.17764101405E+02  0.41800000000E+01 0.  1.
</event>
<event>
11    1  0.8864208E-009  0.2020839E+03  0.7561462E-02  0.1053060E+00
         22   -1    0    0    0    0  0.00000000000E+00  0.00000000000E+00  0.18299506476E+04  0.18299506476E+04  0.00000000000E+00 0.  1.
         22   -1    0    0    0    0 -0.00000000000E+00 -0.00000000000E+00 -0.32346276482E+04  0.32346276482E+04  0.00000000000E+00 0. -1.
         24    2    1    2    0    0 -0.21926459845E+02  0.31854801557E+02 -0.32129252376E+04  0.32141574353E+04  0.80149474709E+02 0.  0.
         25    2    1    2    0    0  0.16730423676E+03  0.20736449895E+02  0.80519971322E+03  0.83211452709E+03  0.12508916831E+03 0.  0.
        -24    2    1    2    0    0 -0.14537777691E+03 -0.52591251453E+02  0.10030485238E+04  0.10183063335E+04  0.83312124321E+02 0.  0.
        -13    1    3    3    0    0 -0.52390840485E+02  0.23123585237E+02 -0.21101552305E+04  0.21109321631E+04  0.00000000000E+00 0.  1.
         14    1    3    3    0    0  0.30464380640E+02  0.87312163201E+01 -0.11027700071E+04  0.11032252721E+04  0.00000000000E+00 0. -1.
         13    1    5    5    0    0 -0.26638841395E+02 -0.45880895093E+02  0.22175920335E+03  0.22801716751E+03  0.00000000000E+00 0. -1.
        -14    1    5    5    0    0 -0.11873893552E+03 -0.67103563594E+01  0.78128932040E+03  0.79028916597E+03  0.00000000000E+00 0.  1.
          5    1    4    4  501    0  0.59922934561E+02  0.41452405050E+01  0.87443621085E+02  0.10616873539E+03  0.41800000000E+01 0.  1.
         -5    1    4    4    0  501  0.10738130220E+03  0.16591209390E+02  0.71775609214E+03  0.72594579170E+03  0.41800000000E+01 0.  1.
</event>
<event>
11    1  0.8864208E-009  0.1364915E+03  0.7561462E-02  0.1111541E+00
         22   -1    0    0    0    0  0.00000000000E+00  0.00000000000E+00  0.22247636560E+03  0.22247636560E+03  0.00000000000E+00 0. -1.
         22   -1    0    0    0    0 -0.00000000000E+00 -0.00000000000E+00 -0.12527126084E+04  0.12527126084E+04  0.00000000000E+00 0.  1.
         24    2    1    2    0    0 -0.56346828160E+02  0.23995472982E+02 -0.67899600211E+03  0.68647275346E+03  0.80364933846E+02 0.  0.
         25    2    1    2    0    0  0.25898946604E+02 -0.38086457971E+02 -0.55325419369E+03  0.56908580904E+03  0.12508845469E+03 0.  0.
        -24    2    1    2    0    0  0.30447881556E+02  0.14090984990E+02  0.20201395301E+03  0.21963041149E+03  0.79386718602E+02 0.  0.
        -11    1    3    3    0    0 -0.11317290564E+02  0.30895896091E+02 -0.52106443881E+03  0.52210227623E+03  0.00000000000E+00 0.  1.
         12    1    3    3    0    0 -0.45029537596E+02 -0.69004231098E+01 -0.15793156330E+03  0.16437047722E+03  0.00000000000E+00 0. -1.
         13    1    5    5    0    0 -0.34810998110E+01 -0.21493651056E+02  0.13370636223E+03  0.13546765810E+03  0.00000000000E+00 0. -1.
        -14    1    5    5    0    0  0.33928981367E+02  0.35584636045E+02  0.68307590788E+02  0.84162753391E+02  0.00000000000E+00 0.  1.
          5    1    4    4  501    0 -0.36587309846E+02 -0.56869724087E+02 -0.29567937963E+03  0.30334232263E+03  0.41800000000E+01 0. -1.
         -5    1    4    4    0  501  0.62486256450E+02  0.18783266116E+02 -0.25757481406E+03  0.26574348641E+03  0.41800000000E+01 0. -1.
</event>
<event>
11    1  0.8864208E-009  0.1501670E+03  0.7561462E-02  0.1096708E+00
         22   -1    0    0    0    0  0.00000000000E+00  0.00000000000E+00  0.10519865863E+04  0.10519865863E+04  0.00000000000E+00 0.  1.
         22   -1    0    0    0    0 -0.00000000000E+00 -0.00000000000E+00 -0.25611711163E+03  0.25611711163E+03  0.00000000000E+00 0.  1.
         24    2    1    2    0    0 -0.49905125291E+02 -0.65230490918E+02 -0.17133319688E+03  0.20718159693E+03  0.82605152857E+02 0.  0.
         25    2    1    2    0    0  0.18644867044E+02  0.94843235161E+02  0.32327179872E+02  0.16134181615E+03  0.12507303769E+03 0.  0.
        -24    2    1    2    0    0  0.31260258248E+02 -0.29612744244E+02  0.93487549163E+03  0.93958028479E+03  0.83455427300E+02 0.  0.
        -13    1    3    3    0    0  0.78639823657E+01 -0.28764529121E+02 -0.11449029734E+03  0.11831005257E+03  0.00000000000E+00 0.  1.
         14    1    3    3    0    0 -0.57769107657E+02 -0.36465961797E+02 -0.56842899544E+02  0.88871544365E+02  0.00000000000E+00 0. -1.
         13    1    5    5    0    0  0.62812179705E+01  0.78559281419E+01  0.12222625096E+02  0.15829146231E+02  0.00000000000E+00 0. -1.
        -14    1    5    5    0    0  0.24979040277E+02 -0.37468672386E+02  0.92265286654E+03  0.92375113856E+03  0.00000000000E+00 0.  1.
          5    1    4    4  501    0  0.35846426183E+02  0.11167212729E+03  0.53536739372E+02  0.12899335311E+03  0.41800000000E+01 0.  1.
         -5    1    4    4    0  501 -0.17201559139E+02 -0.16828892126E+02 -0.21209559500E+02  0.32348463043E+02  0.41800000000E+01 0.  1.
</event>
<event>
11    1  0.8864208E-009  0.1698527E+03  0.7561462E-02  0.1078160E+00
         22   -1    0    0    0    0  0.00000000000E+00  0.00000000000E+00  0.82710830711E+03  0.82710830711E+03  0.00000000000E+00 0. -1.
         22   -1    0    0    0    0 -0.00000000000E+00 -0.00000000000E+00 -0.98520031103E+02  0.98520031103E+02  0.00000000000E+00 0.  1.
        -24    2    1    2    0    0 -0.19718736091E+02 -0.15402279213E+02 -0.42356515075E+02  0.90559996716E+02  0.76032755296E+02 0.  0.
         25    2    1    2    0    0  0.12336803419E+03  0.41532309670E+02  0.36857896637E+03  0.41041828024E+03  0.12509238865E+03 0.  0.
         24    2    1    2    0    0 -0.10364929810E+03 -0.26130030457E+02  0.40236582471E+03  0.42465006126E+03  0.83686690363E+02 0.  0.
        -11    1    5    5    0    0 -0.50212516787E+02  0.23854604738E+02  0.10976937085E+03  0.12304330046E+03  0.00000000000E+00 0.  1.
         12    1    5    5    0    0 -0.53436781308E+02 -0.49984635195E+02  0.29259645386E+03  0.30160676080E+03  0.00000000000E+00 0. -1.
         13    1    3    3    0    0 -0.38492750439E+01  0.39823870912E+01  0.21375281083E+02  0.22081190337E+02  0.00000000000E+00 0. -1.
        -14    1    3    3    0    0 -0.15869461047E+02 -0.19384666304E+02 -0.63731796158E+02  0.68478806380E+02  0.00000000000E+00 0.  1.
          5    1    4    4  501    0 -0.21208728917E+02  0.56364934997E+01  0.10754089463E+03  0.10983668176E+03  0.41800000000E+01 0.  1.
         -5    1    4    4    0  501  0.14457676310E+03  0.35895816170E+02  0.26103807174E+03  0.30058159848E+03  0.41800000000E+01 0.  1.
</event>
<event>
11    1  0.8864208E-009  0.1508137E+03  0.7561462E-02  0.1096050E+00
         22   -1    0    0    0    0  0.00000000000E+00  0.00000000000E+00  0.90483812517E+03  0.90483812517E+03  0.00000000000E+00 0.  1.
         22   -1    0    0    0    0 -0.00000000000E+00 -0.00000000000E+00 -0.15217957707E+04  0.15217957707E+04  0.00000000000E+00 0. -1.
         24    2    1    2    0    0 -0.11388772246E+02 -0.60934063718E+02 -0.13672789729E+04  0.13707575856E+04  0.75378409232E+02 0.  0.
         25    2    1    2    0    0  0.84230205216E+02  0.10118604674E+03 -0.93443542037E+02  0.20423499608E+03  0.12508754754E+03 0.  0.
        -24    2    1    2    0    0 -0.72841432970E+02 -0.40251983020E+02  0.84376486936E+03  0.85164131422E+03  0.80172793504E+02 0.  0.
        -11    1    3    3    0    0  0.20510740966E+02  0.75684009296E+01 -0.27475688298E+03  0.27562531801E+03  0.00000000000E+00 0.  1.
         12    1    3    3    0    0 -0.31899513212E+02 -0.68502464648E+02 -0.10925220899E+04  0.10951322676E+04  0.00000000000E+00 0. -1.
         11    1    5    5    0    0 -0.58805388846E+02 -0.11189317304E+02  0.25259292983E+03  0.25958902669E+03  0.00000000000E+00 0. -1.
        -12    1    5    5    0    0 -0.14036044123E+02 -0.29062665715E+02  0.59117193953E+03  0.59205228753E+03  0.00000000000E+00 0.  1.
          5    1    4    4  501    0  0.98932665577E+02  0.29693594125E+02 -0.30551173267E+02  0.10779716341E+03  0.41800000000E+01 0. -1.
         -5    1    4    4    0  501 -0.14702460361E+02  0.71492452613E+02 -0.62892368770E+02  0.96437832674E+02  0.41800000000E+01 0. -1.
</event>
<event>
11    1  0.8864208E-009  0.1380958E+03  0.7561462E-02  0.1109704E+00
         22   -1    0    0    0    0  0.00000000000E+00  0.00000000000E+00  0.30776388785E+03  0.30776388785E+03  0.00000000000E+00 0. -1.
         22   -1    0    0    0    0 -0.00000000000E+00 -0.00000000000E+00 -0.69665410784E+03  0.69665410784E+03  0.00000000000E+00 0.  1.
        -24    2    1    2    0    0 -0.27312588536E+02  0.49730743611E+02 -0.40219195880E+03  0.41402205496E+03  0.80229457928E+02 0.  0.
         25    2    1    2    0    0  0.67648104498E+02 -0.31530810070E+02 -0.26212716393E+03  0.29987857410E+03  0.12508417611E+03 0.  0.
         24    2    1    2    0    0 -0.40335515962E+02 -0.18199933541E+02  0.27542890274E+03  0.29051736662E+03  0.81123784504E+02 0.  0.
        -11    1    5    5    0    0  0.79269492478E+01 -0.35036248402E+02  0.68249968085E+02  0.77126087481E+02  0.00000000000E+00 0.  1.
         12    1    5    5    0    0 -0.48262465210E+02  0.16836314861E+02  0.20717893466E+03  0.21339127914E+03  0.00000000000E+00 0. -1.
         11    1    3    3    0    0  0.18134950418E+02 -0.11898346857E+02 -0.89198067169E+02  0.91797289019E+02  0.00000000000E+00 0. -1.
        -12    1    3    3    0    0 -0.45447538955E+02  0.61629090468E+02 -0.31299389163E+03  0.32222476594E+03  0.00000000000E+00 0.  1.
          5    1    4    4  501    0  0.62914281348E+02 -0.73545856375E+02 -0.21834238191E+03  0.23886830665E+03  0.41800000000E+01 0. -1.
         -5    1    4    4    0  501  0.47338231502E+01  0.42015046305E+02 -0.43784782021E+02  0.61010267450E+02  0.41800000000E+01 0. -1.
</event>
<event>
11    1  0.8864208E-009  0.1990926E+03  0.7561462E-02  0.1055167E+00
         22   -1    0    0    0    0  0.00000000000E+00  0.00000000000E+00  0.17006937870E+03  0.17006937870E+03  0.00000000000E+00 0.  1.
         22   -1    0    0    0    0 -0.00000000000E+00 -0.00000000000E+00 -0.20053949446E+04  0.20053949446E+04  0.00000000000E+00 0.  1.
        -24    2    1    2    0    0 -0.11683010875E+01 -0.59128643638E+01 -0.17828384605E+04  0.17847381927E+04  0.82104283330E+02 0.  0.
         25    2    1    2    0    0  0.15265939025E+03  0.34230977606E+02 -0.77562389243E+02  0.21480292386E+03  0.12509085744E+03 0.  0.
         24    2    1    2    0    0 -0.15149108917E+03 -0.28318113243E+02  0.25075283834E+02  0.17592320675E+03  0.81047758632E+02 0.  0.
        -13    1    5    5    0    0 -0.15211283420E+03 -0.18526008575E+02  0.39714824616E+02  0.15829969873E+03  0.00000000000E+00 0.  1.
         14    1    5    5    0    0  0.62174503602E+00 -0.97921046678E+01 -0.14639540782E+02  0.17623508023E+02  0.00000000000E+00 0. -1.
         11    1    3    3    0    0 -0.10790775711E+02 -0.30986679817E+02 -0.32495117974E+03  0.32660355844E+03  0.00000000000E+00 0. -1.
        -12    1    3    3    0    0  0.96224746235E+01  0.25073815453E+02 -0.14578872808E+04  0.14581346343E+04  0.00000000000E+00 0.  1.
          5    1    4    4  501    0  0.15500107408E+03  0.30952792108E+02 -0.22821582462E+02  0.15975514180E+03  0.41800000000E+01 0. -1.
         -5    1    4    4    0  501 -0.23416838257E+01  0.32781854982E+01 -0.54740806781E+02  0.55047782066E+02  0.41800000000E+01 0. -1.
</event>
<event>
11    1  0.8864208E-009  0.1338732E+03  0.7561462E-02  0.1114600E+00
         22   -1    0    0    0    0  0.00000000000E+00  0.00000000000E+00  0.13082943800E+04  0.13082943800E+04  0.00000000000E+00 0. -1.
         22   -1    0    0    0    0 -0.00000000000E+00 -0.00000000000E+00 -0.50206034506E+03  0.50206034506E+03  0.00000000000E+00 0.  1.
        -24    2    1    2    0    0  0.11656341610E+02 -0.50913245804E+02 -0.40774534521E+03  0.41982239192E+03  0.85244033944E+02 0.  0.
         25    2    1    2    0    0 -0.17860111837E+02  0.88878661529E+01 -0.40174316548E+02  0.13288539805E+03  0.12508627241E+03 0.  0.
         24    2    1    2    0    0  0.62037702275E+01  0.42025379652E+02  0.12541536967E+04  0.12576469351E+04  0.83484723876E+02 0.  0.
        -13    1    5    5    0    0 -0.33322039998E+02  0.39736671320E+02  0.57232479052E+03  0.57466949392E+03  0.00000000000E+00 0.  1.
         14    1    5    5    0    0  0.39525810226E+02  0.22887083320E+01  0.68182890622E+03  0.68297744122E+03  0.00000000000E+00 0. -1.
         13    1    3    3    0    0  0.39987401564E+02  0.19033484671E+01 -0.16125481628E+03  0.16614972402E+03  0.00000000000E+00 0. -1.
        -14    1    3    3    0    0 -0.28331059954E+02 -0.52816594271E+02 -0.24649052892E+03  0.25367266790E+03  0.00000000000E+00 0.  1.
          5    1    4    4  501    0  0.24480827804E+02 -0.33245640883E+02 -0.57168331449E+02  0.70641872062E+02  0.41800000000E+01 0. -1.
         -5    1    4    4    0  501 -0.42340939641E+02  0.42133507035E+02  0.16994014901E+02  0.62243525987E+02  0.41800000000E+01 0. -1.
</event>
<event>
11    1  0.8864208E-009  0.1711770E+03  0.7561462E-02  0.1077012E+00
         22   -1    0    0    0    0  0.00000000000E+00  0.00000000000E+00  0.38659183195E+03  0.38659183195E+03  0.00000000000E+00 0.  1.
         22   -1    0    0    0    0 -0.00000000000E+00 -0.00000000000E+00 -0.25383206714E+03  0.25383206714E+03  0.00000000000E+00 0.  1.
         24    2    1    2    0    0 -0.10171802505E+03  0.55954874983E+02 -0.17923925571E+03  0.22791279948E+03  0.79624297328E+02 0.  0.
         25    2    1    2    0    0  0.12745827527E+03 -0.24323672447E+02  0.19493566856E+03  0.26548788976E+03  0.12508657704E+03 0.  0.
        -24    2    1    2    0    0 -0.25740250218E+02 -0.31631202537E+02  0.11706335196E+03  0.14702320986E+03  0.79049999424E+02 0.  0.
        -11    1    3    3    0    0 -0.10755165566E+03  0.27339173990E+02 -0.13290864450E+03  0.17314588315E+03  0.00000000000E+00 0.  1.
         12    1    3    3    0    0  0.58336306046E+01  0.28615700993E+02 -0.46330611211E+02  0.54766916332E+02  0.00000000000E+00 0. -1.
         11    1    5    5    0    0 -0.33569494484E+02 -0.49185126094E+02  0.11246897470E+03  0.12726098325E+03  0.00000000000E+00 0. -1.
        -12    1    5    5    0    0  0.78292442661E+01  0.17553923557E+02  0.45943772679E+01  0.19762226608E+02  0.00000000000E+00 0.  1.
          5    1    4    4  501    0  0.69096584141E+02 -0.75252069580E+02  0.11968719762E+03  0.15741572218E+03  0.41800000000E+01 0. -1.
         -5    1    4    4    0  501  0.58361691127E+02  0.50928397134E+02  0.75248470937E+02  0.10807216757E+03  0.41800000000E+01 0. -1.
</event>
<event>
11    1  0.8864208E-009  0.2133465E+03  0.7561462E-02  0.1045467E+00
         22   -1    0    0    0    0  0.00000000000E+00  0.00000000000E+00  0.12217616644E+04  0.12217616644E+04  0.00000000000E+00 0.  1.
         22   -1    0    0    0    0 -0.00000000000E+00 -0.00000000000E+00 -0.76542656234E+02  0.76542656234E+02  0.00000000000E+00 0.  1.
        -24    2    1    2    0    0  0.13868873426E+03 -0.30630937789E+02  0.21406117534E+03  0.27016395812E+03  0.83627496180E+02 0.  0.
         25    2    1    2    0    0 -0.20335720313E+03  0.11363984883E+03  0.39162778681E+03  0.47253423861E+03  0.12509242965E+03 0.  0.
         24    2    1    2    0    0  0.64668468871E+02 -0.83008911038E+02  0.53953004602E+03  0.55560612391E+03  0.80827001586E+02 0.  0.
        -13    1    5    5    0    0  0.78982631882E+02 -0.85044228137E+02  0.44083694700E+03  0.45585961734E+03  0.00000000000E+00 0.  1.
         14    1    5    5    0    0 -0.14314163011E+02  0.20353170998E+01  0.98693099025E+02  0.99746506574E+02  0.00000000000E+00 0. -1.
         11    1    3    3    0    0  0.16133931813E+02 -0.38762273107E+02  0.55965780235E+02  0.69964177473E+02  0.00000000000E+00 0. -1.
        -12    1    3    3    0    0  0.12255480245E+03  0.81313353180E+01  0.15809539510E+03  0.20019978064E+03  0.00000000000E+00 0.  1.
          5    1    4    4  501    0 -0.46272799081E+01  0.56124964844E+02  0.10186284995E+03  0.11646860521E+03  0.41800000000E+01 0.  1.
         -5    1    4    4    0  501 -0.19872992322E+03  0.57514883983E+02  0.28976493686E+03  0.35606563341E+03  0.41800000000E+01 0.  1.
</event>
<event>
11    1  0.8864208E-009  0.2652455E+03  0.7561462E-02  0.1016077E+00
         22   -1    0    0    0    0  0.00000000000E+00  0.00000000000E+00  0.86406194324E+03  0.86406194324E+03  0.00000000000E+00 0. -1.
         22   -1    0    0    0    0 -0.00000000000E+00 -0.00000000000E+00 -0.18395634203E+03  0.18395634203E+03  0.00000000000E+00 0. -1.
        -24    2    1    2    0    0  0.19754403035E+03  0.16275046738E+03 -0.32696260664E+01  0.26743559444E+03  0.77458041287E+02 0.  0.
         25    2    1    2    0    0 -0.13434046160E+03 -0.12665442954E+03  0.25502700150E+03  0.33878462467E+03  0.12509015259E+03 0.  0.
         24    2    1    2    0    0 -0.63203568757E+02 -0.36096037839E+02  0.42834822578E+03  0.44179806616E+03  0.80035702530E+02 0.  0.
        -11    1    5    5    0    0 -0.41387397215E+02  0.16672385440E+02  0.11623938024E+03  0.12450894990E+03  0.00000000000E+00 0.  1.
         12    1    5    5    0    0 -0.21816171541E+02 -0.52768423278E+02  0.31210884553E+03  0.31728911626E+03  0.00000000000E+00 0. -1.
         13    1    3    3    0    0  0.17232041928E+03  0.13982278949E+03  0.24781079239E+02  0.22329093410E+03  0.00000000000E+00 0. -1.
        -14    1    3    3    0    0  0.25223611077E+02  0.22927677885E+02 -0.28050705305E+02  0.44144660346E+02  0.00000000000E+00 0.  1.
          5    1    4    4  501    0 -0.15599504413E+03 -0.96193174415E+02  0.19251826459E+03  0.26583516547E+03  0.41800000000E+01 0. -1.
         -5    1    4    4    0  501  0.21654582533E+02 -0.30461255122E+02  0.62508736912E+02  0.72949459207E+02  0.41800000000E+01 0. -1.
</event>
<event>
11    1  0.8864208E-009  0.1889673E+03  0.7561462E-02  0.1062612E+00
         22   -1    0    0    0    0  0.00000000000E+00  0.00000000000E+00  0.23377413818E+04  0.23377413818E+04  0.00000000000E+00 0. -1.
         22   -1    0    0    0    0 -0.00000000000E+00 -0.00000000000E+00 -0.68065075845E+03  0.68065075845E+03  0.00000000000E+00 0. -1.
         24    2    1    2    0    0 -0.11596597825E+02 -0.14711909936E+03 -0.41851596710E+03  0.45103097236E+03  0.80590401613E+02 0.  0.
         25    2    1    2    0    0  0.13907337126E+03  0.98152025857E+02 -0.19720901947E+03  0.28899173620E+03  0.12509837514E+03 0.  0.
        -24    2    1    2    0    0 -0.12747677343E+03  0.48967073508E+02  0.22728156099E+04  0.22783694317E+04  0.81414792981E+02 0.  0.
        -11    1    3    3    0    0 -0.29464885416E+02 -0.36787841110E+02 -0.65160836094E+02  0.80420515334E+02  0.00000000000E+00 0.  1.
         12    1    3    3    0    0  0.17868287590E+02 -0.11033125825E+03 -0.35335513101E+03  0.37061045703E+03  0.00000000000E+00 0. -1.
         13    1    5    5    0    0 -0.13611876158E+03  0.34706937174E+02  0.21194359639E+04  0.21240860843E+04  0.00000000000E+00 0. -1.
        -14    1    5    5    0    0  0.86419881468E+01  0.14260136334E+02  0.15337964603E+03  0.15428334733E+03  0.00000000000E+00 0.  1.
          5    1    4    4  501    0  0.15702413220E+03  0.10660583906E+03 -0.18622883149E+03  0.26593238444E+03  0.41800000000E+01 0.  1.
         -5    1    4    4    0  501 -0.17950760937E+02 -0.84538132044E+01 -0.10980187977E+02  0.23059351767E+02  0.41800000000E+01 0.  1.
</event>
<event>
11    1  0.8864208E-009  0.1722258E+03  0.7561462E-02  0.1076111E+00
         22   -1    0    0    0    0  0.00000000000E+00  0.00000000000E+00  0.29487947993E+03  0.29487947993E+03  0.00000000000E+00 0. -1.
         22   -1    0    0    0    0 -0.00000000000E+00 -0.00000000000E+00 -0.81128233054E+03  0.81128233054E+03  0.00000000000E+00 0.  1.
         24    2    1    2    0    0 -0.20175777781E+02 -0.19273271012E+01 -0.72220835513E+03  0.72683939302E+03  0.79371395508E+02 0.  0.
         25    2    1    2    0    0 -0.37987924107E+02  0.10837432215E+03  0.84654089237E+02  0.18974193639E+03  0.12509041339E+03 0.  0.
        -24    2    1    2    0    0  0.58163701887E+02 -0.10644699505E+03  0.12115141528E+03  0.18958048106E+03  0.80926598857E+02 0.  0.
        -13    1    3    3    0    0 -0.20000283680E+02 -0.35743686884E+02 -0.53769321166E+03  0.53925097345E+03  0.00000000000E+00 0.  1.
         14    1    3    3    0    0 -0.17549410105E+00  0.33816359783E+02 -0.18451514347E+03  0.18758841957E+03  0.00000000000E+00 0. -1.
         13    1    5    5    0    0  0.73934890042E+02 -0.10537198577E+03  0.11502236639E+03  0.17262609340E+03  0.00000000000E+00 0. -1.
        -14    1    5    5    0    0 -0.15771188155E+02 -0.10750092763E+01  0.61290488874E+01  0.16954387663E+02  0.00000000000E+00 0.  1.
          5    1    4    4  501    0 -0.74806400484E+01  0.11022869300E+03  0.12494412427E+02  0.11126503260E+03  0.41800000000E+01 0.  1.
         -5    1    4    4    0  501 -0.30507284058E+02 -0.18543708574E+01  0.72159676810E+02  0.78476903795E+02  0.41800000000E+01 0.  1.
</event>
<event>
11    1  0.8864208E-009  0.1327755E+03  0.7561462E-02  0.1115905E+00
         22   -1    0    0    0    0  0.00000000000E+00  0.00000000000E+00  0.12404582014E+04  0.12404582014E+04  0.00000000000E+00 0. -1.
         22   -1    0    0    0    0 -0.00000000000E+00 -0.00000000000E+00 -0.58436864236E+03  0.58436864236E+03  0.00000000000E+00 0. -1.
        -24    2    1    2    0    0 -0.37313452549E+02 -0.24874558053E+01 -0.54452944033E+03  0.55122369642E+03  0.77050444100E+02 0.  0.
         25    2    1    2    0    0  0.55644119614E+02 -0.37277786550E+02  0.11091414723E+03  0.18009763683E+03  0.12508920544E+03 0.  0.
         24    2    1    2    0    0 -0.18330667065E+02  0.39765242355E+02  0.10897048522E+04  0.10935055105E+04  0.79877086029E+02 0.  0.
        -13    1    5    5    0    0 -0.36070467987E+02  0.36112714539E+01  0.22833032543E+03  0.23119008943E+03  0.00000000000E+00 0.  1.
         14    1    5    5    0    0  0.17739800922E+02  0.36153970901E+02  0.86137452675E+03  0.86231542111E+03  0.00000000000E+00 0. -1.
         11    1    3    3    0    0 -0.60463160271E+01 -0.20356628473E+02 -0.44278191856E+03  0.44329084997E+03  0.00000000000E+00 0. -1.
        -12    1    3    3    0    0 -0.31267136521E+02  0.17869172668E+02 -0.10174752177E+03  0.10793284645E+03  0.00000000000E+00 0.  1.
          5    1    4    4  501    0 -0.70474077979E+01 -0.19105746785E+02 -0.23037567355E+02  0.31030588562E+02  0.41800000000E+01 0. -1.
         -5    1    4    4    0  501  0.62691527411E+02 -0.18172039764E+02  0.13395171458E+03  0.14906704826E+03  0.41800000000E+01 0. -1.
</event>
<event>
11    1  0.8864208E-009  0.1445006E+03  0.7561462E-02  0.1102634E+00
         22   -1    0    0    0    0  0.00000000000E+00  0.00000000000E+00  0.42977903489E+03  0.42977903489E+03  0.00000000000E+00 0.  1.
         22   -1    0    0    0    0 -0.00000000000E+00 -0.00000000000E+00 -0.18260782760E+03  0.18260782760E+03  0.00000000000E+00 0. -1.
         24    2    1    2    0    0 -0.80823823328E+02 -0.15529646031E+02 -0.56000981619E+02  0.12734283750E+03  0.79413021582E+02 0.  0.
         25    2    1    2    0    0  0.53037887443E+02  0.23021936831E+02 -0.30083910387E+02  0.14104821961E+03  0.12508609639E+03 0.  0.
        -24    2    1    2    0    0  0.27785935886E+02 -0.74922908003E+01  0.33325609930E+03  0.34399580538E+03  0.80282586838E+02 0.  0.
        -13    1    3    3    0    0 -0.26750099196E+02  0.29480053269E+02 -0.43105600499E+01  0.40040258187E+02  0.00000000000E+00 0.  1.
         14    1    3    3    0    0 -0.54073724133E+02 -0.45009699300E+02 -0.51690421569E+02  0.87302579313E+02  0.00000000000E+00 0. -1.
         11    1    5    5    0    0  0.27284166089E+02  0.19921205592E+02  0.56098156106E+02  0.65484985072E+02  0.00000000000E+00 0. -1.
        -12    1    5    5    0    0  0.50176979620E+00 -0.27413496393E+02  0.27715794319E+03  0.27851082031E+03  0.00000000000E+00 0.  1.
          5    1    4    4  501    0 -0.10394584949E+02 -0.41961071780E+02  0.47641312424E+01  0.43691512765E+02  0.41800000000E+01 0.  1.
         -5    1    4    4    0  501  0.63432472392E+02  0.64983008612E+02 -0.34848041629E+02  0.97356706843E+02  0.41800000000E+01 0.  1.
</event>
<event>
11    1  0.8864208E-009  0.1616978E+03  0.7561462E-02  0.1085491E+00
         22   -1    0    0    0    0  0.00000000000E+00  0.00000000000E+00  0.15755698105E+04  0.15755698105E+04  0.00000000000E+00 0. -1.
         22   -1    0    0    0    0 -0.00000000000E+00 -0.00000000000E+00 -0.97781071432E+02  0.97781071432E+02  0.00000000000E+00 0.  1.
         24    2    1    2    0    0 -0.32326557000E+02  0.16787855207E+02 -0.68243607988E+01  0.10057458055E+03  0.93497785981E+02 0.  0.
         25    2    1    2    0    0  0.11589274735E+03  0.40349762561E+02  0.14629682060E+03  0.22827430056E+03  0.12508862600E+03 0.  0.
        -24    2    1    2    0    0 -0.83566190349E+02 -0.57137617769E+02  0.13383162792E+04  0.13445020008E+04  0.79669010920E+02 0.  0.
        -11    1    3    3    0    0 -0.41123949640E+02 -0.20104903319E+02 -0.31283947516E+02  0.55444312094E+02  0.00000000000E+00 0.  1.
         12    1    3    3    0    0  0.87973926400E+01  0.36892758526E+02  0.24459586717E+02  0.45130268460E+02  0.00000000000E+00 0. -1.
         13    1    5    5    0    0 -0.42239399864E+02  0.93855514366E+01  0.28356489754E+03  0.28684718334E+03  0.00000000000E+00 0. -1.
        -14    1    5    5    0    0 -0.41326790485E+02 -0.66523169205E+02  0.10547513817E+04  0.10576548174E+04  0.00000000000E+00 0.  1.
          5    1    4    4  501    0  0.14212242684E+03  0.25596537130E+02  0.11496746423E+03  0.18463195052E+03  0.41800000000E+01 0. -1.
         -5    1    4    4    0  501 -0.26229679488E+02  0.14753225431E+02  0.31329356370E+02  0.43642350042E+02  0.41800000000E+01 0. -1.
</event>
<event>
11    1  0.8864208E-009  0.1616980E+03  0.7561462E-02  0.1085491E+00
         22   -1    0    0    0    0  0.00000000000E+00  0.00000000000E+00  0.24650990116E+04  0.24650990116E+04  0.00000000000E+00 0.  1.
         22   -1    0    0    0    0 -0.00000000000E+00 -0.00000000000E+00 -0.82182415677E+03  0.82182415677E+03  0.00000000000E+00 0. -1.
        -24    2    1    2    0    0 -0.89813152068E+02  0.50434539473E+02 -0.79695139003E+03  0.80755262325E+03  0.79997976112E+02 0.  0.
         25    2    1    2    0    0  0.16914977994E+02 -0.10194677338E+03  0.34984746310E+03  0.38564146582E+03  0.12508729608E+03 0.  0.
         24    2    1    2    0    0  0.72898174074E+02  0.51512233902E+02  0.20903787818E+04  0.20937290793E+04  0.77784010089E+02 0.  0.
        -11    1    5    5    0    0  0.85624253773E+02  0.52054033007E+02  0.19934499309E+04  0.19959668740E+04  0.00000000000E+00 0.  1.
         12    1    5    5    0    0 -0.12726079699E+02 -0.54179910444E+00  0.96928850887E+02  0.97762205299E+02  0.00000000000E+00 0. -1.
         13    1    3    3    0    0 -0.10143012357E+03  0.54510979586E+02 -0.75815278043E+03  0.76684754374E+03  0.00000000000E+00 0. -1.
        -14    1    3    3    0    0  0.11616971499E+02 -0.40764401124E+01 -0.38798609598E+02  0.40705079505E+02  0.00000000000E+00 0.  1.
          5    1    4    4  501    0  0.37528368986E+02 -0.16730151372E+02  0.24700849302E+03  0.25043750612E+03  0.41800000000E+01 0. -1.
         -5    1    4    4    0  501 -0.20613390991E+02 -0.85216622004E+02  0.10283897007E+03  0.13520395970E+03  0.41800000000E+01 0. -1.
</event>
<event>
11    1  0.8864208E-009  0.1529581E+03  0.7561462E-02  0.1093894E+00
         22   -1    0    0    0    0  0.00000000000E+00  0.00000000000E+00  0.47735051580E+03  0.47735051580E+03  0.00000000000E+00 0. -1.
         22   -1    0    0    0    0 -0.00000000000E+00 -0.00000000000E+00 -0.51469495860E+03  0.51469495860E+03  0.00000000000E+00 0.  1.
        -24    2    1    2    0    0  0.87365525336E+02 -0.45015515442E+02 -0.37448576743E+03  0.39516441010E+03  0.79096076716E+02 0.  0.
         25    2    1    2    0    0 -0.59680580337E+02 -0.12323400256E+02 -0.84300211006E+02  0.16268939106E+03  0.12509066522E+03 0.  0.
         24    2    1    2    0    0 -0.27684944999E+02  0.57338915698E+02  0.42144153564E+03  0.43419167323E+03  0.82796338735E+02 0.  0.
        -13    1    5    5    0    0 -0.37700674338E+02  0.21109825797E+02  0.82111270790E+02  0.92785916935E+02  0.00000000000E+00 0.  1.
         14    1    5    5    0    0  0.10015729338E+02  0.36229089901E+02  0.33933026485E+03  0.34140575630E+03  0.00000000000E+00 0. -1.
         11    1    3    3    0    0  0.17744244885E+02  0.14688567571E+02 -0.16338631361E+03  0.16500212034E+03  0.00000000000E+00 0. -1.
        -12    1    3    3    0    0  0.69621280452E+02 -0.59704083013E+02 -0.21109945383E+03  0.23016228976E+03  0.00000000000E+00 0.  1.
          5    1    4    4  501    0 -0.57709513899E+02  0.43956078565E+02 -0.76795612397E+02  0.10572399595E+03  0.41800000000E+01 0. -1.
         -5    1    4    4    0  501 -0.19710664386E+01 -0.56279478821E+02 -0.75045986094E+01  0.56965395106E+02  0.41800000000E+01 0. -1.
</event>
<event>
11    1  0.8864208E-009  0.1546851E+03  0.7561462E-02  0.1092185E+00
         22   -1    0    0    0    0  0.00000000000E+00  0.00000000000E+00  0.80163545615E+03  0.80163545615E+03  0.00000000000E+00 0.  1.
         22   -1    0    0    0    0 -0.00000000000E+00 -0.00000000000E+00 -0.28126378757E+04  0.28126378757E+04  0.00000000000E+00 0. -1.
        -24    2    1    2    0    0 -0.27493775736E+02 -0.26605247912E+02 -0.27609023465E+04  0.27623583265E+04  0.81104933028E+02 0.  0.
         25    2    1    2    0    0 -0.61310537881E+02 -0.67659072567E+01  0.61893595842E+02  0.15259076878E+03  0.12509342890E+03 0.  0.
         24    2    1    2    0    0  0.88804313617E+02  0.33371155169E+02  0.68800633120E+03  0.69932423648E+03  0.81864741119E+02 0.  0.
        -11    1    5    5    0    0  0.75948876137E+02  0.57362666511E+02  0.58918433183E+03  0.59682232211E+03  0.00000000000E+00 0.  1.
         12    1    5    5    0    0  0.12855437480E+02 -0.23991511342E+02  0.98821999374E+02  0.10250191437E+03  0.00000000000E+00 0. -1.
         11    1    3    3    0    0 -0.55890750594E+02 -0.15566695710E+02 -0.15854516431E+04  0.15865128461E+04  0.00000000000E+00 0. -1.
        -12    1    3    3    0    0  0.28396974858E+02 -0.11038552202E+02 -0.11754507034E+04  0.11758454805E+04  0.00000000000E+00 0.  1.
          5    1    4    4  501    0 -0.73177514290E+02  0.36432369069E+00  0.92925759035E+02  0.11835434264E+03  0.41800000000E+01 0.  1.
         -5    1    4    4    0  501  0.11866976409E+02 -0.71302309474E+01 -0.31032163193E+02  0.34236426141E+02  0.41800000000E+01 0.  1.
</event>
<event>
11    1  0.8864208E-009  0.1322354E+03  0.7561462E-02  0.1116553E+00
         22   -1    0    0    0    0  0.00000000000E+00  0.00000000000E+00  0.78366746168E+03  0.78366746168E+03  0.00000000000E+00 0. -1.
         22   -1    0    0    0    0 -0.00000000000E+00 -0.00000000000E+00 -0.79843677479E+03  0.79843677479E+03  0.00000000000E+00 0. -1.
        -24    2    1    2    0    0 -0.41812556033E+02 -0.14930646469E+02 -0.74242465534E+03  0.74984635147E+03  0.95414715366E+02 0.  0.
         25    2    1    2    0    0  0.90443847314E+01  0.62650658398E+01  0.29797294705E+02  0.12905609993E+03  0.12508615516E+03 0.  0.
         24    2    1    2    0    0  0.32768171302E+02  0.86655806290E+01  0.69785804753E+03  0.70320178507E+03  0.79611875228E+02 0.  0.
        -11    1    5    5    0    0  0.12932893605E+02 -0.27887172620E+02  0.12089880619E+03  0.12474564310E+03  0.00000000000E+00 0.  1.
         12    1    5    5    0    0  0.19835277697E+02  0.36552753249E+02  0.57695924134E+03  0.57845614197E+03  0.00000000000E+00 0. -1.
         11    1    3    3    0    0 -0.25186770996E+02 -0.34336776607E+02 -0.69206744401E+03  0.69337632979E+03  0.00000000000E+00 0. -1.
        -12    1    3    3    0    0 -0.16625785037E+02  0.19406130138E+02 -0.50357211337E+02  0.56470021681E+02  0.00000000000E+00 0.  1.
          5    1    4    4  501    0  0.60561580593E+02 -0.23974540752E+02  0.20792344602E+02  0.68500201768E+02  0.41800000000E+01 0. -1.
         -5    1    4    4    0  501 -0.51517195861E+02  0.30239606592E+02  0.90049501030E+01  0.60555898165E+02  0.41800000000E+01 0. -1.
</event>
<event>
11    1  0.8864208E-009  0.1384249E+03  0.7561462E-02  0.1109330E+00
         22   -1    0    0    0    0  0.00000000000E+00  0.00000000000E+00  0.53955551683E+03  0.53955551683E+03  0.00000000000E+00 0. -1.
         22   -1    0    0    0    0 -0.00000000000E+00 -0.00000000000E+00 -0.33518792773E+03  0.33518792773E+03  0.00000000000E+00 0. -1.
        -24    2    1    2    0    0  0.54928248612E+02 -0.25941582742E+02 -0.27855937158E+03  0.29573771403E+03  0.78583673845E+02 0.  0.
         25    2    1    2    0    0 -0.28289592785E+02  0.38361373960E+02  0.58582475376E+02  0.14610510810E+03  0.12507157998E+03 0.  0.
         24    2    1    2    0    0 -0.26638655827E+02 -0.12419791217E+02  0.42434448531E+03  0.43290062243E+03  0.80441515978E+02 0.  0.
        -11    1    5    5    0    0 -0.24050780169E+02  0.12102730998E+02  0.42827988560E+02  0.50588069032E+02  0.00000000000E+00 0.  1.
         12    1    5    5    0    0 -0.25878756578E+01 -0.24522522215E+02  0.38151649675E+03  0.38231255340E+03  0.00000000000E+00 0. -1.
         11    1    3    3    0    0 -0.78286595283E+01  0.71361671985E+01 -0.13688901849E+03  0.13729827448E+03  0.00000000000E+00 0. -1.
        -12    1    3    3    0    0  0.62756908141E+02 -0.33077749941E+02 -0.14167035309E+03  0.15843943955E+03  0.00000000000E+00 0.  1.
          5    1    4    4  501    0  0.29698142269E+02  0.46125651492E+01  0.71481308362E+02  0.77655040124E+02  0.41800000000E+01 0. -1.
         -5    1    4    4    0  501 -0.57987735055E+02  0.33748808810E+02 -0.12898832986E+02  0.68450067972E+02  0.41800000000E+01 0. -1.
</event>
<event>
11    1  0.8864208E-009  0.1281905E+03  0.7561462E-02  0.1121512E+00
         22   -1    0    0    0    0  0.00000000000E+00  0.00000000000E+00  0.38817720837E+03  0.38817720837E+03  0.00000000000E+00 0. -1.
         22   -1    0    0    0    0 -0.00000000000E+00 -0.00000000000E+00 -0.34961175657E+04  0.34961175657E+04  0.00000000000E+00 0.  1.
         24    2    1    2    0    0  0.23826519669E+02  0.14314296894E+02 -0.34038144487E+04  0.34049537265E+04  0.83573180503E+02 0.  0.
         25    2    1    2    0    0 -0.29123220429E+02 -0.45694171517E+02 -0.32259181158E+02  0.14008867449E+03  0.12509221667E+03 0.  0.
        -24    2    1    2    0    0  0.52967007608E+01  0.31379874623E+02  0.32813327250E+03  0.33925237308E+03  0.80049837914E+02 0.  0.
        -13    1    3    3    0    0  0.19971637437E+02 -0.34012740901E+02 -0.14284548382E+04  0.14289992854E+04  0.00000000000E+00 0.  1.
         14    1    3    3    0    0  0.38548822317E+01  0.48327037795E+02 -0.19753596105E+04  0.19759544412E+04  0.00000000000E+00 0. -1.
         13    1    5    5    0    0  0.18052727653E+02  0.34361930728E+02  0.32277242097E+03  0.32509795293E+03  0.00000000000E+00 0. -1.
        -14    1    5    5    0    0 -0.12756026892E+02 -0.29820561051E+01  0.53608515247E+01  0.14154420149E+02  0.00000000000E+00 0.  1.
          5    1    4    4  501    0 -0.38936852184E+02  0.24383355110E+02 -0.48953406501E+02  0.67264662881E+02  0.41800000000E+01 0.  1.
         -5    1    4    4    0  501  0.98136317548E+01 -0.70077526627E+02  0.16694225343E+02  0.72824011605E+02  0.41800000000E+01 0.  1.
</event>
<event>
11    1  0.8864208E-009  0.2060315E+03  0.7561462E-02  0.1050339E+00
         22   -1    0    0    0    0  0.00000000000E+00  0.00000000000E+00  0.14961401172E+04  0.14961401172E+04  0.00000000000E+00 0. -1.
         22   -1    0    0    0    0 -0.00000000000E+00 -0.00000000000E+00 -0.67033504278E+03  0.67033504278E+03  0.00000000000E+00 0.  1.
         24    2    1    2    0    0  0.63490774622E+02 -0.10685001652E+03 -0.28055066244E+03  0.31738025976E+03  0.81077435795E+02 0.  0.
         25    2    1    2    0    0 -0.19974045362E+03  0.19443198240E+03 -0.30172929306E+03  0.42940480474E+03  0.12509146835E+03 0.  0.
        -24    2    1    2    0    0  0.13624967899E+03 -0.87581965874E+02  0.14080850299E+04  0.14196900955E+04  0.81129156075E+02 0.  0.
        -13    1    3    3    0    0  0.24056541700E+02 -0.10035054983E+03 -0.23573527595E+03  0.25733260652E+03  0.00000000000E+00 0.  1.
         14    1    3    3    0    0  0.39434232922E+02 -0.64994666938E+01 -0.44815386491E+02  0.60047653241E+02  0.00000000000E+00 0. -1.
         13    1    5    5    0    0  0.13437056140E+03 -0.81702895684E+02  0.10648625177E+04  0.10764120923E+04  0.00000000000E+00 0. -1.
        -14    1    5    5    0    0  0.18791175944E+01 -0.58790701902E+01  0.34322251226E+03  0.34327800318E+03  0.00000000000E+00 0.  1.
          5    1    4    4  501    0 -0.18049957568E+03  0.17617759356E+03 -0.19359247320E+03  0.31798452694E+03  0.41800000000E+01 0. -1.
         -5    1    4    4    0  501 -0.19240877939E+02  0.18254388834E+02 -0.10813681986E+03  0.11142027780E+03  0.41800000000E+01 0. -1.
</event>
<event>
11    1  0.8864208E-009  0.1584747E+03  0.7561462E-02  0.1088521E+00
         22   -1    0    0    0    0  0.00000000000E+00  0.00000000000E+00  0.24870006032E+04  0.24870006032E+04  0.00000000000E+00 0.  1.
         22   -1    0    0    0    0 -0.00000000000E+00 -0.00000000000E+00 -0.57800695975E+02  0.57800695975E+02  0.00000000000E+00 0.  1.
         24    2    1    2    0    0  0.25922463141E+02  0.27981759400E+02 -0.20019525498E+01  0.92023963874E+02  0.83722453133E+02 0.  0.
         25    2    1    2    0    0  0.58084129251E+02 -0.79601419214E+02  0.74609762611E+03  0.76290074008E+03  0.12508285065E+03 0.  0.
        -24    2    1    2    0    0 -0.84006592391E+02  0.51619659814E+02  0.16851042337E+04  0.16898765952E+04  0.79905768840E+02 0.  0.
        -13    1    3    3    0    0  0.12407933906E+02  0.32030980058E+02 -0.39270847067E+02  0.52174130914E+02  0.00000000000E+00 0.  1.
         14    1    3    3    0    0  0.13514529234E+02 -0.40492206577E+01  0.37268894517E+02  0.39849832959E+02  0.00000000000E+00 0. -1.
         13    1    5    5    0    0 -0.32305278821E+02  0.28703760934E+02  0.25359780635E+03  0.25725354092E+03  0.00000000000E+00 0. -1.
        -14    1    5    5    0    0 -0.51701313571E+02  0.22915898880E+02  0.14315064273E+04  0.14326230543E+04  0.00000000000E+00 0.  1.
          5    1    4    4  501    0  0.16924802943E+02 -0.20344319425E+02  0.20557559650E+02  0.33770193163E+02  0.41800000000E+01 0. -1.
         -5    1    4    4    0  501  0.41159326308E+02 -0.59257099789E+02  0.72554006646E+03  0.72913054692E+03  0.41800000000E+01 0. -1.
</event>
<event>
11    1  0.8864208E-009  0.2062771E+03  0.7561462E-02  0.1050171E+00
         22   -1    0    0    0    0  0.00000000000E+00  0.00000000000E+00  0.23505205401E+03  0.23505205401E+03  0.00000000000E+00 0. -1.
         22   -1    0    0    0    0 -0.00000000000E+00 -0.00000000000E+00 -0.24674474577E+04  0.24674474577E+04  0.00000000000E+00 0. -1.
        -24    2    1    2    0    0  0.19992887186E+01  0.16497364944E+03 -0.23386034231E+04  0.23458255848E+04  0.81310527772E+02 0.  0.
         25    2    1    2    0    0  0.39214361201E+02 -0.14172437221E+03 -0.25734756541E+02  0.19476421030E+03  0.12508899279E+03 0.  0.
         24    2    1    2    0    0 -0.41213649920E+02 -0.23249277230E+02  0.13194277593E+03  0.16190971656E+03  0.81035587028E+02 0.  0.
        -13    1    5    5    0    0 -0.32621374273E+02 -0.27416317125E+02  0.15911416835E+02  0.45486060391E+02  0.00000000000E+00 0.  1.
         14    1    5    5    0    0 -0.85922756465E+01  0.41670398947E+01  0.11603135910E+03  0.11642365617E+03  0.00000000000E+00 0. -1.
         11    1    3    3    0    0  0.29783419646E+02  0.99328190575E+02 -0.17211658508E+04  0.17242868171E+04  0.00000000000E+00 0. -1.
        -12    1    3    3    0    0 -0.27784130928E+02  0.65645458864E+02 -0.61743757223E+03  0.62153876774E+03  0.00000000000E+00 0.  1.
          5    1    4    4  501    0 -0.27359324472E+02 -0.24954348046E+01  0.19432249797E+02  0.33909358039E+02  0.41800000000E+01 0. -1.
         -5    1    4    4    0  501  0.66573685674E+02 -0.13922893740E+03 -0.45167006338E+02  0.16085485226E+03  0.41800000000E+01 0. -1.
</event>
<event>
11    1  0.8864208E-009  0.1283287E+03  0.7561462E-02  0.1121340E+00
         22   -1    0    0    0    0  0.00000000000E+00  0.00000000000E+00  0.23754663082E+03  0.23754663082E+03  0.00000000000E+00 0.  1.
         22   -1    0    0    0    0 -0.00000000000E+00 -0.00000000000E+00 -0.67393098266E+03  0.67393098266E+03  0.00000000000E+00 0.  1.
         24    2    1    2    0    0 -0.14179140985E+02  0.87006398034E+01 -0.51655476500E+03  0.52311290651E+03  0.80879778310E+02 0.  0.
         25    2    1    2    0    0  0.40074724981E+02 -0.18663439458E+02 -0.11523422081E+03  0.17572712702E+03  0.12508712951E+03 0.  0.
        -24    2    1    2    0    0 -0.25895583996E+02  0.99627996541E+01  0.19540463396E+03  0.21263757995E+03  0.79132362436E+02 0.  0.
        -11    1    3    3    0    0  0.19655680849E+02  0.98130193579E+01 -0.42387447832E+03  0.42444341733E+03  0.00000000000E+00 0.  1.
         12    1    3    3    0    0 -0.33834821834E+02 -0.11123795545E+01 -0.92680286674E+02  0.98669489179E+02  0.00000000000E+00 0. -1.
         13    1    5    5    0    0 -0.20690596048E+02  0.39248103410E+01  0.44600445819E+01  0.21526655540E+02  0.00000000000E+00 0. -1.
        -14    1    5    5    0    0 -0.52049879480E+01  0.60379893132E+01  0.19094458938E+03  0.19111092441E+03  0.00000000000E+00 0.  1.
          5    1    4    4  501    0  0.39896892474E+02 -0.55606707227E+02 -0.16927830660E+02  0.70625008096E+02  0.41800000000E+01 0.  1.
         -5    1    4    4    0  501  0.17783250694E+00  0.36943267770E+02 -0.98306390147E+02  0.10510211892E+03  0.41800000000E+01 0.  1.
</event>
<event>
11    1  0.8864208E-009  0.1526366E+03  0.7561462E-02  0.1094215E+00
         22   -1    0    0    0    0  0.00000000000E+00  0.00000000000E+00  0.20542616475E+03  0.20542616475E+03  0.00000000000E+00 0.  1.
         22   -1    0    0    0    0 -0.00000000000E+00 -0.00000000000E+00 -0.85686195825E+03  0.85686195825E+03  0.00000000000E+00 0.  1.
        -24    2    1    2    0    0  0.87825466896E+02  0.10380390891E+02 -0.68131618265E+03  0.69148838380E+03  0.78379710650E+02 0.  0.
         25    2    1    2    0    0 -0.80956941114E+02 -0.26771749389E+01 -0.12275329673E+03  0.19307355305E+03  0.12509129246E+03 0.  0.
         24    2    1    2    0    0 -0.68685257828E+01 -0.77032159517E+01  0.15263368588E+03  0.17772618615E+03  0.90460151423E+02 0.  0.
        -13    1    5    5    0    0 -0.45243913637E+02  0.20829286373E+01  0.11280968904E+03  0.12156223202E+03  0.00000000000E+00 0.  1.
         14    1    5    5    0    0  0.38375387854E+02 -0.97861445890E+01  0.39823996840E+02  0.56163954127E+02  0.00000000000E+00 0. -1.
         13    1    3    3    0    0  0.17405778347E-01  0.17746478791E+00  0.22364089562E+01  0.22435065704E+01  0.00000000000E+00 0. -1.
        -14    1    3    3    0    0  0.87808061118E+02  0.10202926103E+02 -0.68355259161E+03  0.68924487723E+03  0.00000000000E+00 0.  1.
          5    1    4    4  501    0 -0.95640871970E+02  0.36018012643E+02 -0.10847491723E+03  0.14909310411E+03  0.41800000000E+01 0.  1.
         -5    1    4    4    0  501  0.14683930856E+02 -0.38695187582E+02 -0.14278379499E+02  0.43980448935E+02  0.41800000000E+01 0.  1.
</event>
<event>
11    1  0.8864208E-009  0.1313902E+03  0.7561462E-02  0.1117573E+00
         22   -1    0    0    0    0  0.00000000000E+00  0.00000000000E+00  0.13355395244E+04  0.13355395244E+04  0.00000000000E+00 0.  1.
         22   -1    0    0    0    0 -0.00000000000E+00 -0.00000000000E+00 -0.69951624863E+03  0.69951624863E+03  0.00000000000E+00 0. -1.
         24    2    1    2    0    0 -0.82242096373E+01 -0.39388840447E-02 -0.57145144500E+03  0.57719824186E+03  0.80829566216E+02 0.  0.
         25    2    1    2    0    0 -0.31149757566E+02 -0.85539765474E+01 -0.89835146250E+02  0.15735914452E+03  0.12509224177E+03 0.  0.
        -24    2    1    2    0    0  0.39373967204E+02  0.85579154314E+01  0.12973098670E+04  0.13004983867E+04  0.81606466675E+02 0.  0.
        -13    1    3    3    0    0 -0.36538875228E+02 -0.32397149576E+00 -0.13588142448E+03  0.14070876263E+03  0.00000000000E+00 0.  1.
         14    1    3    3    0    0  0.28314665591E+02  0.32003261171E+00 -0.43557002051E+03  0.43648947923E+03  0.00000000000E+00 0. -1.
         11    1    5    5    0    0  0.47380155034E+01 -0.16665128905E+02  0.60116990858E+02  0.62563790663E+02  0.00000000000E+00 0. -1.
        -12    1    5    5    0    0  0.34635951700E+02  0.25223044337E+02  0.12371928762E+04  0.12379345960E+04  0.00000000000E+00 0.  1.
          5    1    4    4  501    0  0.80000638086E+01 -0.11824960310E+02  0.28747345332E+02  0.32368394629E+02  0.41800000000E+01 0. -1.
         -5    1    4    4    0  501 -0.39149821375E+02  0.32709837621E+01 -0.11858249158E+03  0.12499074989E+03  0.41800000000E+01 0. -1.
</event>
<event>
11    1  0.8864208E-009  0.2914119E+03  0.7561462E-02  0.1003893E+00
         22   -1    0    0    0    0  0.00000000000E+00  0.00000000000E+00  0.71898783467E+03  0.71898783467E+03  0.00000000000E+00 0. -1.
         22   -1    0    0    0    0 -0.00000000000E+00 -0.00000000000E+00 -0.35265097205E+03  0.35265097205E+03  0.00000000000E+00 0.  1.
         24    2    1    2    0    0  0.20130233698E+03 -0.16915241447E+03 -0.22044810608E+03  0.35262723537E+03  0.81322994606E+02 0.  0.
         25    2    1    2    0    0 -0.18435202287E+03  0.19305746326E+03  0.55101649371E+03  0.62492027462E+03  0.12509724555E+03 0.  0.
        -24    2    1    2    0    0 -0.16950314118E+02 -0.23905048791E+02  0.35768474986E+02  0.94091296733E+02  0.81945248866E+02 0.  0.
        -13    1    3    3    0    0  0.20730267592E+03 -0.16749510533E+03 -0.22120895267E+03  0.34635590149E+03  0.00000000000E+00 0.  1.
         14    1    3    3    0    0 -0.60003389410E+01 -0.16573091371E+01  0.76084659657E+00  0.62713338714E+01  0.00000000000E+00 0. -1.
         11    1    5    5    0    0 -0.36912102345E+02  0.57064027069E+01  0.43723118393E+02  0.57504586020E+02  0.00000000000E+00 0. -1.
        -12    1    5    5    0    0  0.19961788227E+02 -0.29611451498E+02 -0.79546434067E+01  0.36586710713E+02  0.00000000000E+00 0.  1.
          5    1    4    4  501    0 -0.97657375159E+02  0.37686009247E+02  0.29560001067E+03  0.31361447180E+03  0.41800000000E+01 0. -1.
         -5    1    4    4    0  501 -0.86694647706E+02  0.15537145402E+03  0.25541648304E+03  0.31130580282E+03  0.41800000000E+01 0. -1.
</event>
<event>
11    1  0.8864208E-009  0.1423912E+03  0.7561462E-02  0.1104917E+00
         22   -1    0    0    0    0  0.00000000000E+00  0.00000000000E+00  0.97720815809E+03  0.97720815809E+03  0.00000000000E+00 0. -1.
         22   -1    0    0    0    0 -0.00000000000E+00 -0.00000000000E+00 -0.11294324106E+04  0.11294324106E+04  0.00000000000E+00 0.  1.
         24    2    1    2    0    0 -0.13045490552E+02  0.33867745246E+02 -0.10945419467E+04  0.10982884583E+04  0.83055737556E+02 0.  0.
         25    2    1    2    0    0 -0.54948844411E+02 -0.16666625837E+02  0.13067048788E+03  0.18979275343E+03  0.12509740578E+03 0.  0.
        -24    2    1    2    0    0  0.67994334963E+02 -0.17201119408E+02  0.81164720639E+03  0.81855935690E+03  0.79681397038E+02 0.  0.
        -11    1    3    3    0    0 -0.33656397400E+02  0.83782598574E+01 -0.92248373018E+03  0.92313551593E+03  0.00000000000E+00 0.  1.
         12    1    3    3    0    0  0.20610906848E+02  0.25489485388E+02 -0.17205821655E+03  0.17515294240E+03  0.00000000000E+00 0. -1.
         13    1    5    5    0    0  0.83022042910E+02 -0.14720892563E+02  0.54562103929E+03  0.55209753015E+03  0.00000000000E+00 0. -1.
        -14    1    5    5    0    0 -0.15027707946E+02 -0.24802268452E+01  0.26602616710E+03  0.26646182674E+03  0.00000000000E+00 0.  1.
          5    1    4    4  501    0  0.19199318929E+02  0.29571832109E+02  0.82747478027E+02  0.90042904337E+02  0.41800000000E+01 0.  1.
         -5    1    4    4    0  501 -0.74148163340E+02 -0.46238457947E+02  0.47923009851E+02  0.99749849089E+02  0.41800000000E+01 0.  1.
</event>
<event>
11    1  0.8864208E-009  0.1459703E+03  0.7561462E-02  0.1101069E+00
         22   -1    0    0    0    0  0.00000000000E+00  0.00000000000E+00  0.12957088149E+03  0.12957088149E+03  0.00000000000E+00 0.  1.
         22   -1    0    0    0    0 -0.00000000000E+00 -0.00000000000E+00 -0.53911317946E+03  0.53911317946E+03  0.00000000000E+00 0. -1.
         24    2    1    2    0    0 -0.23621439396E+02  0.44347360973E+02 -0.36660117612E+03  0.37880363000E+03  0.81062364540E+02 0.  0.
         25    2    1    2    0    0 -0.44223435799E+02 -0.76072104786E+02 -0.80564373795E+02  0.17286102167E+03  0.12509051558E+03 0.  0.
        -24    2    1    2    0    0  0.67844875196E+02  0.31724743813E+02  0.37623251949E+02  0.11701940928E+03  0.81661781766E+02 0.  0.
        -11    1    3    3    0    0  0.92520964620E+01  0.54043089567E+02 -0.15426383908E+03  0.16371801631E+03  0.00000000000E+00 0.  1.
         12    1    3    3    0    0 -0.32873535858E+02 -0.96957285938E+01 -0.21233733704E+03  0.21508561368E+03  0.00000000000E+00 0. -1.
         11    1    5    5    0    0  0.21019809021E+02 -0.37320989406E+01 -0.23842047516E+02  0.32003189897E+02  0.00000000000E+00 0. -1.
        -12    1    5    5    0    0  0.46825066174E+02  0.35456842754E+02  0.61465299465E+02  0.85016219386E+02  0.00000000000E+00 0.  1.
          5    1    4    4  501    0 -0.51069587091E+02 -0.60758693515E+02  0.10499098491E+02  0.80171223219E+02  0.41800000000E+01 0.  1.
         -5    1    4    4    0  501  0.68461512916E+01 -0.15313411271E+02 -0.91063472286E+02  0.92689798452E+02  0.41800000000E+01 0.  1.
</event>
<event>
11    1  0.8864208E-009  0.1270849E+03  0.7561462E-02  0.1122903E+00
         22   -1    0    0    0    0  0.00000000000E+00  0.00000000000E+00  0.16774215136E+04  0.16774215136E+04  0.00000000000E+00 0.  1.
         22   -1    0    0    0    0 -0.00000000000E+00 -0.00000000000E+00 -0.20042206468E+03  0.20042206468E+03  0.00000000000E+00 0.  1.
         24    2    1    2    0    0 -0.18751607190E+02 -0.14216044919E+02 -0.15698096633E+03  0.17719817535E+03  0.78755640125E+02 0.  0.
         25    2    1    2    0    0  0.96211624858E+01  0.25516312037E+01  0.89575683778E+02  0.15417549681E+03  0.12508878089E+03 0.  0.
        -24    2    1    2    0    0  0.91304447040E+01  0.11664413716E+02  0.15444047315E+04  0.15464699062E+04  0.78509695787E+02 0.  0.
        -13    1    3    3    0    0  0.17411862553E+02 -0.68580732668E+01 -0.13035461183E+03  0.13169104355E+03  0.00000000000E+00 0.  1.
         14    1    3    3    0    0 -0.36163469742E+02 -0.73579716526E+01 -0.26626354508E+02  0.45507131804E+02  0.00000000000E+00 0. -1.
         11    1    5    5    0    0 -0.31101076634E+02  0.11347815539E+02  0.40345878151E+03  0.40481481972E+03  0.00000000000E+00 0. -1.
        -12    1    5    5    0    0  0.40231521338E+02  0.31659817638E+00  0.11409459500E+04  0.11416550864E+04  0.00000000000E+00 0.  1.
          5    1    4    4  501    0  0.19453004983E+02  0.31513744069E+02  0.11067653892E+03  0.11678315005E+03  0.41800000000E+01 0. -1.
         -5    1    4    4    0  501 -0.98318424976E+01 -0.28962112865E+02 -0.21100855145E+02  0.37392346762E+02  0.41800000000E+01 0. -1.
</event>
<event>
11    1  0.8864208E-009  0.1590315E+03  0.7561462E-02  0.1087992E+00
         22   -1    0    0    0    0  0.00000000000E+00  0.00000000000E+00  0.42099006692E+03  0.42099006692E+03  0.00000000000E+00 0. -1.
         22   -1    0    0    0    0 -0.00000000000E+00 -0.00000000000E+00 -0.65889433583E+03  0.65889433583E+03  0.00000000000E+00 0.  1.
        -24    2    1    2    0    0  0.59462058668E+01 -0.56403992322E+02 -0.24029177992E+03  0.25942010025E+03  0.79635929096E+02 0.  0.
         25    2    1    2    0    0 -0.94516674015E+02  0.12900563073E+02 -0.38332912489E+03  0.41435355399E+03  0.12509126077E+03 0.  0.
         24    2    1    2    0    0  0.88570468149E+02  0.43503429249E+02  0.38571663590E+03  0.40611074851E+03  0.80070847714E+02 0.  0.
        -11    1    5    5    0    0  0.78813449239E+01  0.31687585866E+02  0.43967307455E+02  0.54766256223E+02  0.00000000000E+00 0.  1.
         12    1    5    5    0    0  0.80689123225E+02  0.11815843383E+02  0.34174932845E+03  0.35134449228E+03  0.00000000000E+00 0. -1.
         11    1    3    3    0    0  0.91997935004E+01  0.14679325479E+02 -0.14215677536E+02  0.22409914877E+02  0.00000000000E+00 0. -1.
        -12    1    3    3    0    0 -0.32535876336E+01 -0.71083317801E+02 -0.22607610239E+03  0.23701018538E+03  0.00000000000E+00 0.  1.
          5    1    4    4  501    0 -0.74356669343E+02  0.66463825536E+02 -0.23583932633E+03  0.25609376139E+03  0.41800000000E+01 0. -1.
         -5    1    4    4    0  501 -0.20160004672E+02 -0.53563262463E+02 -0.14748979857E+03  0.15825979260E+03  0.41800000000E+01 0. -1.
</event>
<event>
11    1  0.8864208E-009  0.1583991E+03  0.7561462E-02  0.1088593E+00
         22   -1    0    0    0    0  0.00000000000E+00  0.00000000000E+00  0.84563971832E+03  0.84563971832E+03  0.00000000000E+00 0.  1.
         22   -1    0    0    0    0 -0.00000000000E+00 -0.00000000000E+00 -0.43347266015E+03  0.43347266015E+03  0.00000000000E+00 0. -1.
        -24    2    1    2    0    0  0.39588931590E+02 -0.31093587619E+02 -0.35643654874E+03  0.36904826731E+03  0.81335820102E+02 0.  0.
         25    2    1    2    0    0 -0.46142229293E+02 -0.68021742332E+02  0.20653890220E+02  0.15109727735E+03  0.12509093207E+03 0.  0.
         24    2    1    2    0    0  0.65532977029E+01  0.99115329951E+02  0.74794971668E+03  0.75896683382E+03  0.82067544168E+02 0.  0.
        -11    1    5    5    0    0 -0.14719321024E+02  0.10168809349E+03  0.52288985864E+03  0.53288922961E+03  0.00000000000E+00 0.  1.
         12    1    5    5    0    0  0.21272618727E+02 -0.25727635437E+01  0.22505985805E+03  0.22607760421E+03  0.00000000000E+00 0. -1.
         11    1    3    3    0    0 -0.23864668458E+02 -0.34547073877E+01 -0.13192404749E+03  0.13410970029E+03  0.00000000000E+00 0. -1.
        -12    1    3    3    0    0  0.63453600048E+02 -0.27638880231E+02 -0.22451250124E+03  0.23493856702E+03  0.00000000000E+00 0.  1.
          5    1    4    4  501    0  0.26506264606E+02 -0.40564333361E+02  0.48308125486E+02  0.68550671714E+02  0.41800000000E+01 0. -1.
         -5    1    4    4    0  501 -0.72648493899E+02 -0.27457408971E+02 -0.27654235267E+02  0.82546605632E+02  0.41800000000E+01 0. -1.
</event>
<event>
11    1  0.8864208E-009  0.1365680E+03  0.7561462E-02  0.1111452E+00
         22   -1    0    0    0    0  0.00000000000E+00  0.00000000000E+00  0.48407776832E+02  0.48407776832E+02  0.00000000000E+00 0. -1.
         22   -1    0    0    0    0 -0.00000000000E+00 -0.00000000000E+00 -0.33621453141E+04  0.33621453141E+04  0.00000000000E+00 0.  1.
         24    2    1    2    0    0 -0.48878380950E+02 -0.29243921564E+02 -0.28614039334E+04  0.28630790614E+04  0.79655122510E+02 0.  0.
         25    2    1    2    0    0  0.10166458378E+02  0.40858989343E+02 -0.43328920438E+03  0.45293785628E+03  0.12506139746E+03 0.  0.
        -24    2    1    2    0    0  0.38711922572E+02 -0.11615067779E+02 -0.19044399467E+02  0.94536173254E+02  0.83311920838E+02 0.  0.
        -13    1    3    3    0    0 -0.56843152462E+01 -0.43411242263E+02 -0.19976848675E+04  0.19981645771E+04  0.00000000000E+00 0.  1.
         14    1    3    3    0    0 -0.43194065704E+02  0.14167320698E+02 -0.86371906596E+03  0.86491448432E+03  0.00000000000E+00 0. -1.
         11    1    5    5    0    0  0.44323533351E+02 -0.33628160261E+02  0.11157533771E+02  0.56744333030E+02  0.00000000000E+00 0. -1.
        -12    1    5    5    0    0 -0.56116107784E+01  0.22013092482E+02 -0.30201933238E+02  0.37791840224E+02  0.00000000000E+00 0.  1.
          5    1    4    4  501    0 -0.40650043242E+02  0.52589427262E+02 -0.33535312868E+03  0.34190242349E+03  0.41800000000E+01 0.  1.
         -5    1    4    4    0  501  0.50816501620E+02 -0.11730437919E+02 -0.97936075703E+02  0.11103543279E+03  0.41800000000E+01 0.  1.
</event>
<event>
11    1  0.8864208E-009  0.1298153E+03  0.7561462E-02  0.1119496E+00
         22   -1    0    0    0    0  0.00000000000E+00  0.00000000000E+00  0.63457401109E+03  0.63457401109E+03  0.00000000000E+00 0. -1.
         22   -1    0    0    0    0 -0.00000000000E+00 -0.00000000000E+00 -0.11823331160E+04  0.11823331160E+04  0.00000000000E+00 0.  1.
        -24    2    1    2    0    0 -0.48158032155E+01  0.38714007819E+02 -0.10361388982E+04  0.10381987290E+04  0.52448241652E+02 0.  0.
         25    2    1    2    0    0 -0.46824610321E+01 -0.71242939380E+02 -0.10519839076E+03  0.17835462965E+03  0.12508473387E+03 0.  0.
         24    2    1    2    0    0  0.94982642476E+01  0.32528931561E+02  0.59357818404E+03  0.60035376850E+03  0.83314094650E+02 0.  0.
        -11    1    5    5    0    0 -0.13321583245E+02  0.36017214796E+02  0.11546270317E+03  0.12168130574E+03  0.00000000000E+00 0.  1.
         12    1    5    5    0    0  0.22819847492E+02 -0.34882832352E+01  0.47811548087E+03  0.47867246276E+03  0.00000000000E+00 0. -1.
         13    1    3    3    0    0  0.20575537214E+02  0.21515388909E+01 -0.29544279966E+03  0.29616621975E+03  0.00000000000E+00 0. -1.
        -14    1    3    3    0    0 -0.25391340430E+02  0.36562468928E+02 -0.74069609858E+03  0.74203250923E+03  0.00000000000E+00 0.  1.
          5    1    4    4  501    0  0.27719253400E+00 -0.72317764221E+02 -0.13210179348E+03  0.15065952376E+03  0.41800000000E+01 0.  1.
         -5    1    4    4    0  501 -0.49596535661E+01  0.10748248406E+01  0.26903402727E+02  0.27695105889E+02  0.41800000000E+01 0.  1.
</event>
<event>
11    1  0.8864208E-009  0.1938225E+03  0.7561462E-02  0.1058980E+00
         22   -1    0    0    0    0  0.00000000000E+00  0.00000000000E+00  0.27463751630E+04  0.27463751630E+04  0.00000000000E+00 0. -1.
         22   -1    0    0    0    0 -0.00000000000E+00 -0.00000000000E+00 -0.19265099850E+02  0.19265099850E+02  0.00000000000E+00 0. -1.
         24    2    1    2    0    0 -0.22929809957E+01 -0.16776774637E+02  0.42653603340E+03  0.43504163927E+03  0.83913778261E+02 0.  0.
         25    2    1    2    0    0  0.13138845170E+03 -0.60151333222E+02  0.92831187708E+03  0.94778237290E+03  0.12508947646E+03 0.  0.
        -24    2    1    2    0    0 -0.12909547071E+03  0.76928107859E+02  0.13722621527E+04  0.13828162507E+04  0.80584075082E+02 0.  0.
        -11    1    3    3    0    0 -0.38713417032E+02  0.10408019631E+02  0.20868601329E+03  0.21250154747E+03  0.00000000000E+00 0.  1.
         12    1    3    3    0    0  0.36420436036E+02 -0.27184794268E+02  0.21785002010E+03  0.22254009180E+03  0.00000000000E+00 0. -1.
         11    1    5    5    0    0 -0.10730128370E+03  0.88118070463E+02  0.97965236777E+03  0.98944283387E+03  0.00000000000E+00 0. -1.
        -12    1    5    5    0    0 -0.21794187004E+02 -0.11189962604E+02  0.39260978490E+03  0.39337341681E+03  0.00000000000E+00 0.  1.
          5    1    4    4  501    0  0.64254096860E+02 -0.72437276789E+02  0.28887164697E+03  0.30469665055E+03  0.41800000000E+01 0. -1.
         -5    1    4    4    0  501  0.67134354844E+02  0.12285943567E+02  0.63944023011E+03  0.64308572235E+03  0.41800000000E+01 0. -1.
</event>
<event>
11    1  0.8864208E-009  0.1375806E+03  0.7561462E-02  0.1110291E+00
         22   -1    0    0    0    0  0.00000000000E+00  0.00000000000E+00  0.89990430303E+02  0.89990430303E+02  0.00000000000E+00 0.  1.
         22   -1    0    0    0    0 -0.00000000000E+00 -0.00000000000E+00 -0.72619714369E+03  0.72619714369E+03  0.00000000000E+00 0.  1.
        -24    2    1    2    0    0 -0.41082553908E+02 -0.26767902283E+02 -0.55088142807E+03  0.55949365283E+03  0.84607936630E+02 0.  0.
         25    2    1    2    0    0 -0.30705444766E+02  0.12777801064E+02 -0.71816892517E+02  0.14802289181E+03  0.12508802464E+03 0.  0.
         24    2    1    2    0    0  0.71787998674E+02  0.13990101220E+02 -0.13508392802E+02  0.10867102936E+03  0.79231788188E+02 0.  0.
        -11    1    5    5    0    0  0.36119188516E+02 -0.32103220277E+02 -0.14258257906E+02  0.50383632756E+02  0.00000000000E+00 0.  1.
         12    1    5    5    0    0  0.35668810159E+02  0.46093321497E+02  0.74986510454E+00  0.58287396600E+02  0.00000000000E+00 0. -1.
         13    1    3    3    0    0 -0.58175959387E+02  0.54732635349E+01 -0.26992987423E+03  0.27618207014E+03  0.00000000000E+00 0. -1.
        -14    1    3    3    0    0  0.17093405479E+02 -0.32241165818E+02 -0.28095155384E+03  0.28331158269E+03  0.00000000000E+00 0.  1.
          5    1    4    4  501    0  0.14897086184E+02  0.30743044199E+02 -0.89389899627E+02  0.95786661382E+02  0.41800000000E+01 0.  1.
         -5    1    4    4    0  501 -0.45602530950E+02 -0.17965243135E+02  0.17573007110E+02  0.52236230423E+02  0.41800000000E+01 0.  1.
</event>
<event>
11    1  0.8864208E-009  0.1432228E+03  0.7561462E-02  0.1104012E+00
         22   -1    0    0    0    0  0.00000000000E+00  0.00000000000E+00  0.56281824580E+03  0.56281824580E+03  0.00000000000E+00 0.  1.
         22   -1    0    0    0    0 -0.00000000000E+00 -0.00000000000E+00 -0.26225029730E+03  0.26225029730E+03  0.00000000000E+00 0.  1.
         24    2    1    2    0    0 -0.29816802783E+02  0.45055895391E+02 -0.75839263423E+02  0.13761936126E+03  0.10133320916E+03 0.  0.
         25    2    1    2    0    0 -0.10448466545E+02 -0.10153906931E+03 -0.10631561847E+03  0.19331297521E+03  0.12509013791E+03 0.  0.
        -24    2    1    2    0    0  0.40265269328E+02  0.56483173918E+02  0.48272283039E+03  0.49413620664E+03  0.79609163259E+02 0.  0.
        -13    1    3    3    0    0  0.18192183064E+02  0.43674998250E+02 -0.76078208213E+02  0.89589925559E+02  0.00000000000E+00 0.  1.
         14    1    3    3    0    0 -0.48008985847E+02  0.13808971420E+01  0.23894478949E+00  0.48029435700E+02  0.00000000000E+00 0. -1.
         11    1    5    5    0    0  0.60156362113E+01  0.36645524063E+02  0.67582935451E+02  0.77113782666E+02  0.00000000000E+00 0. -1.
        -12    1    5    5    0    0  0.34249633117E+02  0.19837649855E+02  0.41513989494E+03  0.41702242397E+03  0.00000000000E+00 0.  1.
          5    1    4    4  501    0  0.43096394664E+02 -0.75276959051E+02 -0.10113672925E+03  0.13330427675E+03  0.41800000000E+01 0.  1.
         -5    1    4    4    0  501 -0.53544861209E+02 -0.26262110259E+02 -0.51788892271E+01  0.60008698459E+02  0.41800000000E+01 0.  1.
</event>
<event>
11    1  0.8864208E-009  0.1771363E+03  0.7561462E-02  0.1071983E+00
         22   -1    0    0    0    0  0.00000000000E+00  0.00000000000E+00  0.11824888167E+03  0.11824888167E+03  0.00000000000E+00 0. -1.
         22   -1    0    0    0    0 -0.00000000000E+00 -0.00000000000E+00 -0.31992659055E+04  0.31992659055E+04  0.00000000000E+00 0.  1.
         24    2    1    2    0    0 -0.41354639114E+02 -0.16246653802E+02 -0.28906096484E+04  0.28920741623E+04  0.80589458340E+02 0.  0.
         25    2    1    2    0    0  0.15635714653E+03 -0.79928691469E+01 -0.20203286451E+03  0.28456085639E+03  0.12508460904E+03 0.  0.
        -24    2    1    2    0    0 -0.11500250742E+03  0.24239522949E+02  0.11625489032E+02  0.14087976853E+03  0.76803815020E+02 0.  0.
        -13    1    3    3    0    0 -0.27355337026E+02 -0.22978714941E+02 -0.27936207401E+04  0.27938491683E+04  0.00000000000E+00 0.  1.
         14    1    3    3    0    0 -0.13999302089E+02  0.67320611392E+01 -0.96988908286E+02  0.98224993951E+02  0.00000000000E+00 0. -1.
         13    1    5    5    0    0 -0.68453613678E+02  0.50789433665E+02  0.17353618902E+02  0.86986274128E+02  0.00000000000E+00 0. -1.
        -14    1    5    5    0    0 -0.46548893738E+02 -0.26549910716E+02 -0.57281298698E+01  0.53893494404E+02  0.00000000000E+00 0.  1.
          5    1    4    4  501    0  0.22742160440E+02  0.41054996640E+02 -0.14912790099E+02  0.49422487990E+02  0.41800000000E+01 0.  1.
         -5    1    4    4    0  501  0.13361498609E+03 -0.49047865787E+02 -0.18712007441E+03  0.23513836840E+03  0.41800000000E+01 0.  1.
</event>
<event>
11    1  0.8864208E-009  0.1895788E+03  0.7561462E-02  0.1062148E+00
         22   -1    0    0    0    0  0.00000000000E+00  0.00000000000E+00  0.85551096875E+02  0.85551096875E+02  0.00000000000E+00 0.  1.
         22   -1    0    0    0    0 -0.00000000000E+00 -0.00000000000E+00 -0.12451906897E+04  0.12451906897E+04  0.00000000000E+00 0. -1.
         24    2    1    2    0    0  0.11450805662E+02  0.15741050587E+03 -0.65766484534E+03  0.68105988157E+03  0.80064506388E+02 0.  0.
         25    2    1    2    0    0  0.75983043393E+01 -0.12407724785E+03 -0.52865720163E+03  0.55729586373E+03  0.12508934898E+03 0.  0.
        -24    2    1    2    0    0 -0.19049110002E+02 -0.33333258013E+02  0.26682454164E+02  0.92386041257E+02  0.79682197368E+02 0.  0.
        -13    1    3    3    0    0  0.28505088020E+02  0.99968337402E+02 -0.52912573029E+03  0.53924043522E+03  0.00000000000E+00 0.  1.
         14    1    3    3    0    0 -0.17054282357E+02  0.57442168463E+02 -0.12853911505E+03  0.14181944635E+03  0.00000000000E+00 0. -1.
         11    1    5    5    0    0  0.30470223919E+02 -0.10685841664E+02  0.13197607264E+01  0.32316613779E+02  0.00000000000E+00 0. -1.
        -12    1    5    5    0    0 -0.49519333921E+02 -0.22647416349E+02  0.25362693438E+02  0.60069427479E+02  0.00000000000E+00 0.  1.
          5    1    4    4  501    0 -0.66797603090E+01 -0.88377917550E+02 -0.50327201459E+03  0.51103372548E+03  0.41800000000E+01 0. -1.
         -5    1    4    4    0  501  0.14278064648E+02 -0.35699330302E+02 -0.25385187038E+02  0.46262138245E+02  0.41800000000E+01 0. -1.
</event>
<event>
11    1  0.8864208E-009  0.1474572E+03  0.7561462E-02  0.1099506E+00
         22   -1    0    0    0    0  0.00000000000E+00  0.00000000000E+00  0.78498093423E+03  0.78498093423E+03  0.00000000000E+00 0. -1.
         22   -1    0    0    0    0 -0.00000000000E+00 -0.00000000000E+00 -0.10774269437E+04  0.10774269437E+04  0.00000000000E+00 0. -1.
         24    2    1    2    0    0 -0.48315880264E+02 -0.61857053364E+02 -0.10385895029E+04  0.10445203203E+04  0.78700854676E+02 0.  0.
         25    2    1    2    0    0  0.45762628498E+02  0.37689935954E+02  0.11154913360E+03  0.17777973913E+03  0.12509067510E+03 0.  0.
        -24    2    1    2    0    0  0.25532517655E+01  0.24167117410E+02  0.63459435986E+03  0.64010781853E+03  0.80233715592E+02 0.  0.
        -13    1    3    3    0    0  0.17528836971E+01  0.15335418827E+02 -0.76524915620E+02  0.78066064218E+02  0.00000000000E+00 0.  1.
         14    1    3    3    0    0 -0.50068763961E+02 -0.77192472191E+02 -0.96206458729E+03  0.96645425603E+03  0.00000000000E+00 0. -1.
         11    1    5    5    0    0 -0.32052263973E+02  0.32478580179E+02  0.43282427798E+03  0.43522300192E+03  0.00000000000E+00 0. -1.
        -12    1    5    5    0    0  0.34605515738E+02 -0.83114627692E+01  0.20177008188E+03  0.20488481661E+03  0.00000000000E+00 0.  1.
          5    1    4    4  501    0  0.24103535197E+02  0.81615793224E+02  0.49210195248E+02  0.98393261095E+02  0.41800000000E+01 0.  1.
         -5    1    4    4    0  501  0.21659093301E+02 -0.43925857270E+02  0.62338938352E+02  0.79386478032E+02  0.41800000000E+01 0.  1.
</event>
<event>
11    1  0.8864208E-009  0.1543925E+03  0.7561462E-02  0.1092473E+00
         22   -1    0    0    0    0  0.00000000000E+00  0.00000000000E+00  0.39629205155E+03  0.39629205155E+03  0.00000000000E+00 0.  1.
         22   -1    0    0    0    0 -0.00000000000E+00 -0.00000000000E+00 -0.10957863062E+03  0.10957863062E+03  0.00000000000E+00 0. -1.
        -24    2    1    2    0    0  0.57675599250E+02 -0.82557694999E+02  0.19400091602E+02  0.13028430202E+03  0.80345429527E+02 0.  0.
         25    2    1    2    0    0 -0.80608135380E+02  0.39470294696E+02  0.21628156054E+03  0.26548183522E+03  0.12508923113E+03 0.  0.
         24    2    1    2    0    0  0.22932536129E+02  0.43087400303E+02  0.51031768785E+02  0.11010454494E+03  0.84476885077E+02 0.  0.
        -13    1    5    5    0    0  0.10837818675E+02  0.27535291793E+02  0.74087034285E+02  0.79778062505E+02  0.00000000000E+00 0.  1.
         14    1    5    5    0    0  0.12094717454E+02  0.15552108510E+02 -0.23055265501E+02  0.30326482432E+02  0.00000000000E+00 0. -1.
         11    1    3    3    0    0  0.44302813944E+02 -0.76124381472E+02 -0.18132331733E+02  0.89924647521E+02  0.00000000000E+00 0. -1.
        -12    1    3    3    0    0  0.13372785306E+02 -0.64333135277E+01  0.37532423334E+02  0.40359654497E+02  0.00000000000E+00 0.  1.
          5    1    4    4  501    0 -0.20186606194E+02  0.78880072287E+02  0.12085294329E+03  0.14578227319E+03  0.41800000000E+01 0.  1.
         -5    1    4    4    0  501 -0.60421529185E+02 -0.39409777591E+02  0.95428617255E+02  0.11969956203E+03  0.41800000000E+01 0.  1.
</event>
<event>
11    1  0.8864208E-009  0.1325096E+03  0.7561462E-02  0.1116223E+00
         22   -1    0    0    0    0  0.00000000000E+00  0.00000000000E+00  0.49407755037E+02  0.49407755037E+02  0.00000000000E+00 0. -1.
         22   -1    0    0    0    0 -0.00000000000E+00 -0.00000000000E+00 -0.16603196014E+04  0.16603196014E+04  0.00000000000E+00 0. -1.
        -24    2    1    2    0    0  0.37583811758E+02  0.20964359309E+02 -0.13584113901E+04  0.13613990625E+04  0.79207670821E+02 0.  0.
         25    2    1    2    0    0 -0.45252027160E+02 -0.26566326770E+02 -0.22160168339E+03  0.25982353372E+03  0.12508975543E+03 0.  0.
         24    2    1    2    0    0  0.76682154016E+01  0.56019674616E+01 -0.30898772824E+02  0.88504760255E+02  0.82390380864E+02 0.  0.
        -11    1    5    5    0    0 -0.33279543577E+01 -0.10141442817E+02 -0.55939300682E+02  0.56948481133E+02  0.00000000000E+00 0.  1.
         12    1    5    5    0    0  0.10996169759E+02  0.15743410278E+02  0.25040527858E+02  0.31556279121E+02  0.00000000000E+00 0. -1.
         11    1    3    3    0    0 -0.71767653541E+01  0.38555155732E+02 -0.78292911296E+03  0.78391071042E+03  0.00000000000E+00 0. -1.
        -12    1    3    3    0    0  0.44760577113E+02 -0.17590796423E+02 -0.57548227718E+03  0.57748835203E+03  0.00000000000E+00 0.  1.
          5    1    4    4  501    0  0.24342702632E+02 -0.77306726177E+01 -0.16775447755E+03  0.16973911632E+03  0.41800000000E+01 0.  1.
         -5    1    4    4    0  501 -0.69594729792E+02 -0.18835654153E+02 -0.53847205845E+02  0.90084417407E+02  0.41800000000E+01 0.  1.
</event>
<event>
11    1  0.8864208E-009  0.1623250E+03  0.7561462E-02  0.1084911E+00
         22   -1    0    0    0    0  0.00000000000E+00  0.00000000000E+00  0.21021898927E+04  0.21021898927E+04  0.00000000000E+00 0.  1.
         22   -1    0    0    0    0 -0.00000000000E+00 -0.00000000000E+00 -0.64337223506E+03  0.64337223506E+03  0.00000000000E+00 0.  1.
         24    2    1    2    0    0  0.77181408849E+02 -0.72014680561E+02 -0.60535415466E+03  0.61979415566E+03  0.80920076239E+02 0.  0.
         25    2    1    2    0    0 -0.10424208523E+02  0.66290660939E+02  0.14277081674E+03  0.20133025538E+03  0.12508896741E+03 0.  0.
        -24    2    1    2    0    0 -0.66757200326E+02  0.57240196222E+01  0.19214009956E+04  0.19244377167E+04  0.84790633707E+02 0.  0.
        -13    1    3    3    0    0  0.91390615494E+02 -0.43833557074E+02 -0.47102626783E+03  0.48180843736E+03  0.00000000000E+00 0.  1.
         14    1    3    3    0    0 -0.14209206645E+02 -0.28181123488E+02 -0.13432788683E+03  0.13798571830E+03  0.00000000000E+00 0. -1.
         11    1    5    5    0    0 -0.28852837437E+01  0.13224997647E+02  0.46398965580E+02  0.48333109066E+02  0.00000000000E+00 0. -1.
        -12    1    5    5    0    0 -0.63871916582E+02 -0.75009780247E+01  0.18750020300E+04  0.18761046077E+04  0.00000000000E+00 0.  1.
          5    1    4    4  501    0 -0.18098371460E+02  0.86338773098E+02  0.15340661350E+03  0.17701128849E+03  0.41800000000E+01 0.  1.
         -5    1    4    4    0  501  0.76741629375E+01 -0.20048112158E+02 -0.10635796756E+02  0.24318966889E+02  0.41800000000E+01 0.  1.
</event>
<event>
11    1  0.8864208E-009  0.1419446E+03  0.7561462E-02  0.1105406E+00
         22   -1    0    0    0    0  0.00000000000E+00  0.00000000000E+00  0.96032940885E+02  0.96032940885E+02  0.00000000000E+00 0.  1.
         22   -1    0    0    0    0 -0.00000000000E+00 -0.00000000000E+00 -0.19195387766E+04  0.19195387766E+04  0.00000000000E+00 0. -1.
        -24    2    1    2    0    0  0.91532061643E+01  0.64236085551E+02 -0.15887306280E+04  0.15919010681E+04  0.76641676150E+02 0.  0.
         25    2    1    2    0    0 -0.59141274161E+02 -0.91189932870E+02 -0.27225179260E+03  0.31871577492E+03  0.12508162313E+03 0.  0.
         24    2    1    2    0    0  0.49988067997E+02  0.26953847318E+02  0.37476584907E+02  0.10495487440E+03  0.79910665227E+02 0.  0.
        -11    1    5    5    0    0  0.21968579561E+02  0.20586575837E+02  0.60865920644E+02  0.67904976905E+02  0.00000000000E+00 0.  1.
         12    1    5    5    0    0  0.28019488436E+02  0.63672714812E+01 -0.23389335736E+02  0.37049897496E+02  0.00000000000E+00 0. -1.
         13    1    3    3    0    0  0.29516629639E+02  0.41984839306E+02 -0.13849171393E+04  0.13858677573E+04  0.00000000000E+00 0. -1.
        -14    1    3    3    0    0 -0.20363423475E+02  0.22251246245E+02 -0.20381348873E+03  0.20603331081E+03  0.00000000000E+00 0.  1.
          5    1    4    4  501    0  0.32486643299E+02  0.22391685493E+01 -0.36853470656E+02  0.49356322473E+02  0.41800000000E+01 0.  1.
         -5    1    4    4    0  501 -0.91627917460E+02 -0.93429101419E+02 -0.23539832194E+03  0.26935945245E+03  0.41800000000E+01 0.  1.
</event>
<event>
11    1  0.8864208E-009  0.1785354E+03  0.7561462E-02  0.1070834E+00
         22   -1    0    0    0    0  0.00000000000E+00  0.00000000000E+00  0.50647829761E+02  0.50647829761E+02  0.00000000000E+00 0.  1.
         22   -1    0    0    0    0 -0.00000000000E+00 -0.00000000000E+00 -0.19622492897E+04  0.19622492897E+04  0.00000000000E+00 0.  1.
        -24    2    1    2    0    0 -0.11161942164E+03 -0.53214382501E+02 -0.13058702607E+04  0.13140723942E+04  0.78730258343E+02 0.  0.
         25    2    1    2    0    0  0.13445726649E+03  0.44977038258E+02 -0.57799598653E+03  0.60814088423E+03  0.12511708175E+03 0.  0.
         24    2    1    2    0    0 -0.22837844853E+02  0.82373442430E+01 -0.27735212670E+02  0.90683841008E+02  0.82854667946E+02 0.  0.
        -11    1    5    5    0    0  0.82692175316E+01  0.24515968675E+00  0.26439902480E+02  0.27703943853E+02  0.00000000000E+00 0.  1.
         12    1    5    5    0    0 -0.31107062385E+02  0.79921845563E+01 -0.54175115150E+02  0.62979897156E+02  0.00000000000E+00 0. -1.
         11    1    3    3    0    0 -0.37688332502E+02  0.84504019281E+01 -0.65309653719E+03  0.65423765299E+03  0.00000000000E+00 0. -1.
        -12    1    3    3    0    0 -0.73931089136E+02 -0.61664784429E+02 -0.65277372350E+03  0.65983474119E+03  0.00000000000E+00 0.  1.
          5    1    4    4  501    0  0.15841398385E+03  0.39720285056E+02 -0.51922200816E+03  0.54431760717E+03  0.41800000000E+01 0.  1.
         -5    1    4    4    0  501 -0.23956717356E+02  0.52567532019E+01 -0.58773978373E+02  0.63823277058E+02  0.41800000000E+01 0.  1.
</event>
<event>
11    1  0.8864208E-009  0.1433289E+03  0.7561462E-02  0.1103897E+00
         22   -1    0    0    0    0  0.00000000000E+00  0.00000000000E+00  0.48224084473E+03  0.48224084473E+03  0.00000000000E+00 0. -1.
         22   -1    0    0    0    0 -0.00000000000E+00 -0.00000000000E+00 -0.13491986879E+04  0.13491986879E+04  0.00000000000E+00 0.  1.
         24    2    1    2    0    0 -0.40586927571E+02  0.72522619524E+01 -0.92294704543E+03  0.92753857991E+03  0.82441946560E+02 0.  0.
         25    2    1    2    0    0  0.90582133514E+02 -0.55511541473E+02 -0.40176928672E+03  0.43399470208E+03  0.12508472145E+03 0.  0.
        -24    2    1    2    0    0 -0.49995205942E+02  0.48259279521E+02  0.45775848894E+03  0.46990625067E+03  0.80253171543E+02 0.  0.
        -13    1    3    3    0    0 -0.52727217859E+02  0.33422966078E+02 -0.56775455003E+03  0.57117640292E+03  0.00000000000E+00 0.  1.
         14    1    3    3    0    0  0.12140290288E+02 -0.26170704126E+02 -0.35519249540E+03  0.35636217699E+03  0.00000000000E+00 0. -1.
         11    1    5    5    0    0  0.16580148511E+02  0.32040930148E+01  0.17880707486E+03  0.17960272147E+03  0.00000000000E+00 0. -1.
        -12    1    5    5    0    0 -0.66575354453E+02  0.45055186506E+02  0.27895141408E+03  0.29030352920E+03  0.00000000000E+00 0.  1.
          5    1    4    4  501    0  0.11715025904E+02 -0.33585772017E+02 -0.15329076729E+02  0.38957655310E+02  0.41800000000E+01 0.  1.
         -5    1    4    4    0  501  0.78867107610E+02 -0.21925769456E+02 -0.38644020999E+03  0.39503704677E+03  0.41800000000E+01 0.  1.
</event>
<event>
11    1  0.8864208E-009  0.1572210E+03  0.7561462E-02  0.1089721E+00
         22   -1    0    0    0    0  0.00000000000E+00  0.00000000000E+00  0.10188370854E+04  0.10188370854E+04  0.00000000000E+00 0.  1.
         22   -1    0    0    0    0 -0.00000000000E+00 -0.00000000000E+00 -0.52258214775E+03  0.52258214775E+03  0.00000000000E+00 0.  1.
         24    2    1    2    0    0  0.79350051278E+02 -0.48599327463E+02 -0.33983455563E+03  0.36125492862E+03  0.79745049907E+02 0.  0.
         25    2    1    2    0    0 -0.70337970894E+02  0.80889344653E+02 -0.13023672303E+03  0.21000056141E+03  0.12509242798E+03 0.  0.
        -24    2    1    2    0    0 -0.90120803842E+01 -0.32290017191E+02  0.96632621628E+03  0.97016374309E+03  0.79419577764E+02 0.  0.
        -11    1    3    3    0    0  0.47160943608E+02 -0.22141545753E+02 -0.29685951033E+03  0.30139670125E+03  0.00000000000E+00 0.  1.
         12    1    3    3    0    0  0.32189107670E+02 -0.26457781710E+02 -0.42975045303E+02  0.59858227374E+02  0.00000000000E+00 0. -1.
         13    1    5    5    0    0 -0.16554922646E+02 -0.20727230319E+02  0.92501842412E+02  0.96230319495E+02  0.00000000000E+00 0. -1.
        -14    1    5    5    0    0  0.75428422616E+01 -0.11562786872E+02  0.87382437387E+03  0.87393342359E+03  0.00000000000E+00 0.  1.
          5    1    4    4  501    0 -0.85887372288E+02  0.60372559562E+02 -0.34210720197E+02  0.11049584808E+03  0.41800000000E+01 0. -1.
         -5    1    4    4    0  501  0.15549401394E+02  0.20516785091E+02 -0.96026002831E+02  0.99504713325E+02  0.41800000000E+01 0. -1.
</event>
<event>
11    1  0.8864208E-009  0.1940694E+03  0.7561462E-02  0.1058799E+00
         22   -1    0    0    0    0  0.00000000000E+00  0.00000000000E+00  0.26598609339E+03  0.26598609339E+03  0.00000000000E+00 0. -1.
         22   -1    0    0    0    0 -0.00000000000E+00 -0.00000000000E+00 -0.89856025375E+03  0.89856025375E+03  0.00000000000E+00 0.  1.
         24    2    1    2    0    0 -0.14832718582E+02  0.33422764765E+02 -0.70723015967E+03  0.71365627637E+03  0.88281885503E+02 0.  0.
         25    2    1    2    0    0  0.13630994764E+03  0.53943865210E+02 -0.91793360840E+02  0.21345725919E+03  0.12509051918E+03 0.  0.
        -24    2    1    2    0    0 -0.12147722906E+03 -0.87366629975E+02  0.16644936015E+03  0.23743281158E+03  0.79242067804E+02 0.  0.
        -13    1    3    3    0    0  0.56095750672E+01 -0.24609081181E+02 -0.36995644991E+03  0.37081646274E+03  0.00000000000E+00 0.  1.
         14    1    3    3    0    0 -0.20442293649E+02  0.58031845945E+02 -0.33727370976E+03  0.34283981363E+03  0.00000000000E+00 0. -1.
         11    1    5    5    0    0 -0.12728584437E+03 -0.76716159649E+02  0.16898418350E+03  0.22503935123E+03  0.00000000000E+00 0. -1.
        -12    1    5    5    0    0  0.58086153177E+01 -0.10650470326E+02 -0.25348233513E+01  0.12393460352E+02  0.00000000000E+00 0.  1.
          5    1    4    4  501    0  0.15161622113E+03  0.21128015298E+02 -0.58006271173E+02  0.16375613404E+03  0.41800000000E+01 0. -1.
         -5    1    4    4    0  501 -0.15306273488E+02  0.32815849912E+02 -0.33787089667E+02  0.49701125155E+02  0.41800000000E+01 0. -1.
</event>
<event>
11    1  0.8864208E-009  0.1660483E+03  0.7561462E-02  0.1081523E+00
         22   -1    0    0    0    0  0.00000000000E+00  0.00000000000E+00  0.22178216804E+04  0.22178216804E+04  0.00000000000E+00 0. -1.
         22   -1    0    0    0    0 -0.00000000000E+00 -0.00000000000E+00 -0.84769601153E+02  0.84769601153E+02  0.00000000000E+00 0. -1.
         24    2    1    2    0    0 -0.11303092302E+02 -0.12592987800E+02 -0.50672399202E+02  0.97380049221E+02  0.81417680561E+02 0.  0.
         25    2    1    2    0    0  0.78158001159E+02 -0.74978047081E+02  0.99127508410E+03  0.10049895947E+04  0.12508961791E+03 0.  0.
        -24    2    1    2    0    0 -0.66854908857E+02  0.87571034881E+02  0.11924493943E+04  0.12002216376E+04  0.80362654559E+02 0.  0.
        -13    1    3    3    0    0 -0.40298772770E+02 -0.23646782305E+01 -0.27752161408E+01  0.40463373741E+02  0.00000000000E+00 0.  1.
         14    1    3    3    0    0  0.28995680468E+02 -0.10228309569E+02 -0.47897183061E+02  0.56916675480E+02  0.00000000000E+00 0. -1.
         13    1    5    5    0    0 -0.37188977329E+02 -0.62935156663E+01  0.36095083478E+03  0.36291615217E+03  0.00000000000E+00 0. -1.
        -14    1    5    5    0    0 -0.29665931528E+02  0.93864550547E+02  0.83149855957E+03  0.83730548541E+03  0.00000000000E+00 0.  1.
          5    1    4    4  501    0 -0.87100831163E+01 -0.72712291004E+02  0.33249312839E+03  0.34048802569E+03  0.41800000000E+01 0. -1.
         -5    1    4    4    0  501  0.86868084276E+02 -0.22657560768E+01  0.65878195570E+03  0.66450156905E+03  0.41800000000E+01 0. -1.
</event>
<event>
11    1  0.8864208E-009  0.1622038E+03  0.7561462E-02  0.1085023E+00
         22   -1    0    0    0    0  0.00000000000E+00  0.00000000000E+00  0.81484959687E+03  0.81484959687E+03  0.00000000000E+00 0. -1.
         22   -1    0    0    0    0 -0.00000000000E+00 -0.00000000000E+00 -0.20054376537E+04  0.20054376537E+04  0.00000000000E+00 0.  1.
         24    2    1    2    0    0 -0.15605047329E+02 -0.10219469736E+03 -0.19831185671E+04  0.19874969173E+04  0.81838078690E+02 0.  0.
         25    2    1    2    0    0 -0.92926889545E+01  0.85078327798E+02  0.34279960750E+03  0.37481320754E+03  0.12509473897E+03 0.  0.
        -24    2    1    2    0    0  0.24897736284E+02  0.17116369566E+02  0.44973090282E+03  0.45797712577E+03  0.81069694666E+02 0.  0.
        -11    1    3    3    0    0  0.11266989777E+02 -0.10037222902E+03 -0.17308877875E+04  0.17338321897E+04  0.00000000000E+00 0.  1.
         12    1    3    3    0    0 -0.26872037106E+02 -0.18224683474E+01 -0.25223077969E+03  0.25366472753E+03  0.00000000000E+00 0. -1.
         11    1    5    5    0    0  0.11770122072E+02  0.24004238414E+02  0.43866178327E+03  0.43947570961E+03  0.00000000000E+00 0. -1.
        -12    1    5    5    0    0  0.13127614212E+02 -0.68878688482E+01  0.11069119553E+02  0.18501416157E+02  0.00000000000E+00 0.  1.
          5    1    4    4  501    0 -0.87345896396E+01  0.35497967273E+02  0.97471397251E+01  0.38064128382E+02  0.41800000000E+01 0. -1.
         -5    1    4    4    0  501 -0.55809931492E+00  0.49580360525E+02  0.33305246777E+03  0.33674907916E+03  0.41800000000E+01 0. -1.
</event>
<event>
11    1  0.8864208E-009  0.3797670E+03  0.7561462E-02  0.9711418E-01
         22   -1    0    0    0    0  0.00000000000E+00  0.00000000000E+00  0.40944023979E+02  0.40944023979E+02  0.00000000000E+00 0.  1.
         22   -1    0    0    0    0 -0.00000000000E+00 -0.00000000000E+00 -0.88061048324E+03  0.88061048324E+03  0.00000000000E+00 0.  1.
         24    2    1    2    0    0 -0.36022014631E+01 -0.38318664017E+02 -0.16188105211E+03  0.18239598249E+03  0.74709594635E+02 0.  0.
         25    2    1    2    0    0  0.26815982769E+02  0.11869521148E+03 -0.46223531842E+03  0.49407851564E+03  0.12507773529E+03 0.  0.
        -24    2    1    2    0    0 -0.23213781305E+02 -0.80376547462E+02 -0.21555008873E+03  0.24508000908E+03  0.81259467601E+02 0.  0.
        -11    1    3    3    0    0 -0.25729332259E+02 -0.26037164359E+02 -0.15006746290E+03  0.15446739425E+03  0.00000000000E+00 0.  1.
         12    1    3    3    0    0  0.22127130796E+02 -0.12281499659E+02 -0.11813589210E+02  0.27928588242E+02  0.00000000000E+00 0. -1.
         13    1    5    5    0    0 -0.20493946593E+02 -0.48973077942E+02 -0.39347415686E+02  0.66080128112E+02  0.00000000000E+00 0. -1.
        -14    1    5    5    0    0 -0.27198347120E+01 -0.31403469520E+02 -0.17620267305E+03  0.17899988097E+03  0.00000000000E+00 0.  1.
          5    1    4    4  501    0 -0.21183988500E+02  0.12133433430E+03 -0.36997574838E+03  0.38996193255E+03  0.41800000000E+01 0. -1.
         -5    1    4    4    0  501  0.47999971268E+02 -0.26391228177E+01 -0.92259570038E+02  0.10411658309E+03  0.41800000000E+01 0. -1.
</event>
<event>
11    1  0.8864208E-009  0.1602561E+03  0.7561462E-02  0.1086837E+00
         22   -1    0    0    0    0  0.00000000000E+00  0.00000000000E+00  0.60825885661E+03  0.60825885661E+03  0.00000000000E+00 0.  1.
         22   -1    0    0    0    0 -0.00000000000E+00 -0.00000000000E+00 -0.20406473977E+03  0.20406473977E+03  0.00000000000E+00 0. -1.
        -24    2    1    2    0    0  0.79150179416E+02  0.16596512694E+02 -0.10903994599E+03  0.15714724579E+03  0.79153975910E+02 0.  0.
         25    2    1    2    0    0  0.31016692919E+02 -0.17438648991E+02  0.62714612493E+01  0.13020632356E+03  0.12509282054E+03 0.  0.
         24    2    1    2    0    0 -0.11016687234E+03  0.84213629637E+00  0.50696260158E+03  0.52497002704E+03  0.80280763183E+02 0.  0.
        -13    1    5    5    0    0 -0.50718558972E+02  0.16174627125E+02  0.38252535431E+03  0.38621190748E+03  0.00000000000E+00 0.  1.
         14    1    5    5    0    0 -0.59448313364E+02 -0.15332490828E+02  0.12443724726E+03  0.13875811956E+03  0.00000000000E+00 0. -1.
         11    1    3    3    0    0  0.39503884267E+02  0.71678309610E+01 -0.10925100478E+03  0.11639465932E+03  0.00000000000E+00 0. -1.
        -12    1    3    3    0    0  0.39646295149E+02  0.94286817332E+01  0.21105878877E+00  0.40752586471E+02  0.00000000000E+00 0.  1.
          5    1    4    4  501    0  0.57386775809E+02  0.37647238378E+02  0.10486464011E+01  0.68768660409E+02  0.41800000000E+01 0.  1.
         -5    1    4    4    0  501 -0.26370082890E+02 -0.55085887368E+02  0.52228148483E+01  0.61437663153E+02  0.41800000000E+01 0.  1.
</event>
<event>
11    1  0.8864208E-009  0.1728387E+03  0.7561462E-02  0.1075587E+00
         22   -1    0    0    0    0  0.00000000000E+00  0.00000000000E+00  0.18984435478E+03  0.18984435478E+03  0.00000000000E+00 0. -1.
         22   -1    0    0    0    0 -0.00000000000E+00 -0.00000000000E+00 -0.41045984135E+03  0.41045984135E+03  0.00000000000E+00 0.  1.
         24    2    1    2    0    0  0.43547033788E+02  0.14238067873E+02 -0.21554050595E+03  0.23423619869E+03  0.79434377609E+02 0.  0.
         25    2    1    2    0    0  0.64027435329E+02  0.56604414654E+02 -0.10576379054E+03  0.18478481597E+03  0.12512344541E+03 0.  0.
        -24    2    1    2    0    0 -0.10757446912E+03 -0.70842482526E+02  0.10068880991E+03  0.18128318147E+03  0.78322612982E+02 0.  0.
        -11    1    3    3    0    0 -0.17126850450E+02  0.10685486820E+02 -0.11495761232E+03  0.11671658522E+03  0.00000000000E+00 0.  1.
         12    1    3    3    0    0  0.60673884238E+02  0.35525810527E+01 -0.10058289362E+03  0.11751961347E+03  0.00000000000E+00 0. -1.
         11    1    5    5    0    0 -0.73913855276E+02 -0.73888378362E+02  0.40169516462E+02  0.11196580063E+03  0.00000000000E+00 0. -1.
        -12    1    5    5    0    0 -0.33660613841E+02  0.30458958360E+01  0.60519293450E+02  0.69317380831E+02  0.00000000000E+00 0.  1.
          5    1    4    4  501    0  0.67058051410E+02  0.87928351007E+02 -0.10571204240E+03  0.15303818307E+03  0.41800000000E+01 0.  1.
         -5    1    4    4    0  501 -0.30306160815E+01 -0.31323936353E+02 -0.51748139314E-01  0.31746632898E+02  0.41800000000E+01 0.  1.
</event>
<event>
11    1  0.8864208E-009  0.2094729E+03  0.7561462E-02  0.1048020E+00
         22   -1    0    0    0    0  0.00000000000E+00  0.00000000000E+00  0.14669278463E+03  0.14669278463E+03  0.00000000000E+00 0.  1.
         22   -1    0    0    0    0 -0.00000000000E+00 -0.00000000000E+00 -0.14434786404E+04  0.14434786404E+04  0.00000000000E+00 0.  1.
        -24    2    1    2    0    0  0.38585851017E+02 -0.46808387084E+02 -0.91672527181E+03  0.92226133950E+03  0.80627919202E+02 0.  0.
         25    2    1    2    0    0 -0.19942339477E+03  0.18476081570E+02 -0.41352184184E+03  0.47619440444E+03  0.12509892554E+03 0.  0.
         24    2    1    2    0    0  0.16083754375E+03  0.28332305514E+02  0.33461257876E+02  0.19171568110E+03  0.94677407996E+02 0.  0.
        -11    1    5    5    0    0  0.30448771955E+02 -0.11610529321E+02  0.44210988090E+02  0.54923069585E+02  0.00000000000E+00 0.  1.
         12    1    5    5    0    0  0.13038877180E+03  0.39942834835E+02 -0.10749730214E+02  0.13679261152E+03  0.00000000000E+00 0. -1.
         11    1    3    3    0    0 -0.22349165568E+02  0.18457117517E+01 -0.24546129221E+03  0.24648354473E+03  0.00000000000E+00 0. -1.
        -12    1    3    3    0    0  0.60935016585E+02 -0.48654098836E+02 -0.67126397961E+03  0.67577779477E+03  0.00000000000E+00 0.  1.
          5    1    4    4  501    0 -0.10572452342E+03 -0.52013002410E+02 -0.22814026349E+03  0.25680436035E+03  0.41800000000E+01 0. -1.
         -5    1    4    4    0  501 -0.93698871354E+02  0.70489083980E+02 -0.18538157835E+03  0.21939004409E+03  0.41800000000E+01 0. -1.
</event>
<event>
11    1  0.8864208E-009  0.1584581E+03  0.7561462E-02  0.1088537E+00
         22   -1    0    0    0    0  0.00000000000E+00  0.00000000000E+00  0.22781367493E+03  0.22781367493E+03  0.00000000000E+00 0.  1.
         22   -1    0    0    0    0 -0.00000000000E+00 -0.00000000000E+00 -0.12056119175E+04  0.12056119175E+04  0.00000000000E+00 0.  1.
        -24    2    1    2    0    0  0.61794129312E+02 -0.76745677235E+02 -0.10274615895E+04  0.10356673578E+04  0.84977319240E+02 0.  0.
         25    2    1    2    0    0 -0.14637167306E+02  0.96324791060E+02 -0.12306836073E+03  0.20071144116E+03  0.12508616695E+03 0.  0.
         24    2    1    2    0    0 -0.47156962006E+02 -0.19579113826E+02  0.17273170764E+03  0.19704679345E+03  0.79900408126E+02 0.  0.
        -13    1    5    5    0    0 -0.41850849444E+02 -0.47374788320E+02  0.93060413656E+02  0.11249935447E+03  0.00000000000E+00 0.  1.
         14    1    5    5    0    0 -0.53061125625E+01  0.27795674494E+02  0.79671293988E+02  0.84547438973E+02  0.00000000000E+00 0. -1.
         11    1    3    3    0    0  0.58782482202E+02 -0.39000124178E+02 -0.34405251339E+03  0.35121008224E+03  0.00000000000E+00 0. -1.
        -12    1    3    3    0    0  0.30116471104E+01 -0.37745553057E+02 -0.68340907607E+03  0.68445727554E+03  0.00000000000E+00 0.  1.
          5    1    4    4  501    0  0.14676865807E+01 -0.60938119066E+01 -0.92127710671E+02  0.92435253670E+02  0.41800000000E+01 0.  1.
         -5    1    4    4    0  501 -0.16104853887E+02  0.10241860297E+03 -0.30940650055E+02  0.10827618749E+03  0.41800000000E+01 0.  1.
</event>
<event>
11    1  0.8864208E-009  0.1313595E+03  0.7561462E-02  0.1117610E+00
         22   -1    0    0    0    0  0.00000000000E+00  0.00000000000E+00  0.37449579478E+03  0.37449579478E+03  0.00000000000E+00 0. -1.
         22   -1    0    0    0    0 -0.00000000000E+00 -0.00000000000E+00 -0.78177107325E+03  0.78177107325E+03  0.00000000000E+00 0. -1.
        -24    2    1    2    0    0  0.38140047799E+02  0.10920763013E+02 -0.62005067250E+03  0.62650607950E+03  0.80455608093E+02 0.  0.
         25    2    1    2    0    0 -0.46085024233E+02  0.28809769940E+01 -0.12452435951E+03  0.18244652682E+03  0.12509312352E+03 0.  0.
         24    2    1    2    0    0  0.79449764344E+01 -0.13801740007E+02  0.33729975354E+03  0.34731426170E+03  0.81255534998E+02 0.  0.
        -11    1    5    5    0    0  0.22306154113E+02  0.27998585187E+02  0.10753271803E+03  0.11333477282E+03  0.00000000000E+00 0.  1.
         12    1    5    5    0    0 -0.14361177678E+02 -0.41800325195E+02  0.22976703551E+03  0.23397948888E+03  0.00000000000E+00 0. -1.
         11    1    3    3    0    0  0.43323454182E+02  0.17321190971E+02 -0.61516099472E+03  0.61692786837E+03  0.00000000000E+00 0. -1.
        -12    1    3    3    0    0 -0.51834063837E+01 -0.64004279578E+01 -0.48896777775E+01  0.95782111352E+01  0.00000000000E+00 0.  1.
          5    1    4    4  501    0  0.39212924985E+02 -0.65317815880E+01 -0.70238249395E+02  0.80815850764E+02  0.41800000000E+01 0.  1.
         -5    1    4    4    0  501 -0.85297949218E+02  0.94127585820E+01 -0.54286110116E+02  0.10163067606E+03  0.41800000000E+01 0.  1.
</event>
<event>
11    1  0.8864208E-009  0.1732928E+03  0.7561462E-02  0.1075201E+00
         22   -1    0    0    0    0  0.00000000000E+00  0.00000000000E+00  0.16846524814E+03  0.16846524814E+03  0.00000000000E+00 0.  1.
         22   -1    0    0    0    0 -0.00000000000E+00 -0.00000000000E+00 -0.19824895676E+04  0.19824895676E+04  0.00000000000E+00 0.  1.
         24    2    1    2    0    0 -0.20801336648E+02 -0.14789355352E+02 -0.17995270176E+04  0.18014845865E+04  0.79986295796E+02 0.  0.
         25    2    1    2    0    0 -0.29517558289E+02 -0.10027792146E+03 -0.85101494195E+02  0.18389436989E+03  0.12509167511E+03 0.  0.
        -24    2    1    2    0    0  0.50318894937E+02  0.11506727682E+03  0.70604192349E+02  0.16557585939E+03  0.81596224500E+02 0.  0.
        -11    1    3    3    0    0 -0.29652283662E+01  0.91171112540E+01 -0.15698089817E+04  0.15698382571E+04  0.00000000000E+00 0.  1.
         12    1    3    3    0    0 -0.17836108282E+02 -0.23906466606E+02 -0.22971803593E+03  0.23164632942E+03  0.00000000000E+00 0. -1.
         13    1    5    5    0    0  0.30331376206E+02 -0.22038189343E+01  0.96428077338E+01  0.31903494188E+02  0.00000000000E+00 0. -1.
        -14    1    5    5    0    0  0.19987518731E+02  0.11727109575E+03  0.60961384615E+02  0.13367236520E+03  0.00000000000E+00 0.  1.
          5    1    4    4  501    0 -0.69330061077E+02 -0.67756570546E+02 -0.89664081758E+02  0.13211635091E+03  0.41800000000E+01 0. -1.
         -5    1    4    4    0  501  0.39812502789E+02 -0.32521350917E+02  0.45625875635E+01  0.51778018976E+02  0.41800000000E+01 0. -1.
</event>
<event>
11    1  0.8864208E-009  0.1682150E+03  0.7561462E-02  0.1079596E+00
         22   -1    0    0    0    0  0.00000000000E+00  0.00000000000E+00  0.58704227501E+03  0.58704227501E+03  0.00000000000E+00 0. -1.
         22   -1    0    0    0    0 -0.00000000000E+00 -0.00000000000E+00 -0.82733569956E+03  0.82733569956E+03  0.00000000000E+00 0.  1.
        -24    2    1    2    0    0 -0.11176278209E+03 -0.34191568082E+02 -0.72787007665E+03  0.74152871516E+03  0.80062501368E+02 0.  0.
         25    2    1    2    0    0  0.79258084666E+02 -0.17140592852E+02 -0.24535616297E+02  0.15109146803E+03  0.12510392214E+03 0.  0.
         24    2    1    2    0    0  0.32504697426E+02  0.51332160934E+02  0.51211226839E+03  0.52175779138E+03  0.79250686611E+02 0.  0.
        -11    1    5    5    0    0  0.67489435313E+01  0.37972496622E+02  0.81454825806E+02  0.90124066628E+02  0.00000000000E+00 0.  1.
         12    1    5    5    0    0  0.25755753895E+02  0.13359664312E+02  0.43065744259E+03  0.43163372476E+03  0.00000000000E+00 0. -1.
         13    1    3    3    0    0  0.83270904475E+01 -0.42298632369E+01 -0.16254607087E+03  0.16281418038E+03  0.00000000000E+00 0. -1.
        -14    1    3    3    0    0 -0.12008987254E+03 -0.29961704845E+02 -0.56532400579E+03  0.57871453478E+03  0.00000000000E+00 0.  1.
          5    1    4    4  501    0  0.49535373035E+02  0.44597519191E+02  0.19452156127E+02  0.69559691472E+02  0.41800000000E+01 0. -1.
         -5    1    4    4    0  501  0.29722711631E+02 -0.61738112044E+02 -0.43987772424E+02  0.81531776555E+02  0.41800000000E+01 0. -1.
</event>
<event>
11    1  0.8864208E-009  0.1458512E+03  0.7561462E-02  0.1101195E+00
         22   -1    0    0    0    0  0.00000000000E+00  0.00000000000E+00  0.18032864637E+04  0.18032864637E+04  0.00000000000E+00 0. -1.
         22   -1    0    0    0    0 -0.00000000000E+00 -0.00000000000E+00 -0.71543478402E+02  0.71543478402E+02  0.00000000000E+00 0.  1.
         24    2    1    2    0    0 -0.40376879140E+02 -0.61717472162E+02  0.15100362194E+01  0.11677914881E+03  0.90530385223E+02 0.  0.
         25    2    1    2    0    0  0.58893180681E+02  0.62281242708E+02  0.44173759265E+03  0.46704166237E+03  0.12509377965E+03 0.  0.
        -24    2    1    2    0    0 -0.18516301540E+02 -0.56377054631E+00  0.12884953564E+04  0.12910091309E+04  0.78365306837E+02 0.  0.
        -13    1    3    3    0    0  0.14913081134E+02 -0.40475659780E+02 -0.27161236121E+02  0.50974618891E+02  0.00000000000E+00 0.  1.
         14    1    3    3    0    0 -0.55289960274E+02 -0.21241812382E+02  0.28671272340E+02  0.65804529920E+02  0.00000000000E+00 0. -1.
         13    1    5    5    0    0  0.17549516470E+02 -0.19498395663E+02  0.90037257567E+03  0.90075465471E+03  0.00000000000E+00 0. -1.
        -14    1    5    5    0    0 -0.36065818010E+02  0.18934625117E+02  0.38812278072E+03  0.39025447617E+03  0.00000000000E+00 0.  1.
          5    1    4    4  501    0  0.29518735734E+02 -0.10656511170E+02  0.32312107363E+03  0.32466847339E+03  0.41800000000E+01 0.  1.
         -5    1    4    4    0  501  0.29374444946E+02  0.72937753878E+02  0.11861651902E+03  0.14237318899E+03  0.41800000000E+01 0.  1.
</event>
<event>
11    1  0.8864208E-009  0.2248967E+03  0.7561462E-02  0.1038193E+00
         22   -1    0    0    0    0  0.00000000000E+00  0.00000000000E+00  0.44788908506E+03  0.44788908506E+03  0.00000000000E+00 0.  1.
         22   -1    0    0    0    0 -0.00000000000E+00 -0.00000000000E+00 -0.11034569418E+04  0.11034569418E+04  0.00000000000E+00 0.  1.
        -24    2    1    2    0    0 -0.68158553316E+02  0.84015374351E+02 -0.70823802713E+03  0.72283222196E+03  0.95818299478E+02 0.  0.
         25    2    1    2    0    0 -0.24566498389E+00 -0.25405595354E+03 -0.30663581051E+03  0.41739430274E+03  0.12509194936E+03 0.  0.
         24    2    1    2    0    0  0.68404218300E+02  0.17004057919E+03  0.35930598085E+03  0.41111950220E+03  0.79533147603E+02 0.  0.
        -11    1    5    5    0    0  0.66805912364E+02  0.17122468913E+03  0.36302577363E+03  0.40690126126E+03  0.00000000000E+00 0.  1.
         12    1    5    5    0    0  0.15983059360E+01 -0.11841099449E+01 -0.37197927884E+01  0.42182409385E+01  0.00000000000E+00 0. -1.
         11    1    3    3    0    0 -0.16629479777E+01 -0.19794593200E+02 -0.13782649541E+03  0.13925061635E+03  0.00000000000E+00 0. -1.
        -12    1    3    3    0    0 -0.66495605339E+02  0.10380996755E+03 -0.57041153171E+03  0.58358160561E+03  0.00000000000E+00 0.  1.
          5    1    4    4  501    0  0.14112532203E+02  0.10335013031E+02 -0.25193278633E+02  0.30953994053E+02  0.41800000000E+01 0. -1.
         -5    1    4    4    0  501 -0.14358197187E+02 -0.26439096657E+03 -0.28144253188E+03  0.38644030869E+03  0.41800000000E+01 0. -1.
</event>
<event>
11    1  0.8864208E-009  0.1648635E+03  0.7561462E-02  0.1082590E+00
         22   -1    0    0    0    0  0.00000000000E+00  0.00000000000E+00  0.12002243360E+04  0.12002243360E+04  0.00000000000E+00 0. -1.
         22   -1    0    0    0    0 -0.00000000000E+00 -0.00000000000E+00 -0.12313010959E+03  0.12313010959E+03  0.00000000000E+00 0.  1.
         24    2    1    2    0    0  0.78763667234E+02  0.79177478150E+02 -0.19315483473E+02  0.13883113852E+03  0.80176111149E+02 0.  0.
         25    2    1    2    0    0 -0.46421830974E+02 -0.88338409671E+02  0.10951791706E+03  0.19390604276E+03  0.12508684281E+03 0.  0.
        -24    2    1    2    0    0 -0.32341836260E+02  0.91609315206E+01  0.98689179285E+03  0.99061726434E+03  0.78976177201E+02 0.  0.
        -13    1    3    3    0    0  0.49712790997E+02  0.91621551219E+02 -0.56302594689E+01  0.10439142713E+03  0.00000000000E+00 0.  1.
         14    1    3    3    0    0  0.29050876237E+02 -0.12444073069E+02 -0.13685224004E+02  0.34439711391E+02  0.00000000000E+00 0. -1.
         11    1    5    5    0    0 -0.44513552808E+02  0.32832933935E+02  0.79005651275E+03  0.79199037322E+03  0.00000000000E+00 0. -1.
        -12    1    5    5    0    0  0.12171716548E+02 -0.23672002415E+02  0.19683528011E+03  0.19862689112E+03  0.00000000000E+00 0.  1.
          5    1    4    4  501    0 -0.71152075060E+02 -0.78633070564E+02  0.12411812551E+03  0.16330511031E+03  0.41800000000E+01 0.  1.
         -5    1    4    4    0  501  0.24730244086E+02 -0.97053391066E+01 -0.14600208452E+02  0.30600932446E+02  0.41800000000E+01 0.  1.
</event>
<event>
11    1  0.8864208E-009  0.1440702E+03  0.7561462E-02  0.1103097E+00
         22   -1    0    0    0    0  0.00000000000E+00  0.00000000000E+00  0.38349274653E+03  0.38349274653E+03  0.00000000000E+00 0.  1.
         22   -1    0    0    0    0 -0.00000000000E+00 -0.00000000000E+00 -0.47477644878E+03  0.47477644878E+03  0.00000000000E+00 0. -1.
         24    2    1    2    0    0  0.13310448613E+02  0.14135941206E+02 -0.37887417163E+03  0.38692355720E+03  0.76073703158E+02 0.  0.
         25    2    1    2    0    0  0.15827253650E+02 -0.78605943557E+02 -0.15973647121E+02  0.14942224609E+03  0.12506979612E+03 0.  0.
        -24    2    1    2    0    0 -0.29137702264E+02  0.64470002351E+02  0.30356411650E+03  0.32192339203E+03  0.80486710799E+02 0.  0.
        -13    1    3    3    0    0  0.15152343812E+02  0.12279676444E+02 -0.19636174609E+02  0.27676042525E+02  0.00000000000E+00 0.  1.
         14    1    3    3    0    0 -0.18418951988E+01  0.18562647622E+01 -0.35923799702E+03  0.35924751467E+03  0.00000000000E+00 0. -1.
         13    1    5    5    0    0  0.16790591020E+02  0.25482327024E+02  0.33902871826E+02  0.45614445688E+02  0.00000000000E+00 0. -1.
        -14    1    5    5    0    0 -0.45928293283E+02  0.38987675326E+02  0.26966124467E+03  0.27630894634E+03  0.00000000000E+00 0.  1.
          5    1    4    4  501    0 -0.93724235654E+01  0.24585020177E+02 -0.32301217793E+02  0.41870115972E+02  0.41800000000E+01 0. -1.
         -5    1    4    4    0  501  0.25199677216E+02 -0.10319096373E+03  0.16327570672E+02  0.10755213011E+03  0.41800000000E+01 0. -1.
</event>
<event>
11    1  0.1026747E-008  0.1429051E+03  0.7561462E-02  0.1104357E+00
         22   -1    0    0    0    0  0.00000000000E+00  0.00000000000E+00  0.25519824859E+03  0.25519824859E+03  0.00000000000E+00 0. -1.
         22   -1    0    0    0    0 -0.00000000000E+00 -0.00000000000E+00 -0.17805848939E+04  0.17805848939E+04  0.00000000000E+00 0.  1.
         24    2    1    2    0    0 -0.45397285137E+02  0.16332284750E+02 -0.13853295313E+04  0.13884202216E+04  0.79026226460E+02 0.  0.
         25    2    1    2    0    0 -0.84115907697E+01  0.29169522571E+02 -0.37085872703E+03  0.39256324230E+03  0.12509231746E+03 0.  0.
        -24    2    1    2    0    0  0.53808875907E+02 -0.45501807321E+02  0.23080161309E+03  0.25479967850E+03  0.81778248737E+02 0.  0.
        -11    1    3    3    0    0 -0.15540742468E+02  0.23754006876E+02 -0.12151926959E+04  0.12155241897E+04  0.00000000000E+00 0.  1.
         12    1    3    3    0    0 -0.29856542669E+02 -0.74217221260E+01 -0.17013683539E+03  0.17289603193E+03  0.00000000000E+00 0. -1.
         13    1    5    5    0    0  0.68793331276E+02 -0.50861628564E+02  0.21860265932E+03  0.23474784419E+03  0.00000000000E+00 0. -1.
        -14    1    5    5    0    0 -0.14984455369E+02  0.53598212429E+01  0.12198953762E+02  0.20051834314E+02  0.00000000000E+00 0.  1.
          5    1    4    4  501    0  0.17583911477E+02  0.56501144746E+02 -0.33546413012E+03  0.34066879561E+03  0.41800000000E+01 0.  1.
         -5    1    4    4    0  501 -0.25995502247E+02 -0.27331622174E+02 -0.35394596904E+02  0.51894446694E+02  0.41800000000E+01 0.  1.
</event>
<event>
11    1  0.8864208E-009  0.1350118E+03  0.7561462E-02  0.1113260E+00
         22   -1    0    0    0    0  0.00000000000E+00  0.00000000000E+00  0.27287162752E+03  0.27287162752E+03  0.00000000000E+00 0.  1.
         22   -1    0    0    0    0 -0.00000000000E+00 -0.00000000000E+00 -0.47740127649E+03  0.47740127649E+03  0.00000000000E+00 0.  1.
        -24    2    1    2    0    0 -0.57273794559E+02  0.45365922942E+02 -0.22876947500E+03  0.25316601380E+03  0.80119931016E+02 0.  0.
         25    2    1    2    0    0  0.15065925735E+02 -0.11037312246E+02 -0.20898952287E+03  0.24427488349E+03  0.12507914956E+03 0.  0.
         24    2    1    2    0    0  0.42207868824E+02 -0.34328610696E+02  0.23322934890E+03  0.25283200672E+03  0.81044041929E+02 0.  0.
        -11    1    5    5    0    0  0.62753613423E+02 -0.38609242701E+02  0.20360975879E+03  0.21653088347E+03  0.00000000000E+00 0.  1.
         12    1    5    5    0    0 -0.20545744598E+02  0.42806320055E+01  0.29619590104E+02  0.36301123253E+02  0.00000000000E+00 0. -1.
         11    1    3    3    0    0  0.16553250597E+02 -0.44521077071E+01 -0.20970877164E+02  0.27085218430E+02  0.00000000000E+00 0. -1.
        -12    1    3    3    0    0 -0.73827045157E+02  0.49818030649E+02 -0.20779859784E+03  0.22608079537E+03  0.00000000000E+00 0.  1.
          5    1    4    4  501    0  0.48676885409E+02 -0.50948251484E+02 -0.14751279321E+03  0.16353183196E+03  0.41800000000E+01 0.  1.
         -5    1    4    4    0  501 -0.33610959673E+02  0.39910939237E+02 -0.61476729659E+02  0.80743051531E+02  0.41800000000E+01 0.  1.
</event>
<event>
11    1  0.8864208E-009  0.1677180E+03  0.7561462E-02  0.1080035E+00
         22   -1    0    0    0    0  0.00000000000E+00  0.00000000000E+00  0.46547965404E+03  0.46547965404E+03  0.00000000000E+00 0.  1.
         22   -1    0    0    0    0 -0.00000000000E+00 -0.00000000000E+00 -0.24813497044E+04  0.24813497044E+04  0.00000000000E+00 0.  1.
         24    2    1    2    0    0  0.41359523179E+02  0.36673966100E+02 -0.20122331687E+04  0.20146072670E+04  0.80650637588E+02 0.  0.
         25    2    1    2    0    0 -0.14249027680E+03  0.96040307384E+01 -0.43773100690E+03  0.47712817654E+03  0.12508855288E+03 0.  0.
        -24    2    1    2    0    0  0.10113075362E+03 -0.46277996838E+02  0.43409412524E+03  0.45509391484E+03  0.79395714243E+02 0.  0.
        -13    1    3    3    0    0  0.64034424399E+02  0.28132473677E+02 -0.16986744008E+04  0.17001136914E+04  0.00000000000E+00 0.  1.
         14    1    3    3    0    0 -0.22674901220E+02  0.85414924232E+01 -0.31355876784E+03  0.31449357565E+03  0.00000000000E+00 0. -1.
         13    1    5    5    0    0  0.64750780565E+02 -0.42029325054E+01  0.12299478178E+03  0.13906129789E+03  0.00000000000E+00 0. -1.
        -14    1    5    5    0    0  0.36379973060E+02 -0.42075064333E+02  0.31109934346E+03  0.31603261695E+03  0.00000000000E+00 0.  1.
          5    1    4    4  501    0 -0.67713900487E+02  0.54053600639E+02 -0.31440151488E+03  0.32614835431E+03  0.41800000000E+01 0.  1.
         -5    1    4    4    0  501 -0.74776376316E+02 -0.44449569901E+02 -0.12332949202E+03  0.15097982223E+03  0.41800000000E+01 0.  1.
</event>
<event>
11    1  0.8864208E-009  0.1886831E+03  0.7561462E-02  0.1062828E+00
         22   -1    0    0    0    0  0.00000000000E+00  0.00000000000E+00  0.91485729989E+02  0.91485729989E+02  0.00000000000E+00 0. -1.
         22   -1    0    0    0    0 -0.00000000000E+00 -0.00000000000E+00 -0.16673474085E+04  0.16673474085E+04  0.00000000000E+00 0.  1.
         24    2    1    2    0    0  0.14349319481E+03  0.20045090775E+02 -0.12010689532E+04  0.12124560868E+04  0.80566925245E+02 0.  0.
         25    2    1    2    0    0 -0.13204051973E+03  0.63638964412E+02 -0.38263696477E+03  0.42842116566E+03  0.12509608998E+03 0.  0.
        -24    2    1    2    0    0 -0.11452675080E+02 -0.83684055187E+02  0.78442394906E+01  0.11795588601E+03  0.81962638392E+02 0.  0.
        -13    1    3    3    0    0  0.13348846531E+03 -0.61456755542E+01 -0.10770181727E+04  0.10852765012E+04  0.00000000000E+00 0.  1.
         14    1    3    3    0    0  0.10004729505E+02  0.26190766329E+02 -0.12405078052E+03  0.12717958563E+03  0.00000000000E+00 0. -1.
         11    1    5    5    0    0  0.15750464227E+01 -0.35446130520E+02  0.43821681960E+02  0.56384827302E+02  0.00000000000E+00 0. -1.
        -12    1    5    5    0    0 -0.13027721503E+02 -0.48237924667E+02 -0.35977442470E+02  0.61571058708E+02  0.00000000000E+00 0.  1.
          5    1    4    4  501    0 -0.11947227759E+03  0.96664080711E+02 -0.27500345788E+03  0.31505863559E+03  0.41800000000E+01 0.  1.
         -5    1    4    4    0  501 -0.12568242139E+02 -0.33025116299E+02 -0.10763350690E+03  0.11336253007E+03  0.41800000000E+01 0.  1.
</event>
<event>
11    1  0.8864208E-009  0.1571715E+03  0.7561462E-02  0.1089768E+00
         22   -1    0    0    0    0  0.00000000000E+00  0.00000000000E+00  0.97280172955E+03  0.97280172955E+03  0.00000000000E+00 0. -1.
         22   -1    0    0    0    0 -0.00000000000E+00 -0.00000000000E+00 -0.16245555907E+04  0.16245555907E+04  0.00000000000E+00 0.  1.
         24    2    1    2    0    0 -0.25874184317E+02  0.54639408191E+02 -0.15675477097E+04  0.15707801767E+04  0.80558072546E+02 0.  0.
         25    2    1    2    0    0 -0.57826069867E+02 -0.98704861606E+00  0.42800377399E+02  0.14430380007E+03  0.12508751252E+03 0.  0.
        -24    2    1    2    0    0  0.83700254184E+02 -0.53652359574E+02  0.87299347112E+03  0.88227334348E+03  0.80027143814E+02 0.  0.
        -13    1    3    3    0    0 -0.29725127083E+02  0.72530832636E+02 -0.10560186184E+04  0.10589238061E+04  0.00000000000E+00 0.  1.
         14    1    3    3    0    0  0.38509427662E+01 -0.17891424446E+02 -0.51152909129E+03  0.51185637054E+03  0.00000000000E+00 0. -1.
         11    1    5    5    0    0  0.91785973143E+02 -0.34568137462E+02  0.55458762136E+03  0.56319361747E+03  0.00000000000E+00 0. -1.
        -12    1    5    5    0    0 -0.80857189598E+01 -0.19084222112E+02  0.31840584976E+03  0.31907972601E+03  0.00000000000E+00 0.  1.
          5    1    4    4  501    0 -0.57594418287E+02 -0.56550912349E+02  0.15673606693E+02  0.82330170971E+02  0.41800000000E+01 0.  1.
         -5    1    4    4    0  501 -0.23165157958E+00  0.55563863733E+02  0.27126770706E+02  0.61973629104E+02  0.41800000000E+01 0.  1.
</event>
<event>
11    1  0.8864208E-009  0.1532173E+03  0.7561462E-02  0.1093636E+00
         22   -1    0    0    0    0  0.00000000000E+00  0.00000000000E+00  0.22501662437E+04  0.22501662437E+04  0.00000000000E+00 0.  1.
         22   -1    0    0    0    0 -0.00000000000E+00 -0.00000000000E+00 -0.27500440348E+03  0.27500440348E+03  0.00000000000E+00 0.  1.
         24    2    1    2    0    0  0.89410022376E+02 -0.51388554616E+01 -0.25186926063E+03  0.27822905156E+03  0.77153877040E+02 0.  0.
         25    2    1    2    0    0 -0.47446936044E+02 -0.28546637264E+02  0.51222263071E+03  0.53017446651E+03  0.12508724670E+03 0.  0.
        -24    2    1    2    0    0 -0.41963086332E+02  0.33685492725E+02  0.17148084701E+04  0.17167671291E+04  0.61852027214E+02 0.  0.
        -11    1    3    3    0    0  0.10238097540E+03  0.32863305851E+00 -0.23447677556E+03  0.25585411938E+03  0.00000000000E+00 0.  1.
         12    1    3    3    0    0 -0.12970953027E+02 -0.54674885201E+01 -0.17392485071E+02  0.22374932181E+02  0.00000000000E+00 0. -1.
         13    1    5    5    0    0 -0.18698847231E+02  0.28918550121E+02  0.33718882235E+03  0.33894281427E+03  0.00000000000E+00 0. -1.
        -14    1    5    5    0    0 -0.23264239101E+02  0.47669426043E+01  0.13776196478E+04  0.13778243148E+04  0.00000000000E+00 0.  1.
          5    1    4    4  501    0 -0.69824601995E+02 -0.31900626980E+02  0.16328309424E+03  0.18047705203E+03  0.41800000000E+01 0.  1.
         -5    1    4    4    0  501  0.22377665951E+02  0.33539897157E+01  0.34893953647E+03  0.34969741448E+03  0.41800000000E+01 0.  1.
</event>
<event>
11    1  0.8864208E-009  0.1292295E+03  0.7561462E-02  0.1120219E+00
         22   -1    0    0    0    0  0.00000000000E+00  0.00000000000E+00  0.12166683035E+03  0.12166683035E+03  0.00000000000E+00 0.  1.
         22   -1    0    0    0    0 -0.00000000000E+00 -0.00000000000E+00 -0.10807457437E+04  0.10807457437E+04  0.00000000000E+00 0. -1.
         24    2    1    2    0    0  0.58500665832E+00  0.59559631403E+01 -0.80858372906E+03  0.81298090583E+03  0.84228799148E+02 0.  0.
         25    2    1    2    0    0 -0.69293279066E+01  0.26258712490E+02 -0.23512761476E+03  0.26771336871E+03  0.12509163439E+03 0.  0.
        -24    2    1    2    0    0  0.63443212482E+01 -0.32214675630E+02  0.84632430486E+02  0.12171829949E+03  0.81084279634E+02 0.  0.
        -11    1    3    3    0    0 -0.84499833811E+01  0.23050918367E+02 -0.70655126815E+02  0.74799024070E+02  0.00000000000E+00 0.  1.
         12    1    3    3    0    0  0.90349900395E+01 -0.17094955226E+02 -0.73792860225E+03  0.73818188176E+03  0.00000000000E+00 0. -1.
         11    1    5    5    0    0  0.38601081934E+02 -0.38604850716E+02  0.52310997279E+02  0.75609645295E+02  0.00000000000E+00 0. -1.
        -12    1    5    5    0    0 -0.32256760686E+02  0.63901750857E+01  0.32321433207E+02  0.46108654200E+02  0.00000000000E+00 0.  1.
          5    1    4    4  501    0 -0.53036933967E+02  0.46218360941E+02 -0.91495882596E+02  0.11549035538E+03  0.41800000000E+01 0.  1.
         -5    1    4    4    0  501  0.46107606061E+02 -0.19959648451E+02 -0.14363173217E+03  0.15222301333E+03  0.41800000000E+01 0.  1.
</event>
<event>
11    1  0.8864208E-009  0.1725047E+03  0.7561462E-02  0.1075872E+00
         22   -1    0    0    0    0  0.00000000000E+00  0.00000000000E+00  0.10960211801E+04  0.10960211801E+04  0.00000000000E+00 0. -1.
         22   -1    0    0    0    0 -0.00000000000E+00 -0.00000000000E+00 -0.92721556374E+02  0.92721556374E+02  0.00000000000E+00 0.  1.
        -24    2    1    2    0    0  0.48140937448E+02 -0.33090126505E+01 -0.23393978147E+02  0.96493543743E+02  0.80219862549E+02 0.  0.
         25    2    1    2    0    0 -0.12468812315E+03  0.83948560720E+02  0.34249485212E+03  0.39439200920E+03  0.12509134378E+03 0.  0.
         24    2    1    2    0    0  0.76547185707E+02 -0.80639548069E+02  0.68419874970E+03  0.69785718348E+03  0.80712521281E+02 0.  0.
        -11    1    5    5    0    0  0.10675506032E+02  0.14985693543E+02  0.53958341210E+02  0.57009122306E+02  0.00000000000E+00 0.  1.
         12    1    5    5    0    0  0.65871679675E+02 -0.95625241613E+02  0.63024040849E+03  0.64084806117E+03  0.00000000000E+00 0. -1.
         11    1    3    3    0    0  0.39931280808E+01  0.24820439345E+02 -0.34787166040E+02  0.42920230687E+02  0.00000000000E+00 0. -1.
        -12    1    3    3    0    0  0.44147809368E+02 -0.28129451995E+02  0.11393187892E+02  0.53573313057E+02  0.00000000000E+00 0.  1.
          5    1    4    4  501    0 -0.12172926479E+03  0.11267092332E+03  0.30036516588E+03  0.34314640628E+03  0.41800000000E+01 0. -1.
         -5    1    4    4    0  501 -0.29588583654E+01 -0.28722362597E+02  0.42129686240E+02  0.51245602920E+02  0.41800000000E+01 0. -1.
</event>
<event>
11    1  0.8864208E-009  0.1255907E+03  0.7561462E-02  0.1124808E+00
         22   -1    0    0    0    0  0.00000000000E+00  0.00000000000E+00  0.27721797286E+03  0.27721797286E+03  0.00000000000E+00 0. -1.
         22   -1    0    0    0    0 -0.00000000000E+00 -0.00000000000E+00 -0.53266336179E+03  0.53266336179E+03  0.00000000000E+00 0.  1.
        -24    2    1    2    0    0  0.35187452408E+01 -0.61393242393E+01 -0.29222565922E+03  0.30338465612E+03  0.81217860063E+02 0.  0.
         25    2    1    2    0    0 -0.82476675711E+01  0.23096246566E+02 -0.21081655405E+03  0.24635873705E+03  0.12509015641E+03 0.  0.
         24    2    1    2    0    0  0.47289223303E+01 -0.16956922327E+02  0.24759682434E+03  0.26013794148E+03  0.77830978773E+02 0.  0.
        -13    1    5    5    0    0  0.14466663295E+01 -0.34757434081E+02  0.23620052022E+03  0.23874852423E+03  0.00000000000E+00 0.  1.
         14    1    5    5    0    0  0.32822560008E+01  0.17800511754E+02  0.11396304115E+02  0.21389417258E+02  0.00000000000E+00 0. -1.
         11    1    3    3    0    0 -0.24145520681E+02  0.19882501044E+02 -0.56154433387E+02  0.64277837594E+02  0.00000000000E+00 0. -1.
        -12    1    3    3    0    0  0.27664265922E+02 -0.26021825283E+02 -0.23607122583E+03  0.23910681853E+03  0.00000000000E+00 0.  1.
          5    1    4    4  501    0 -0.49720607306E+02  0.81488627766E+01 -0.27062922178E+02  0.57344720003E+02  0.41800000000E+01 0.  1.
         -5    1    4    4    0  501  0.41472939735E+02  0.14947383790E+02 -0.18375363187E+03  0.18901401704E+03  0.41800000000E+01 0.  1.
</event>
<event>
11    1  0.1389392E-008  0.2228900E+03  0.7561462E-02  0.1039422E+00
         22   -1    0    0    0    0  0.00000000000E+00  0.00000000000E+00  0.12034956454E+04  0.12034956454E+04  0.00000000000E+00 0. -1.
         22   -1    0    0    0    0 -0.00000000000E+00 -0.00000000000E+00 -0.61692648544E+03  0.61692648544E+03  0.00000000000E+00 0. -1.
        -24    2    1    2    0    0 -0.79531826947E+00  0.56886562779E+02 -0.27526231165E+03  0.29265739171E+03  0.81500277034E+02 0.  0.
         25    2    1    2    0    0 -0.89896535565E+01 -0.23940076874E+03 -0.26644216354E+03  0.37951605692E+03  0.12508984372E+03 0.  0.
         24    2    1    2    0    0  0.97849718260E+01  0.18251420596E+03  0.11282736351E+04  0.11482486822E+04  0.10984743688E+03 0.  0.
        -13    1    5    5    0    0 -0.45355261710E+02  0.61110977538E+02  0.31142538168E+03  0.32058917589E+03  0.00000000000E+00 0.  1.
         14    1    5    5    0    0  0.55140233536E+02  0.12140322843E+03  0.81684825341E+03  0.82765950627E+03  0.00000000000E+00 0. -1.
         11    1    3    3    0    0 -0.73643543165E+01  0.58967630702E+02 -0.27869409958E+03  0.28495932399E+03  0.00000000000E+00 0. -1.
        -12    1    3    3    0    0  0.65690360470E+01 -0.20810679231E+01  0.34317879368E+01  0.76980677271E+01  0.00000000000E+00 0.  1.
          5    1    4    4  501    0  0.43134333289E+02 -0.10472605446E+03 -0.17513927222E+03  0.20861292928E+03  0.41800000000E+01 0.  1.
         -5    1    4    4    0  501 -0.52123986846E+02 -0.13467471428E+03 -0.91302891320E+02  0.17090312763E+03  0.41800000000E+01 0.  1.
</event>
<event>
11    1  0.8864208E-009  0.1423948E+03  0.7561462E-02  0.1104913E+00
         22   -1    0    0    0    0  0.00000000000E+00  0.00000000000E+00  0.11742901743E+03  0.11742901743E+03  0.00000000000E+00 0. -1.
         22   -1    0    0    0    0 -0.00000000000E+00 -0.00000000000E+00 -0.27600019341E+04  0.27600019341E+04  0.00000000000E+00 0. -1.
        -24    2    1    2    0    0  0.46350821466E+02  0.19089054639E+02 -0.24613502111E+04  0.24634807557E+04  0.89329623033E+02 0.  0.
         25    2    1    2    0    0  0.15110957531E+02  0.19847032066E+02 -0.25370837687E+03  0.28397774893E+03  0.12511265193E+03 0.  0.
         24    2    1    2    0    0 -0.61461778997E+02 -0.38936086705E+02  0.72485671277E+02  0.12997244688E+03  0.79656106376E+02 0.  0.
        -11    1    5    5    0    0 -0.30387817851E+02  0.23098269325E+02  0.20922395879E+02  0.43528107803E+02  0.00000000000E+00 0.  1.
         12    1    5    5    0    0 -0.31073961147E+02 -0.62034356030E+02  0.51563275397E+02  0.86444339081E+02  0.00000000000E+00 0. -1.
         13    1    3    3    0    0 -0.20539360558E+02 -0.84999295072E+01 -0.10869177494E+04  0.10871450262E+04  0.00000000000E+00 0. -1.
        -14    1    3    3    0    0  0.66890182024E+02  0.27588984146E+02 -0.13744324617E+04  0.13763357295E+04  0.00000000000E+00 0.  1.
          5    1    4    4  501    0  0.59717987592E+01 -0.46831457200E+02 -0.17002439586E+03  0.17650670059E+03  0.41800000000E+01 0. -1.
         -5    1    4    4    0  501  0.91391587718E+01  0.66678489267E+02 -0.83683981004E+02  0.10747104834E+03  0.41800000000E+01 0. -1.
</event>
<event>
11    1  0.8864208E-009  0.3233693E+03  0.7561462E-02  0.9907588E-01
         22   -1    0    0    0    0  0.00000000000E+00  0.00000000000E+00  0.60044096436E+03  0.60044096436E+03  0.00000000000E+00 0.  1.
         22   -1    0    0    0    0 -0.00000000000E+00 -0.00000000000E+00 -0.10776873024E+04  0.10776873024E+04  0.00000000000E+00 0. -1.
        -24    2    1    2    0    0 -0.36917722719E+02  0.12975815583E+03 -0.86209370711E+03  0.87614411316E+03  0.78885042542E+02 0.  0.
         25    2    1    2    0    0 -0.18679413807E+03  0.11589783615E+03 -0.41490836522E+02  0.25630868896E+03  0.12509314961E+03 0.  0.
         24    2    1    2    0    0  0.22371186079E+03 -0.24565599198E+03  0.42633820560E+03  0.54567546463E+03  0.74857091091E+02 0.  0.
        -13    1    5    5    0    0  0.10436724252E+03 -0.89987352611E+02  0.12459486830E+03  0.18577977863E+03  0.00000000000E+00 0.  1.
         14    1    5    5    0    0  0.11934461826E+03 -0.15566863937E+03  0.30174333730E+03  0.35989568599E+03  0.00000000000E+00 0. -1.
         11    1    3    3    0    0 -0.23521665409E+02  0.65569028299E+02 -0.66029206809E+03  0.66395646047E+03  0.00000000000E+00 0. -1.
        -12    1    3    3    0    0 -0.13396057310E+02  0.64189127532E+02 -0.20180163901E+03  0.21218765269E+03  0.00000000000E+00 0.  1.
          5    1    4    4  501    0 -0.68556303532E+02  0.10718082554E+03  0.84793195602E+01  0.12758161066E+03  0.41800000000E+01 0. -1.
         -5    1    4    4    0  501 -0.11823783453E+03  0.87170106126E+01 -0.49970156083E+02  0.12872707830E+03  0.41800000000E+01 0. -1.
</event>
<event>
11    1  0.8864208E-009  0.1607134E+03  0.7561462E-02  0.1086408E+00
         22   -1    0    0    0    0  0.00000000000E+00  0.00000000000E+00  0.26218201311E+03  0.26218201311E+03  0.00000000000E+00 0.  1.
         22   -1    0    0    0    0 -0.00000000000E+00 -0.00000000000E+00 -0.12021773824E+04  0.12021773824E+04  0.00000000000E+00 0. -1.
         24    2    1    2    0    0 -0.10244155666E+03  0.75234700134E+01 -0.99893860048E+03  0.10066866988E+04  0.70632194576E+02 0.  0.
         25    2    1    2    0    0  0.86800503328E+02  0.56756526391E+02 -0.15159088975E+03  0.22222282187E+03  0.12509018361E+03 0.  0.
        -24    2    1    2    0    0  0.15641053334E+02 -0.64279996405E+02  0.21053412090E+03  0.23544987487E+03  0.82069891093E+02 0.  0.
        -11    1    3    3    0    0 -0.71390173316E+02 -0.15020223475E+02 -0.40560140633E+03  0.41211001538E+03  0.00000000000E+00 0.  1.
         12    1    3    3    0    0 -0.31051383346E+02  0.22543693488E+02 -0.59333719415E+03  0.59457668344E+03  0.00000000000E+00 0. -1.
         11    1    5    5    0    0  0.25697947768E+02 -0.67575643351E+02  0.94745936458E+02  0.11917904417E+03  0.00000000000E+00 0. -1.
        -12    1    5    5    0    0 -0.10056894434E+02  0.32956469462E+01  0.11578818444E+03  0.11627083070E+03  0.00000000000E+00 0.  1.
          5    1    4    4  501    0  0.10911812925E+03  0.72738066225E+02 -0.14073623402E+03  0.19241037491E+03  0.41800000000E+01 0.  1.
         -5    1    4    4    0  501 -0.22317625921E+02 -0.15981539834E+02 -0.10854655734E+02  0.29812446953E+02  0.41800000000E+01 0.  1.
</event>
<event>
11    1  0.8864208E-009  0.4638592E+03  0.7561462E-02  0.9478115E-01
         22   -1    0    0    0    0  0.00000000000E+00  0.00000000000E+00  0.88624415478E+03  0.88624415478E+03  0.00000000000E+00 0.  1.
         22   -1    0    0    0    0 -0.00000000000E+00 -0.00000000000E+00 -0.18656100190E+04  0.18656100190E+04  0.00000000000E+00 0.  1.
         24    2    1    2    0    0  0.44192726577E+03  0.58719766119E+02 -0.11214530553E+04  0.12094641839E+04  0.79993360428E+02 0.  0.
         25    2    1    2    0    0 -0.44495817955E+03 -0.53955093505E+02 -0.62041523349E+03  0.77553869837E+03  0.12508507931E+03 0.  0.
        -24    2    1    2    0    0  0.30309137784E+01 -0.47646726142E+01  0.76250242459E+03  0.76685129149E+03  0.81357650050E+02 0.  0.
        -13    1    3    3    0    0  0.34692063376E+03  0.12250147098E+02 -0.85344970617E+03  0.92134705361E+03  0.00000000000E+00 0.  1.
         14    1    3    3    0    0  0.95006632011E+02  0.46469619020E+02 -0.26800334911E+03  0.28811713026E+03  0.00000000000E+00 0. -1.
         13    1    5    5    0    0 -0.91116925240E+01 -0.22045973824E+02  0.68631665495E+02  0.72659159169E+02  0.00000000000E+00 0. -1.
        -14    1    5    5    0    0  0.12142606302E+02  0.17281301210E+02  0.69387075909E+03  0.69419213232E+03  0.00000000000E+00 0.  1.
          5    1    4    4  501    0 -0.38050732405E+03 -0.14202746051E+02 -0.56609457816E+03  0.68225221544E+03  0.41800000000E+01 0.  1.
         -5    1    4    4    0  501 -0.64450855504E+02 -0.39752347454E+02 -0.54320655333E+02  0.93286482939E+02  0.41800000000E+01 0.  1.
</event>
<event>
11    1  0.8864208E-009  0.3177664E+03  0.7561462E-02  0.9929404E-01
         22   -1    0    0    0    0  0.00000000000E+00  0.00000000000E+00  0.62376792389E+03  0.62376792389E+03  0.00000000000E+00 0.  1.
         22   -1    0    0    0    0 -0.00000000000E+00 -0.00000000000E+00 -0.30959095277E+03  0.30959095277E+03  0.00000000000E+00 0.  1.
        -24    2    1    2    0    0  0.34433519459E+02 -0.48869577950E+02 -0.50210022568E+02  0.11224423669E+03  0.80646260878E+02 0.  0.
         25    2    1    2    0    0 -0.31143328835E+03  0.10301577324E+03 -0.28398953972E+01  0.35108360365E+03  0.12509472057E+03 0.  0.
         24    2    1    2    0    0  0.27699976889E+03 -0.54146195292E+02  0.36722688909E+03  0.47003103631E+03  0.80080613109E+02 0.  0.
        -13    1    5    5    0    0  0.17548790374E+03 -0.70852054093E+02  0.21669147298E+03  0.28769986511E+03  0.00000000000E+00 0.  1.
         14    1    5    5    0    0  0.10151186516E+03  0.16705858802E+02  0.15053541611E+03  0.18233117119E+03  0.00000000000E+00 0. -1.
         11    1    3    3    0    0  0.12398637152E+02  0.22352641427E+02 -0.92705880643E+01  0.27190266366E+02  0.00000000000E+00 0. -1.
        -12    1    3    3    0    0  0.22034882307E+02 -0.71222219377E+02 -0.40939434503E+02  0.85053970329E+02  0.00000000000E+00 0.  1.
          5    1    4    4  501    0 -0.29400570301E+03  0.58519950936E+02  0.14302150757E+02  0.30014323577E+03  0.41800000000E+01 0. -1.
         -5    1    4    4    0  501 -0.17427585340E+02  0.44495822305E+02 -0.17142046154E+02  0.50940367880E+02  0.41800000000E+01 0. -1.
</event>
<event>
11    1  0.8864208E-009  0.1353072E+03  0.7561462E-02  0.1112915E+00
         22   -1    0    0    0    0  0.00000000000E+00  0.00000000000E+00  0.62238706407E+03  0.62238706407E+03  0.00000000000E+00 0. -1.
         22   -1    0    0    0    0 -0.00000000000E+00 -0.00000000000E+00 -0.57541591112E+03  0.57541591112E+03  0.00000000000E+00 0.  1.
         24    2    1    2    0    0 -0.99534160720E+01 -0.51951316539E+02 -0.48353189408E+03  0.49385685543E+03  0.85401939608E+02 0.  0.
         25    2    1    2    0    0 -0.23890056606E+01  0.39568525953E+02 -0.32348979513E+02  0.13514868445E+03  0.12508930746E+03 0.  0.
        -24    2    1    2    0    0  0.12342421733E+02  0.12382790586E+02  0.56285202654E+03  0.56879743530E+03  0.80140188074E+02 0.  0.
        -11    1    3    3    0    0 -0.87604884106E+01 -0.31147892574E+02 -0.46453208743E+03  0.46565759697E+03  0.00000000000E+00 0.  1.
         12    1    3    3    0    0 -0.11929276614E+01 -0.20803423965E+02 -0.18999806649E+02  0.28199258462E+02  0.00000000000E+00 0. -1.
         13    1    5    5    0    0 -0.94727230170E+01  0.18323692168E+02  0.51945007550E+03  0.51985947247E+03  0.00000000000E+00 0. -1.
        -14    1    5    5    0    0  0.21815144750E+02 -0.59409015827E+01  0.43401951043E+02  0.48937962834E+02  0.00000000000E+00 0.  1.
          5    1    4    4  501    0  0.55926354571E+02  0.20641346810E+02  0.98990655858E+01  0.60574633579E+02  0.41800000000E+01 0. -1.
         -5    1    4    4    0  501 -0.58315360232E+02  0.18927179143E+02 -0.42248045099E+02  0.74574050875E+02  0.41800000000E+01 0. -1.
</event>
<event>
11    1  0.8864208E-009  0.1524172E+03  0.7561462E-02  0.1094434E+00
         22   -1    0    0    0    0  0.00000000000E+00  0.00000000000E+00  0.52444833736E+03  0.52444833736E+03  0.00000000000E+00 0. -1.
         22   -1    0    0    0    0 -0.00000000000E+00 -0.00000000000E+00 -0.41667328840E+03  0.41667328840E+03  0.00000000000E+00 0.  1.
        -24    2    1    2    0    0  0.11183414084E+02 -0.93983267453E+01 -0.34003757576E+03  0.34982187161E+03  0.80847953808E+02 0.  0.
         25    2    1    2    0    0 -0.87283242555E+02  0.48196059999E+02  0.37637570267E+02  0.16433168028E+03  0.12508832806E+03 0.  0.
         24    2    1    2    0    0  0.76099828471E+02 -0.38797733253E+02  0.41017505445E+03  0.42696807387E+03  0.82229634602E+02 0.  0.
        -11    1    5    5    0    0 -0.64847925624E+01 -0.79390648881E+01  0.34776400312E+01  0.10824752471E+02  0.00000000000E+00 0.  1.
         12    1    5    5    0    0  0.82584621033E+02 -0.30858668365E+02  0.40669741442E+03  0.41614332139E+03  0.00000000000E+00 0. -1.
         13    1    3    3    0    0 -0.52581039694E+01 -0.43189449563E+02 -0.15406607514E+03  0.16009163539E+03  0.00000000000E+00 0. -1.
        -14    1    3    3    0    0  0.16441518053E+02  0.33791122818E+02 -0.18597150061E+03  0.18973023623E+03  0.00000000000E+00 0.  1.
          5    1    4    4  501    0 -0.62604552610E+02  0.63458575763E+02  0.75188348019E+02  0.11669224877E+03  0.41800000000E+01 0.  1.
         -5    1    4    4    0  501 -0.24678689945E+02 -0.15262515764E+02 -0.37550777752E+02  0.47639431510E+02  0.41800000000E+01 0.  1.
</event>
<event>
11    1  0.8864208E-009  0.1632737E+03  0.7561462E-02  0.1084038E+00
         22   -1    0    0    0    0  0.00000000000E+00  0.00000000000E+00  0.35757907597E+02  0.35757907597E+02  0.00000000000E+00 0. -1.
         22   -1    0    0    0    0 -0.00000000000E+00 -0.00000000000E+00 -0.28407676458E+04  0.28407676458E+04  0.00000000000E+00 0. -1.
         24    2    1    2    0    0  0.67878639666E+01 -0.30554719197E+02 -0.12033542837E+04  0.12064149317E+04  0.79973680360E+02 0.  0.
         25    2    1    2    0    0 -0.11100980750E+03  0.23086323322E+02 -0.14866939201E+04  0.14962496595E+04  0.12509226875E+03 0.  0.
        -24    2    1    2    0    0  0.10422194353E+03  0.74683958751E+01 -0.11496153436E+03  0.17386096212E+03  0.78060805247E+02 0.  0.
        -11    1    3    3    0    0  0.50703681877E+01  0.16488244787E+02 -0.70382943418E+02  0.72466058082E+02  0.00000000000E+00 0.  1.
         12    1    3    3    0    0  0.17174957789E+01 -0.47042963984E+02 -0.11329713402E+04  0.11339488737E+04  0.00000000000E+00 0. -1.
         13    1    5    5    0    0  0.98483926212E+02  0.71107328958E+01 -0.53831162601E+02  0.11246083901E+03  0.00000000000E+00 0. -1.
        -14    1    5    5    0    0  0.57380173164E+01  0.35766297925E+00 -0.61130371764E+02  0.61400123107E+02  0.00000000000E+00 0.  1.
          5    1    4    4  501    0 -0.10075429606E+03  0.24637389323E+02 -0.14790861413E+04  0.14827244231E+04  0.41800000000E+01 0.  1.
         -5    1    4    4    0  501 -0.10255511440E+02 -0.15510660012E+01 -0.76077788584E+01  0.13525236404E+02  0.41800000000E+01 0.  1.
</event>
<event>
11    1  0.8864208E-009  0.1335092E+03  0.7561462E-02  0.1115031E+00
         22   -1    0    0    0    0  0.00000000000E+00  0.00000000000E+00  0.90995171487E+03  0.90995171487E+03  0.00000000000E+00 0.  1.
         22   -1    0    0    0    0 -0.00000000000E+00 -0.00000000000E+00 -0.15416590818E+03  0.15416590818E+03  0.00000000000E+00 0.  1.
        -24    2    1    2    0    0  0.26356676187E+02 -0.19129166301E+01 -0.11307647100E+03  0.14109624316E+03  0.80146914544E+02 0.  0.
         25    2    1    2    0    0 -0.24039094200E+02 -0.44975906662E+02  0.16654057272E+03  0.21443597903E+03  0.12508523697E+03 0.  0.
         24    2    1    2    0    0 -0.23175819868E+01  0.46888823292E+02  0.70232170496E+03  0.70858540087E+03  0.81446670439E+02 0.  0.
        -11    1    5    5    0    0 -0.33321617711E+02  0.29190494715E+02  0.56378895721E+03  0.56552666025E+03  0.00000000000E+00 0.  1.
         12    1    5    5    0    0  0.31004035724E+02  0.17698328577E+02  0.13853274776E+03  0.14305874062E+03  0.00000000000E+00 0. -1.
         13    1    3    3    0    0  0.51211024635E+02 -0.59311045653E+01 -0.10050342979E+03  0.11295435559E+03  0.00000000000E+00 0. -1.
        -14    1    3    3    0    0 -0.24854348448E+02  0.40181879352E+01 -0.12573041203E+02  0.28141887573E+02  0.00000000000E+00 0.  1.
          5    1    4    4  501    0  0.23703590114E+02 -0.67152678189E+02  0.51901750940E+02  0.88219082533E+02  0.41800000000E+01 0. -1.
         -5    1    4    4    0  501 -0.47742684314E+02  0.22176771528E+02  0.11463882178E+03  0.12621689649E+03  0.41800000000E+01 0. -1.
</event>
<event>
11    1  0.8864208E-009  0.1639382E+03  0.7561462E-02  0.1083431E+00
         22   -1    0    0    0    0  0.00000000000E+00  0.00000000000E+00  0.57986215954E+03  0.57986215954E+03  0.00000000000E+00 0.  1.
         22   -1    0    0    0    0 -0.00000000000E+00 -0.00000000000E+00 -0.84234592735E+03  0.84234592735E+03  0.00000000000E+00 0. -1.
         24    2    1    2    0    0  0.88143871280E+02  0.59296003687E+02 -0.71109946514E+03  0.72352090386E+03  0.80837435072E+02 0.  0.
         25    2    1    2    0    0 -0.71914162746E+02 -0.77835054856E+02 -0.66417572948E+02  0.17689649681E+03  0.12510449241E+03 0.  0.
        -24    2    1    2    0    0 -0.16229708534E+02  0.18539051170E+02  0.51503327028E+03  0.52179068622E+03  0.79994692766E+02 0.  0.
        -13    1    3    3    0    0  0.52293828191E+02 -0.11332021632E+02 -0.24922037955E+03  0.25489969942E+03  0.00000000000E+00 0.  1.
         14    1    3    3    0    0  0.35850043089E+02  0.70628025319E+02 -0.46187908559E+03  0.46862120444E+03  0.00000000000E+00 0. -1.
         13    1    5    5    0    0  0.10293969061E+01 -0.30797334397E+02  0.16134908573E+03  0.16426522130E+03  0.00000000000E+00 0. -1.
        -14    1    5    5    0    0 -0.17259105441E+02  0.49336385566E+02  0.35368418455E+03  0.35752546491E+03  0.00000000000E+00 0.  1.
          5    1    4    4  501    0 -0.29011725510E+02  0.24074371979E+02 -0.53374513251E+02  0.65479513346E+02  0.41800000000E+01 0.  1.
         -5    1    4    4    0  501 -0.42902437235E+02 -0.10190942684E+03 -0.13043059697E+02  0.11141698347E+03  0.41800000000E+01 0.  1.
</event>
<event>
11    1  0.8864208E-009  0.1664455E+03  0.7561462E-02  0.1081167E+00
         22   -1    0    0    0    0  0.00000000000E+00  0.00000000000E+00  0.69087324811E+03  0.69087324811E+03  0.00000000000E+00 0.  1.
         22   -1    0    0    0    0 -0.00000000000E+00 -0.00000000000E+00 -0.15038061534E+04  0.15038061534E+04  0.00000000000E+00 0.  1.
        -24    2    1    2    0    0 -0.44657836685E+02  0.10236266107E+03 -0.13489488772E+04  0.13557983282E+04  0.77804863514E+02 0.  0.
         25    2    1    2    0    0  0.39642084540E+02 -0.78910686904E+02 -0.10914651669E+03  0.18803904391E+03  0.12508928233E+03 0.  0.
         24    2    1    2    0    0  0.50157521447E+01 -0.23451974167E+02  0.64516248863E+03  0.65084202934E+03  0.82374495847E+02 0.  0.
        -11    1    5    5    0    0  0.20829188052E+02 -0.49714832329E+02  0.46171345233E+03  0.46484914939E+03  0.00000000000E+00 0.  1.
         12    1    5    5    0    0 -0.15813435907E+02  0.26262858162E+02  0.18344903630E+03  0.18599287995E+03  0.00000000000E+00 0. -1.
         13    1    3    3    0    0 -0.52290819197E+02  0.27371712676E+02 -0.70079456032E+03  0.70327559051E+03  0.00000000000E+00 0. -1.
        -14    1    3    3    0    0  0.76329825128E+01  0.74990948395E+02 -0.64815431689E+03  0.65252273774E+03  0.00000000000E+00 0.  1.
          5    1    4    4  501    0  0.32649256840E+02 -0.11319339157E+03 -0.84215569159E+02  0.14487391883E+03  0.41800000000E+01 0.  1.
         -5    1    4    4    0  501  0.69928276995E+01  0.34282704667E+02 -0.24930947528E+02  0.43165125080E+02  0.41800000000E+01 0.  1.
</event>
<event>
11    1  0.8864208E-009  0.2529603E+03  0.7561462E-02  0.1022334E+00
         22   -1    0    0    0    0  0.00000000000E+00  0.00000000000E+00  0.93244244132E+02  0.93244244132E+02  0.00000000000E+00 0.  1.
         22   -1    0    0    0    0 -0.00000000000E+00 -0.00000000000E+00 -0.40935244405E+04  0.40935244405E+04  0.00000000000E+00 0.  1.
        -24    2    1    2    0    0 -0.31406193383E+02  0.29507234162E+02 -0.29348154458E+04  0.29362459745E+04  0.80880751162E+02 0.  0.
         25    2    1    2    0    0 -0.16750805939E+03 -0.12836313250E+03 -0.96120430158E+03  0.99201663108E+03  0.12508894120E+03 0.  0.
         24    2    1    2    0    0  0.19891425277E+03  0.98855898341E+02 -0.10426044898E+03  0.25850607906E+03  0.81337464310E+02 0.  0.
        -11    1    5    5    0    0  0.11500839423E+03  0.15762893488E+02 -0.33414707308E+02  0.12079711180E+03  0.00000000000E+00 0.  1.
         12    1    5    5    0    0  0.83905858542E+02  0.83093004853E+02 -0.70845741670E+02  0.13770896727E+03  0.00000000000E+00 0. -1.
         11    1    3    3    0    0  0.79561498389E+01 -0.21829514655E+02 -0.46130534642E+03  0.46189008505E+03  0.00000000000E+00 0. -1.
        -12    1    3    3    0    0 -0.39362343222E+02  0.51336748817E+02 -0.24735100994E+04  0.24743558894E+04  0.00000000000E+00 0.  1.
          5    1    4    4  501    0 -0.78462078301E+02 -0.19617015317E+02 -0.16866827458E+03  0.18710313806E+03  0.41800000000E+01 0.  1.
         -5    1    4    4    0  501 -0.89045981085E+02 -0.10874611719E+03 -0.79253602700E+03  0.80491349302E+03  0.41800000000E+01 0.  1.
</event>
<event>
11    1  0.8864208E-009  0.1931926E+03  0.7561462E-02  0.1059445E+00
         22   -1    0    0    0    0  0.00000000000E+00  0.00000000000E+00  0.28228589837E+04  0.28228589837E+04  0.00000000000E+00 0. -1.
         22   -1    0    0    0    0 -0.00000000000E+00 -0.00000000000E+00 -0.16350730346E+03  0.16350730346E+03  0.00000000000E+00 0. -1.
         24    2    1    2    0    0 -0.79087895586E+02 -0.12295624032E+03 -0.10160546712E+03  0.19534930252E+03  0.80402405331E+02 0.  0.
         25    2    1    2    0    0  0.19529442070E+02  0.18694401665E+03  0.96622824925E+03  0.99225618139E+03  0.12508331375E+03 0.  0.
        -24    2    1    2    0    0  0.59558453517E+02 -0.63987776333E+02  0.17947288981E+04  0.17987608032E+04  0.82746387948E+02 0.  0.
        -13    1    3    3    0    0 -0.20020923761E+02  0.43910247831E+01  0.24043428625E+01  0.20637329079E+02  0.00000000000E+00 0.  1.
         14    1    3    3    0    0 -0.59066971825E+02 -0.12734726510E+03 -0.10400980998E+03  0.17471197344E+03  0.00000000000E+00 0. -1.
         13    1    5    5    0    0  0.63361291374E+02 -0.52449430293E+02  0.85367211095E+03  0.85762559955E+03  0.00000000000E+00 0. -1.
        -14    1    5    5    0    0 -0.38028378574E+01 -0.11538346039E+02  0.94105678713E+03  0.94113520368E+03  0.00000000000E+00 0.  1.
          5    1    4    4  501    0 -0.33637450584E+02  0.62451284311E+02  0.16482253558E+03  0.17948699571E+03  0.41800000000E+01 0. -1.
         -5    1    4    4    0  501  0.53166892653E+02  0.12449273234E+03  0.80140571367E+03  0.81276918567E+03  0.41800000000E+01 0. -1.
</event>
<event>
11    1  0.8864208E-009  0.1640586E+03  0.7561462E-02  0.1083321E+00
         22   -1    0    0    0    0  0.00000000000E+00  0.00000000000E+00  0.61261860839E+03  0.61261860839E+03  0.00000000000E+00 0.  1.
         22   -1    0    0    0    0 -0.00000000000E+00 -0.00000000000E+00 -0.13507702515E+03  0.13507702515E+03  0.00000000000E+00 0.  1.
         24    2    1    2    0    0 -0.20491951794E+02 -0.95341458886E+02 -0.42875846862E+02  0.13380653768E+03  0.80968743425E+02 0.  0.
         25    2    1    2    0    0  0.20993628497E+02  0.17209687290E+03  0.31853171939E+03  0.38362477217E+03  0.12508974166E+03 0.  0.
        -24    2    1    2    0    0 -0.50167670319E+00 -0.76755414014E+02  0.20188571072E+03  0.23026432368E+03  0.79825893717E+02 0.  0.
        -13    1    3    3    0    0  0.25029025464E+01 -0.10258833520E+03 -0.35704097503E+02  0.10865272025E+03  0.00000000000E+00 0.  1.
         14    1    3    3    0    0 -0.22994854341E+02  0.72468763126E+01 -0.71717493593E+01  0.25153817430E+02  0.00000000000E+00 0. -1.
         13    1    5    5    0    0 -0.18902311019E+02  0.90169007321E+01  0.58909609032E+02  0.62521547462E+02  0.00000000000E+00 0. -1.
        -14    1    5    5    0    0  0.18400634316E+02 -0.85772314746E+02  0.14297610169E+03  0.16774277622E+03  0.00000000000E+00 0.  1.
          5    1    4    4  501    0 -0.42791629642E+02  0.10232940637E+03  0.11863003303E+03  0.16245918907E+03  0.41800000000E+01 0. -1.
         -5    1    4    4    0  501  0.63785258139E+02  0.69767466530E+02  0.19990168636E+03  0.22116558310E+03  0.41800000000E+01 0. -1.
</event>
<event>
11    1  0.8864208E-009  0.2976049E+03  0.7561462E-02  0.1001210E+00
         22   -1    0    0    0    0  0.00000000000E+00  0.00000000000E+00  0.33848051418E+03  0.33848051418E+03  0.00000000000E+00 0.  1.
         22   -1    0    0    0    0 -0.00000000000E+00 -0.00000000000E+00 -0.15187885236E+04  0.15187885236E+04  0.00000000000E+00 0. -1.
         24    2    1    2    0    0 -0.22133816363E+02  0.25368239559E+03 -0.10826640198E+04  0.11150733969E+04  0.79891408831E+02 0.  0.
         25    2    1    2    0    0  0.58724912379E+00 -0.35489998628E+03 -0.31295869966E+03  0.48943209585E+03  0.12508510555E+03 0.  0.
        -24    2    1    2    0    0  0.21546567239E+02  0.10121759068E+03  0.21531471005E+03  0.25276354495E+03  0.82581656982E+02 0.  0.
        -13    1    3    3    0    0 -0.17152251603E+02  0.12507075586E+03 -0.37169528210E+03  0.39254843834E+03  0.00000000000E+00 0.  1.
         14    1    3    3    0    0 -0.49815647598E+01  0.12861163973E+03 -0.71096873766E+03  0.72252495860E+03  0.00000000000E+00 0. -1.
         13    1    5    5    0    0 -0.13219581390E+02 -0.80663667355E+00  0.15144073619E+01  0.13330469778E+02  0.00000000000E+00 0. -1.
        -14    1    5    5    0    0  0.34766148629E+02  0.10202422736E+03  0.21380030269E+03  0.23943307518E+03  0.00000000000E+00 0.  1.
          5    1    4    4  501    0 -0.22107435425E+02 -0.35012115554E+03 -0.30397761689E+03  0.46421269503E+03  0.41800000000E+01 0.  1.
         -5    1    4    4    0  501  0.22694684548E+02 -0.47788307395E+01 -0.89810827752E+01  0.25219400822E+02  0.41800000000E+01 0.  1.
</event>
<event>
11    1  0.8864208E-009  0.2301072E+03  0.7561462E-02  0.1035065E+00
         22   -1    0    0    0    0  0.00000000000E+00  0.00000000000E+00  0.12494342378E+04  0.12494342378E+04  0.00000000000E+00 0.  1.
         22   -1    0    0    0    0 -0.00000000000E+00 -0.00000000000E+00 -0.98635623932E+03  0.98635623932E+03  0.00000000000E+00 0.  1.
        -24    2    1    2    0    0 -0.31652210220E+01  0.40936550917E+02 -0.93228997221E+03  0.93660443649E+03  0.79858990439E+02 0.  0.
         25    2    1    2    0    0  0.48722272013E+02  0.15607244166E+03  0.22594892899E+03  0.30566818732E+03  0.12509058873E+03 0.  0.
         24    2    1    2    0    0 -0.45557050991E+02 -0.19700899258E+03  0.96941904174E+03  0.99351785335E+03  0.80102798808E+02 0.  0.
        -11    1    5    5    0    0  0.20287972719E+02 -0.86227642577E+02  0.38542092484E+03  0.39546946467E+03  0.00000000000E+00 0.  1.
         12    1    5    5    0    0 -0.65845023710E+02 -0.11078135000E+03  0.58399811690E+03  0.59804838868E+03  0.00000000000E+00 0. -1.
         11    1    3    3    0    0  0.36536051379E+02  0.12041672907E+02 -0.30947130295E+03  0.31185312614E+03  0.00000000000E+00 0. -1.
        -12    1    3    3    0    0 -0.39701272401E+02  0.28894878010E+02 -0.62281866926E+03  0.62475131035E+03  0.00000000000E+00 0.  1.
          5    1    4    4  501    0  0.58869551168E+02  0.10432762602E+03  0.65219564342E+02  0.13645857093E+03  0.41800000000E+01 0.  1.
         -5    1    4    4    0  501 -0.10147279155E+02  0.51744815642E+02  0.16072936464E+03  0.16920961639E+03  0.41800000000E+01 0.  1.
</event>
<event>
11    1  0.8864208E-009  0.1953485E+03  0.7561462E-02  0.1057863E+00
         22   -1    0    0    0    0  0.00000000000E+00  0.00000000000E+00  0.15227625676E+04  0.15227625676E+04  0.00000000000E+00 0. -1.
         22   -1    0    0    0    0 -0.00000000000E+00 -0.00000000000E+00 -0.16786565362E+03  0.16786565362E+03  0.00000000000E+00 0.  1.
         24    2    1    2    0    0 -0.64849414716E+02 -0.44357687019E+02 -0.10412952567E+03  0.15435688922E+03  0.82522967403E+02 0.  0.
         25    2    1    2    0    0  0.11796580854E+03  0.17309815899E+03  0.42715470345E+03  0.49192138504E+03  0.12508638515E+03 0.  0.
        -24    2    1    2    0    0 -0.53116393829E+02 -0.12874047197E+03  0.10318717362E+04  0.10443499470E+04  0.80697405928E+02 0.  0.
        -11    1    3    3    0    0 -0.41068705165E+02  0.12779875447E+02 -0.73839854301E+02  0.85453424996E+02  0.00000000000E+00 0.  1.
         12    1    3    3    0    0 -0.23780709551E+02 -0.57137562466E+02 -0.30289671364E+02  0.68903464228E+02  0.00000000000E+00 0. -1.
         13    1    5    5    0    0 -0.42350091886E+02 -0.13692602423E+02  0.33894360545E+03  0.34185345591E+03  0.00000000000E+00 0. -1.
        -14    1    5    5    0    0 -0.10766301943E+02 -0.11504786955E+03  0.69292813075E+03  0.70249649105E+03  0.00000000000E+00 0.  1.
          5    1    4    4  501    0  0.66165558985E+01  0.18355842435E+02 -0.41164893310E+01  0.20374828781E+02  0.41800000000E+01 0.  1.
         -5    1    4    4    0  501  0.11134925265E+03  0.15474231655E+03  0.43127119278E+03  0.47154655626E+03  0.41800000000E+01 0.  1.
</event>
<event>
11    1  0.8864208E-009  0.3335400E+03  0.7561462E-02  0.9869174E-01
         22   -1    0    0    0    0  0.00000000000E+00  0.00000000000E+00  0.15959284481E+04  0.15959284481E+04  0.00000000000E+00 0.  1.
         22   -1    0    0    0    0 -0.00000000000E+00 -0.00000000000E+00 -0.16123081614E+04  0.16123081614E+04  0.00000000000E+00 0. -1.
         24    2    1    2    0    0  0.25024476063E+02 -0.37179200099E+02 -0.15246231487E+04  0.15274157727E+04  0.80713566893E+02 0.  0.
         25    2    1    2    0    0  0.42684188776E+02  0.33070695153E+03  0.42998446782E+03  0.55832174019E+03  0.12508994858E+03 0.  0.
        -24    2    1    2    0    0 -0.67708664839E+02 -0.29352775143E+03  0.10782589675E+04  0.11224990966E+04  0.81356111200E+02 0.  0.
        -11    1    3    3    0    0  0.41385627392E+02 -0.45187200850E+01 -0.39215715437E+03  0.39436077735E+03  0.00000000000E+00 0.  1.
         12    1    3    3    0    0 -0.16361151329E+02 -0.32660480014E+02 -0.11324659943E+04  0.11330549953E+04  0.00000000000E+00 0. -1.
         13    1    5    5    0    0 -0.45975928016E+02 -0.52670334887E+02  0.22255022856E+03  0.23327356122E+03  0.00000000000E+00 0. -1.
        -14    1    5    5    0    0 -0.21732736823E+02 -0.24085741654E+03  0.85570873893E+03  0.88922553541E+03  0.00000000000E+00 0.  1.
          5    1    4    4  501    0  0.67415876039E+01  0.26779204809E+03  0.39616872048E+03  0.47825219028E+03  0.41800000000E+01 0.  1.
         -5    1    4    4    0  501  0.35942601172E+02  0.62914903434E+02  0.33815747342E+02  0.80069549901E+02  0.41800000000E+01 0.  1.
</event>
<event>
11    1  0.8864208E-009  0.1407882E+03  0.7561462E-02  0.1106681E+00
         22   -1    0    0    0    0  0.00000000000E+00  0.00000000000E+00  0.62352633389E+03  0.62352633389E+03  0.00000000000E+00 0. -1.
         22   -1    0    0    0    0 -0.00000000000E+00 -0.00000000000E+00 -0.46576898709E+03  0.46576898709E+03  0.00000000000E+00 0.  1.
        -24    2    1    2    0    0  0.14069262864E+01 -0.65151673022E+02 -0.38440684929E+03  0.39788231210E+03  0.79340963954E+02 0.  0.
         25    2    1    2    0    0  0.49767673422E+00  0.59052228726E+02 -0.48791646869E+01  0.13841541074E+03  0.12509039245E+03 0.  0.
         24    2    1    2    0    0 -0.19046030206E+01  0.60994442955E+01  0.54704336078E+03  0.55299759813E+03  0.80678833816E+02 0.  0.
        -13    1    5    5    0    0 -0.25377949700E+02  0.23297931111E+02  0.45855563774E+03  0.45984791706E+03  0.00000000000E+00 0.  1.
         14    1    5    5    0    0  0.23473346680E+02 -0.17198486816E+02  0.88487723044E+02  0.93149681065E+02  0.00000000000E+00 0. -1.
         11    1    3    3    0    0 -0.38597860809E+02 -0.38677169075E+02 -0.21143514226E+03  0.21838163304E+03  0.00000000000E+00 0. -1.
        -12    1    3    3    0    0  0.40004787096E+02 -0.26474503947E+02 -0.17297170704E+03  0.17950067907E+03  0.00000000000E+00 0.  1.
          5    1    4    4  501    0 -0.13750107934E+02 -0.12001456964E+02  0.46071070748E+02  0.49730437333E+02  0.41800000000E+01 0. -1.
         -5    1    4    4    0  501  0.14247784669E+02  0.71053685691E+02 -0.50950235435E+02  0.88684973412E+02  0.41800000000E+01 0. -1.
</event>
<event>
11    1  0.8864208E-009  0.1970138E+03  0.7561462E-02  0.1056656E+00
         22   -1    0    0    0    0  0.00000000000E+00  0.00000000000E+00  0.17538533538E+04  0.17538533538E+04  0.00000000000E+00 0. -1.
         22   -1    0    0    0    0 -0.00000000000E+00 -0.00000000000E+00 -0.99441253613E+03  0.99441253613E+03  0.00000000000E+00 0. -1.
         24    2    1    2    0    0  0.52471099761E+02  0.98868417102E+02 -0.94258267030E+03  0.95307586233E+03  0.85809840903E+02 0.  0.
         25    2    1    2    0    0 -0.33398083341E+02  0.63648713385E+02  0.84088632007E+02  0.16698976666E+03  0.12509233969E+03 0.  0.
        -24    2    1    2    0    0 -0.19073016420E+02 -0.16251713049E+03  0.16179348560E+04  0.16282002610E+04  0.80915350641E+02 0.  0.
        -13    1    3    3    0    0 -0.15424328374E+02 -0.47839557549E+01 -0.77545653391E+02  0.79209371278E+02  0.00000000000E+00 0.  1.
         14    1    3    3    0    0  0.67895428134E+02  0.10365237286E+03 -0.86503701691E+03  0.87386649105E+03  0.00000000000E+00 0. -1.
         11    1    5    5    0    0 -0.37589942584E+02 -0.15838839124E+03  0.14900384961E+04  0.14989044687E+04  0.00000000000E+00 0. -1.
        -12    1    5    5    0    0  0.18516926164E+02 -0.41287392495E+01  0.12789635983E+03  0.12929579227E+03  0.00000000000E+00 0.  1.
          5    1    4    4  501    0  0.98335533252E+01 -0.91466571539E+01  0.80950875695E+02  0.82163719389E+02  0.41800000000E+01 0. -1.
         -5    1    4    4    0  501 -0.43231636666E+02  0.72795370539E+02  0.31377563129E+01  0.84826047270E+02  0.41800000000E+01 0. -1.
</event>
<event>
11    1  0.9245007E-009  0.9775880E+03  0.7561462E-02  0.8700628E-01
         22   -1    0    0    0    0  0.00000000000E+00  0.00000000000E+00  0.99624167266E+03  0.99624167266E+03  0.00000000000E+00 0. -1.
         22   -1    0    0    0    0 -0.00000000000E+00 -0.00000000000E+00 -0.13394295108E+04  0.13394295108E+04  0.00000000000E+00 0. -1.
        -24    2    1    2    0    0  0.17143239767E+03  0.44313913055E+02 -0.18871860339E+03  0.27163845521E+03  0.82582983868E+02 0.  0.
         25    2    1    2    0    0 -0.28273017439E+02 -0.99494583315E+03 -0.38115764436E+03  0.10731477359E+04  0.12509332071E+03 0.  0.
         24    2    1    2    0    0 -0.14315938023E+03  0.95063192009E+03  0.22668840963E+03  0.99088499229E+03  0.79181924937E+02 0.  0.
        -13    1    5    5    0    0 -0.92639991166E+00  0.23139858027E+03  0.50359579105E+02  0.23681690897E+03  0.00000000000E+00 0.  1.
         14    1    5    5    0    0 -0.14223298032E+03  0.71923333982E+03  0.17632883053E+03  0.75406808332E+03  0.00000000000E+00 0. -1.
         11    1    3    3    0    0  0.16810177552E+03  0.52189093496E+02 -0.14781394537E+03  0.22984967013E+03  0.00000000000E+00 0. -1.
        -12    1    3    3    0    0  0.33306221468E+01 -0.78751804404E+01 -0.40904658023E+02  0.41788785084E+02  0.00000000000E+00 0.  1.
          5    1    4    4  501    0 -0.17486755135E+02 -0.72537919517E+03 -0.33583861019E+03  0.79955350533E+03  0.41800000000E+01 0.  1.
         -5    1    4    4    0  501 -0.10786262304E+02 -0.26956663798E+03 -0.45319034169E+02  0.27359423061E+03  0.41800000000E+01 0.  1.
</event>
<event>
11    1  0.8864208E-009  0.2005317E+03  0.7561462E-02  0.1054148E+00
         22   -1    0    0    0    0  0.00000000000E+00  0.00000000000E+00  0.86426340660E+03  0.86426340660E+03  0.00000000000E+00 0. -1.
         22   -1    0    0    0    0 -0.00000000000E+00 -0.00000000000E+00 -0.40482883794E+04  0.40482883794E+04  0.00000000000E+00 0.  1.
        -24    2    1    2    0    0  0.68085834873E+02 -0.14367714141E+03 -0.33957535087E+04  0.34002522721E+04  0.72765512834E+02 0.  0.
         25    2    1    2    0    0 -0.17852829635E+02  0.14769273776E+03 -0.63303247015E+03  0.66220135660E+03  0.12509460462E+03 0.  0.
         24    2    1    2    0    0 -0.50233005238E+02 -0.40155963543E+01  0.84476100608E+03  0.85009815733E+03  0.80661266261E+02 0.  0.
        -13    1    5    5    0    0 -0.62581306619E+02 -0.17372726291E+02  0.42412852369E+03  0.42907253019E+03  0.00000000000E+00 0.  1.
         14    1    5    5    0    0  0.12348301381E+02  0.13357129937E+02  0.42063248238E+03  0.42102562713E+03  0.00000000000E+00 0. -1.
         13    1    3    3    0    0 -0.40979385772E+01 -0.38899951599E+02 -0.43146861542E+03  0.43323800091E+03  0.00000000000E+00 0. -1.
        -14    1    3    3    0    0  0.72183773450E+02 -0.10477718981E+03 -0.29642848933E+04  0.29670142712E+04  0.00000000000E+00 0.  1.
          5    1    4    4  501    0 -0.39544428592E+02  0.15257441697E+03 -0.43152600034E+03  0.45942885839E+03  0.41800000000E+01 0. -1.
         -5    1    4    4    0  501  0.21691598957E+02 -0.48816792136E+01 -0.20150646981E+03  0.20277249821E+03  0.41800000000E+01 0. -1.
</event>
<event>
11    1  0.8864208E-009  0.2016243E+03  0.7561462E-02  0.1053381E+00
         22   -1    0    0    0    0  0.00000000000E+00  0.00000000000E+00  0.33682909420E+03  0.33682909420E+03  0.00000000000E+00 0. -1.
         22   -1    0    0    0    0 -0.00000000000E+00 -0.00000000000E+00 -0.12289327506E+04  0.12289327506E+04  0.00000000000E+00 0.  1.
         24    2    1    2    0    0 -0.15711299109E+03  0.40556929576E+01 -0.11387937034E+04  0.11523379938E+04  0.79566402367E+02 0.  0.
         25    2    1    2    0    0  0.18621653752E+03 -0.52799363798E+02  0.14403290246E+03  0.27176661696E+03  0.12508895013E+03 0.  0.
        -24    2    1    2    0    0 -0.29103546423E+02  0.48743670840E+02  0.10265714455E+03  0.14165723405E+03  0.79406049952E+02 0.  0.
        -13    1    3    3    0    0 -0.73375209634E+02 -0.35369243839E+02 -0.44441558303E+03  0.45181867518E+03  0.00000000000E+00 0.  1.
         14    1    3    3    0    0 -0.83737781458E+02  0.39424936797E+02 -0.69437812038E+03  0.70051931861E+03  0.00000000000E+00 0. -1.
         13    1    5    5    0    0 -0.49202504604E+02  0.14967345985E+02  0.83172901618E+02  0.97788749193E+02  0.00000000000E+00 0. -1.
        -14    1    5    5    0    0  0.20098958181E+02  0.33776324855E+02  0.19484242931E+02  0.43868484852E+02  0.00000000000E+00 0.  1.
          5    1    4    4  501    0  0.85506788952E+02 -0.76394936611E+02  0.31764374225E+02  0.11905479901E+03  0.41800000000E+01 0.  1.
         -5    1    4    4    0  501  0.10070974856E+03  0.23595572813E+02  0.11226852823E+03  0.15271181796E+03  0.41800000000E+01 0.  1.
</event>
<event>
11    1  0.8864208E-009  0.1692737E+03  0.7561462E-02  0.1078665E+00
         22   -1    0    0    0    0  0.00000000000E+00  0.00000000000E+00  0.13614199125E+04  0.13614199125E+04  0.00000000000E+00 0. -1.
         22   -1    0    0    0    0 -0.00000000000E+00 -0.00000000000E+00 -0.18285273535E+03  0.18285273535E+03  0.00000000000E+00 0. -1.
         24    2    1    2    0    0  0.21611488887E+02  0.11253446813E+03 -0.14266740454E+03  0.19896271004E+03  0.78109594168E+02 0.  0.
         25    2    1    2    0    0 -0.36593469795E+02 -0.94605005843E+02  0.72401564055E+03  0.74171080511E+03  0.12508829480E+03 0.  0.
        -24    2    1    2    0    0  0.14981980908E+02 -0.17929462286E+02  0.59721894113E+03  0.60359913269E+03  0.84353565235E+02 0.  0.
        -13    1    3    3    0    0  0.27685953286E+02  0.33779907055E+01 -0.18220565776E+02  0.33315339527E+02  0.00000000000E+00 0.  1.
         14    1    3    3    0    0 -0.60744643988E+01  0.10915647742E+03 -0.12444683876E+03  0.16564737052E+03  0.00000000000E+00 0. -1.
         13    1    5    5    0    0  0.42783279998E+01  0.33989740830E+02  0.25755902866E+03  0.25982736541E+03  0.00000000000E+00 0. -1.
        -14    1    5    5    0    0  0.10703652908E+02 -0.51919203116E+02  0.33965991247E+03  0.34377176728E+03  0.00000000000E+00 0.  1.
          5    1    4    4  501    0 -0.67235911709E+02 -0.92115845790E+02  0.66798738532E+03  0.67766556370E+03  0.41800000000E+01 0. -1.
         -5    1    4    4    0  501  0.30642441914E+02 -0.24891600523E+01  0.56028255225E+02  0.64045241414E+02  0.41800000000E+01 0. -1.
</event>
<event>
11    1  0.8864208E-009  0.2714470E+03  0.7561462E-02  0.1013056E+00
         22   -1    0    0    0    0  0.00000000000E+00  0.00000000000E+00  0.16342919333E+04  0.16342919333E+04  0.00000000000E+00 0. -1.
         22   -1    0    0    0    0 -0.00000000000E+00 -0.00000000000E+00 -0.12286619390E+04  0.12286619390E+04  0.00000000000E+00 0.  1.
         24    2    1    2    0    0  0.17246488668E+03 -0.69546955123E+01 -0.54981277127E+03  0.58197126326E+03  0.81264770218E+02 0.  0.
         25    2    1    2    0    0 -0.40250929470E+03  0.69187281039E+02 -0.58266919478E+03  0.72246252380E+03  0.12509234817E+03 0.  0.
        -24    2    1    2    0    0  0.23004440802E+03 -0.62232585526E+02  0.15381119603E+04  0.15585200853E+04  0.80019555975E+02 0.  0.
        -13    1    3    3    0    0  0.83377159711E+02  0.37243683202E+02 -0.25989656616E+03  0.27547244472E+03  0.00000000000E+00 0.  1.
         14    1    3    3    0    0  0.89087726967E+02 -0.44198378715E+02 -0.28991620511E+03  0.30649881854E+03  0.00000000000E+00 0. -1.
         11    1    5    5    0    0  0.15453642748E+03 -0.10973749368E+02  0.11123304470E+04  0.11230676534E+04  0.00000000000E+00 0. -1.
        -12    1    5    5    0    0  0.75507980546E+02 -0.51258836159E+02  0.42578151330E+03  0.43545243193E+03  0.00000000000E+00 0.  1.
          5    1    4    4  501    0 -0.18866645359E+03  0.81075553139E+01 -0.17220411834E+03  0.25560221818E+03  0.41800000000E+01 0. -1.
         -5    1    4    4    0  501 -0.21384284111E+03  0.61079725725E+02 -0.41046507644E+03  0.46686030562E+03  0.41800000000E+01 0. -1.
</event>
<event>
11    1  0.8864208E-009  0.2189838E+03  0.7561462E-02  0.1041856E+00
         22   -1    0    0    0    0  0.00000000000E+00  0.00000000000E+00  0.93973956152E+03  0.93973956152E+03  0.00000000000E+00 0. -1.
         22   -1    0    0    0    0 -0.00000000000E+00 -0.00000000000E+00 -0.39049867382E+03  0.39049867382E+03  0.00000000000E+00 0. -1.
        -24    2    1    2    0    0 -0.26850273086E+01 -0.37365729219E+02 -0.23982303080E+03  0.25554301409E+03  0.79898303227E+02 0.  0.
         25    2    1    2    0    0 -0.64274010690E+02  0.20109386156E+03 -0.15545502164E+02  0.24588348035E+03  0.12508850331E+03 0.  0.
         24    2    1    2    0    0  0.66959037998E+02 -0.16372813234E+03  0.80460942067E+03  0.82881174090E+03  0.90786386337E+02 0.  0.
        -13    1    5    5    0    0  0.65837509079E+02 -0.49104798404E+02  0.27845284611E+03  0.29031335887E+03  0.00000000000E+00 0.  1.
         14    1    5    5    0    0  0.11215289188E+01 -0.11462333394E+03  0.52615657455E+03  0.53849838204E+03  0.00000000000E+00 0. -1.
         13    1    3    3    0    0  0.38528895326E+01 -0.61182584454E+02 -0.14234263558E+03  0.15498251290E+03  0.00000000000E+00 0. -1.
        -14    1    3    3    0    0 -0.65379168412E+01  0.23816855236E+02 -0.97480395213E+02  0.10056050120E+03  0.00000000000E+00 0.  1.
          5    1    4    4  501    0  0.23349106943E+02  0.12072245547E+03  0.12452616902E+02  0.12365933898E+03  0.41800000000E+01 0.  1.
         -5    1    4    4    0  501 -0.87623117632E+02  0.80371406088E+02 -0.27998119066E+02  0.12222414136E+03  0.41800000000E+01 0.  1.
</event>
<event>
11    1  0.8864208E-009  0.1486939E+03  0.7561462E-02  0.1098221E+00
         22   -1    0    0    0    0  0.00000000000E+00  0.00000000000E+00  0.34392565205E+03  0.34392565205E+03  0.00000000000E+00 0.  1.
         22   -1    0    0    0    0 -0.00000000000E+00 -0.00000000000E+00 -0.63697532846E+03  0.63697532846E+03  0.00000000000E+00 0. -1.
         24    2    1    2    0    0 -0.59867376287E+02  0.13105139804E+02 -0.35274386496E+03  0.36700165060E+03  0.80660584178E+02 0.  0.
         25    2    1    2    0    0  0.89649059110E+02  0.61116577760E+02 -0.24090794459E+03  0.29232891968E+03  0.12508944656E+03 0.  0.
        -24    2    1    2    0    0 -0.29781682823E+02 -0.74221717564E+02  0.30060213314E+03  0.32157041024E+03  0.81547987731E+02 0.  0.
        -13    1    3    3    0    0  0.17048502644E+02 -0.58752410783E+01 -0.33173636934E+02  0.37757914237E+02  0.00000000000E+00 0.  1.
         14    1    3    3    0    0 -0.76915878931E+02  0.18980380883E+02 -0.31957022803E+03  0.32924373636E+03  0.00000000000E+00 0. -1.
         11    1    5    5    0    0  0.21679643658E+02 -0.19057485586E+01  0.32129312993E+02  0.38806334278E+02  0.00000000000E+00 0. -1.
        -12    1    5    5    0    0 -0.51461326481E+02 -0.72315969006E+02  0.26847282015E+03  0.28276407596E+03  0.00000000000E+00 0.  1.
          5    1    4    4  501    0  0.93316759978E+02  0.16964619300E+01 -0.88644868189E+02  0.12878773518E+03  0.41800000000E+01 0. -1.
         -5    1    4    4    0  501 -0.36677008683E+01  0.59420115830E+02 -0.15226307640E+03  0.16354118451E+03  0.41800000000E+01 0. -1.
</event>
<event>
11    1  0.8864208E-009  0.1316216E+03  0.7561462E-02  0.1117292E+00
         22   -1    0    0    0    0  0.00000000000E+00  0.00000000000E+00  0.81584913245E+03  0.81584913245E+03  0.00000000000E+00 0.  1.
         22   -1    0    0    0    0 -0.00000000000E+00 -0.00000000000E+00 -0.81768495146E+02  0.81768495146E+02  0.00000000000E+00 0. -1.
        -24    2    1    2    0    0  0.40294172174E+02  0.68371106095E+00  0.52951715812E+00  0.89198065582E+02  0.79573404748E+02 0.  0.
         25    2    1    2    0    0 -0.41354532686E+02  0.23398251714E+02  0.94542061876E+02  0.16384109486E+03  0.12509207546E+03 0.  0.
         24    2    1    2    0    0  0.10603605120E+01 -0.24081962775E+02  0.63900905827E+03  0.64457846715E+03  0.81041708243E+02 0.  0.
        -13    1    5    5    0    0  0.38938664124E+02 -0.21011789092E+02  0.41694632811E+03  0.41928743765E+03  0.00000000000E+00 0.  1.
         14    1    5    5    0    0 -0.37878303612E+02 -0.30701736825E+01  0.22206273015E+03  0.22529102950E+03  0.00000000000E+00 0. -1.
         13    1    3    3    0    0  0.45414383841E+02  0.22085270463E+02 -0.24281766854E+02  0.56034182716E+02  0.00000000000E+00 0. -1.
        -14    1    3    3    0    0 -0.51202116676E+01 -0.21401559402E+02  0.24811284012E+02  0.33163882866E+02  0.00000000000E+00 0.  1.
          5    1    4    4  501    0 -0.58177754109E+02  0.21665126812E+02  0.11872207148E+03  0.13403891767E+03  0.41800000000E+01 0.  1.
         -5    1    4    4    0  501  0.16823221423E+02  0.17331249016E+01 -0.24180009602E+02  0.29802177192E+02  0.41800000000E+01 0.  1.
</event>
<event>
11    1  0.8864208E-009  0.5479864E+03  0.7561462E-02  0.9292256E-01
         22   -1    0    0    0    0  0.00000000000E+00  0.00000000000E+00  0.23066765008E+03  0.23066765008E+03  0.00000000000E+00 0.  1.
         22   -1    0    0    0    0 -0.00000000000E+00 -0.00000000000E+00 -0.41038813663E+04  0.41038813663E+04  0.00000000000E+00 0.  1.
         24    2    1    2    0    0  0.44029330557E+02  0.22660814466E+02 -0.92063572884E+03  0.92538013649E+03  0.79411317419E+02 0.  0.
         25    2    1    2    0    0 -0.87463095870E+02  0.51122572834E+03 -0.27945864256E+04  0.28450594676E+04  0.12509414812E+03 0.  0.
        -24    2    1    2    0    0  0.43433765313E+02 -0.53388654281E+03 -0.15799156178E+03  0.56410941224E+03  0.79603786503E+02 0.  0.
        -13    1    3    3    0    0 -0.17801864805E+02 -0.64242011799E+00 -0.42322746797E+03  0.42360218217E+03  0.00000000000E+00 0.  1.
         14    1    3    3    0    0  0.61831195362E+02  0.23303234584E+02 -0.49740826087E+03  0.50177795432E+03  0.00000000000E+00 0. -1.
         13    1    5    5    0    0 -0.12686968362E+02 -0.17692806692E+02 -0.11410889223E+02  0.24580540428E+02  0.00000000000E+00 0. -1.
        -14    1    5    5    0    0  0.56120733676E+02 -0.51619373611E+03 -0.14658067256E+03  0.53952887181E+03  0.00000000000E+00 0.  1.
          5    1    4    4  501    0  0.12781831673E+02  0.33349472914E+02 -0.37324329093E+03  0.37497145116E+03  0.41800000000E+01 0.  1.
         -5    1    4    4    0  501 -0.10024492754E+03  0.47787625543E+03 -0.24213431346E+04  0.24700880164E+04  0.41800000000E+01 0.  1.
</event>
<event>
11    1  0.8864208E-009  0.1798996E+03  0.7561462E-02  0.1069724E+00
         22   -1    0    0    0    0  0.00000000000E+00  0.00000000000E+00  0.20504224644E+04  0.20504224644E+04  0.00000000000E+00 0. -1.
         22   -1    0    0    0    0 -0.00000000000E+00 -0.00000000000E+00 -0.11534526872E+04  0.11534526872E+04  0.00000000000E+00 0.  1.
        -24    2    1    2    0    0 -0.35510232054E+02 -0.77876170687E+00 -0.11097336244E+04  0.11135355034E+04  0.84799866514E+02 0.  0.
         25    2    1    2    0    0  0.13795588579E+03  0.75935685652E+02  0.22308113467E+03  0.30035621273E+03  0.12510238647E+03 0.  0.
         24    2    1    2    0    0 -0.10244565374E+03 -0.75156923945E+02  0.17836222669E+04  0.17899834354E+04  0.81170393356E+02 0.  0.
        -13    1    5    5    0    0 -0.21226606178E+01  0.14277094186E+02  0.10468199224E+03  0.10567242121E+03  0.00000000000E+00 0.  1.
         14    1    5    5    0    0 -0.10032299312E+03 -0.89434018130E+02  0.16789402746E+04  0.16843110141E+04  0.00000000000E+00 0. -1.
         11    1    3    3    0    0  0.19131100539E+02 -0.25569001425E+02 -0.38915478656E+03  0.39046282889E+03  0.00000000000E+00 0. -1.
        -12    1    3    3    0    0 -0.54641332593E+02  0.24790239718E+02 -0.72057883780E+03  0.72307267456E+03  0.00000000000E+00 0.  1.
          5    1    4    4  501    0  0.12726728762E+03  0.98924710810E+02  0.22233418834E+03  0.27465073204E+03  0.41800000000E+01 0.  1.
         -5    1    4    4    0  501  0.10688598167E+02 -0.22989025158E+02  0.74694632921E+00  0.25705480686E+02  0.41800000000E+01 0.  1.
</event>
<event>
11    1  0.8864208E-009  0.1547884E+03  0.7561462E-02  0.1092084E+00
         22   -1    0    0    0    0  0.00000000000E+00  0.00000000000E+00  0.14229852790E+04  0.14229852790E+04  0.00000000000E+00 0. -1.
         22   -1    0    0    0    0 -0.00000000000E+00 -0.00000000000E+00 -0.20783390112E+03  0.20783390112E+03  0.00000000000E+00 0.  1.
         24    2    1    2    0    0 -0.16617098749E+01  0.48894002737E+02 -0.17416386208E+03  0.19865449008E+03  0.82080270403E+02 0.  0.
         25    2    1    2    0    0 -0.11588571457E+02  0.49346064128E+02  0.23622378830E+03  0.27206341175E+03  0.12508993894E+03 0.  0.
        -24    2    1    2    0    0  0.13250281332E+02 -0.98240066865E+02  0.11530914517E+04  0.11601012783E+04  0.79927462544E+02 0.  0.
        -11    1    3    3    0    0 -0.23904266118E+02 -0.14037012522E+02 -0.38285473965E+02  0.47267633492E+02  0.00000000000E+00 0.  1.
         12    1    3    3    0    0  0.22242556243E+02  0.62931015259E+02 -0.13587838812E+03  0.15138685659E+03  0.00000000000E+00 0. -1.
         13    1    5    5    0    0  0.25752242231E+02 -0.10241852064E+03  0.11106597135E+04  0.11156691851E+04  0.00000000000E+00 0. -1.
        -14    1    5    5    0    0 -0.12501960899E+02  0.41784537738E+01  0.42431738195E+02  0.44432093227E+02  0.00000000000E+00 0.  1.
          5    1    4    4  501    0  0.49773136994E+02 -0.50382458466E+00  0.54976702969E+02  0.74280073202E+02  0.41800000000E+01 0.  1.
         -5    1    4    4    0  501 -0.61361708451E+02  0.49849888713E+02  0.18124708533E+03  0.19778333855E+03  0.41800000000E+01 0.  1.
</event>
<event>
11    1  0.8864208E-009  0.1697100E+03  0.7561462E-02  0.1078284E+00
         22   -1    0    0    0    0  0.00000000000E+00  0.00000000000E+00  0.13645201853E+04  0.13645201853E+04  0.00000000000E+00 0. -1.
         22   -1    0    0    0    0 -0.00000000000E+00 -0.00000000000E+00 -0.41228596560E+03  0.41228596560E+03  0.00000000000E+00 0.  1.
         24    2    1    2    0    0 -0.19346312266E+02  0.11264656588E+03 -0.35517012917E+03  0.38169808336E+03  0.80523770329E+02 0.  0.
         25    2    1    2    0    0 -0.13187695661E+02 -0.12393478024E+03  0.14250717331E+03  0.22691104904E+03  0.12508630885E+03 0.  0.
        -24    2    1    2    0    0  0.32534007927E+02  0.11288214352E+02  0.11648971756E+04  0.11681970185E+04  0.80702905663E+02 0.  0.
        -11    1    3    3    0    0 -0.42862937169E+02  0.95659669635E+02 -0.31615465093E+03  0.33307922043E+03  0.00000000000E+00 0.  1.
         12    1    3    3    0    0  0.23516624903E+02  0.16986896249E+02 -0.39015478235E+02  0.48618862933E+02  0.00000000000E+00 0. -1.
         11    1    5    5    0    0  0.34149306777E+02  0.18954414430E+02  0.11545894212E+04  0.11552498330E+04  0.00000000000E+00 0. -1.
        -12    1    5    5    0    0 -0.16152988505E+01 -0.76662000780E+01  0.10307754337E+02  0.12947185543E+02  0.00000000000E+00 0.  1.
          5    1    4    4  501    0  0.51755791925E+02 -0.36844395534E+02  0.77267848246E+02  0.10011974956E+03  0.41800000000E+01 0. -1.
         -5    1    4    4    0  501 -0.64943487586E+02 -0.87090384702E+02  0.65239325066E+02  0.12679129947E+03  0.41800000000E+01 0. -1.
</event>
<event>
11    1  0.8864208E-009  0.1343504E+03  0.7561462E-02  0.1114036E+00
         22   -1    0    0    0    0  0.00000000000E+00  0.00000000000E+00  0.98663325809E+03  0.98663325809E+03  0.00000000000E+00 0.  1.
         22   -1    0    0    0    0 -0.00000000000E+00 -0.00000000000E+00 -0.13288947848E+03  0.13288947848E+03  0.00000000000E+00 0.  1.
         24    2    1    2    0    0  0.23897975742E+02  0.11891078259E+02 -0.80595302667E+02  0.11818016671E+03  0.82209719650E+02 0.  0.
         25    2    1    2    0    0  0.20507049520E+02 -0.35549990111E+02  0.11089253025E+03  0.17213052352E+03  0.12508965978E+03 0.  0.
        -24    2    1    2    0    0 -0.44405025262E+02  0.23658911852E+02  0.82344655203E+03  0.82921204634E+03  0.83647136071E+02 0.  0.
        -11    1    3    3    0    0 -0.58240004532E+01  0.23099720721E+02 -0.82973877354E+02  0.86326012313E+02  0.00000000000E+00 0.  1.
         12    1    3    3    0    0  0.29721976196E+02 -0.11208642462E+02  0.23785746870E+01  0.31854154397E+02  0.00000000000E+00 0. -1.
         11    1    5    5    0    0  0.33111553769E+01  0.43625334571E+02  0.46482642102E+03  0.46688085765E+03  0.00000000000E+00 0. -1.
        -12    1    5    5    0    0 -0.47716180639E+02 -0.19966422718E+02  0.35862013101E+03  0.36233118868E+03  0.00000000000E+00 0.  1.
          5    1    4    4  501    0  0.40716150415E+02  0.33149979773E+02  0.19995768823E+02  0.56338523537E+02  0.41800000000E+01 0. -1.
         -5    1    4    4    0  501 -0.20209100894E+02 -0.68699969884E+02  0.90896761429E+02  0.11579199998E+03  0.41800000000E+01 0. -1.
</event>
<event>
11    1  0.8864208E-009  0.1325844E+03  0.7561462E-02  0.1116134E+00
         22   -1    0    0    0    0  0.00000000000E+00  0.00000000000E+00  0.25239699463E+03  0.25239699463E+03  0.00000000000E+00 0.  1.
         22   -1    0    0    0    0 -0.00000000000E+00 -0.00000000000E+00 -0.43458779487E+03  0.43458779487E+03  0.00000000000E+00 0. -1.
        -24    2    1    2    0    0  0.40856033384E+02  0.47429244071E+01 -0.31013115591E+03  0.32303113563E+03  0.80474032628E+02 0.  0.
         25    2    1    2    0    0 -0.64077601402E+02  0.12475725093E+01 -0.64593479274E+02  0.15468407785E+03  0.12508937180E+03 0.  0.
         24    2    1    2    0    0  0.23221568017E+02 -0.59904969164E+01  0.19253383494E+03  0.20926957601E+03  0.78417794984E+02 0.  0.
        -11    1    5    5    0    0  0.15058940043E+02  0.11750742134E+02  0.18832631737E+03  0.18929250759E+03  0.00000000000E+00 0.  1.
         12    1    5    5    0    0  0.81626279743E+01 -0.17741239050E+02  0.42075175753E+01  0.19977068419E+02  0.00000000000E+00 0. -1.
         13    1    3    3    0    0  0.47769623301E+02 -0.27092457080E+02 -0.15297531147E+03  0.16253425503E+03  0.00000000000E+00 0. -1.
        -14    1    3    3    0    0 -0.69135899170E+01  0.31835381487E+02 -0.15715584444E+03  0.16049688060E+03  0.00000000000E+00 0.  1.
          5    1    4    4  501    0  0.27852332078E+02 -0.60405337356E+01 -0.54727798357E+02  0.61845329355E+02  0.41800000000E+01 0.  1.
         -5    1    4    4    0  501 -0.91929933480E+02  0.72881062450E+01 -0.98656809171E+01  0.92838748495E+02  0.41800000000E+01 0.  1.
</event>
<event>
11    1  0.8864208E-009  0.1307695E+03  0.7561462E-02  0.1118327E+00
         22   -1    0    0    0    0  0.00000000000E+00  0.00000000000E+00  0.16349423726E+03  0.16349423726E+03  0.00000000000E+00 0.  1.
         22   -1    0    0    0    0 -0.00000000000E+00 -0.00000000000E+00 -0.13390454349E+04  0.13390454349E+04  0.00000000000E+00 0. -1.
        -24    2    1    2    0    0 -0.38277504519E+02 -0.14659895550E+01 -0.12608228990E+04  0.12639694927E+04  0.80480924870E+02 0.  0.
         25    2    1    2    0    0  0.27681877287E+02  0.23697840956E+02  0.18475582744E+02  0.13159641983E+03  0.12509355123E+03 0.  0.
         24    2    1    2    0    0  0.10595627232E+02 -0.22231851401E+02  0.66796118618E+02  0.10697375965E+03  0.79844481705E+02 0.  0.
        -13    1    5    5    0    0  0.36048855077E+02 -0.18106329373E+02  0.70199241385E+02  0.80964761513E+02  0.00000000000E+00 0.  1.
         14    1    5    5    0    0 -0.25453227845E+02 -0.41255220277E+01 -0.34031227666E+01  0.26008998141E+02  0.00000000000E+00 0. -1.
         11    1    3    3    0    0 -0.46713736080E+02  0.27926872334E+02 -0.97441360776E+03  0.97593235540E+03  0.00000000000E+00 0. -1.
        -12    1    3    3    0    0  0.84362315612E+01 -0.29392861889E+02 -0.28640929127E+03  0.28803713729E+03  0.00000000000E+00 0.  1.
          5    1    4    4  501    0  0.24580839372E+02 -0.33344496081E+02 -0.34121619550E+02  0.53831500108E+02  0.41800000000E+01 0. -1.
         -5    1    4    4    0  501  0.31010379151E+01  0.57042337037E+02  0.52597202293E+02  0.77764919726E+02  0.41800000000E+01 0. -1.
</event>
<event>
11    1  0.8864208E-009  0.1262756E+03  0.7561462E-02  0.1123932E+00
         22   -1    0    0    0    0  0.00000000000E+00  0.00000000000E+00  0.59675702263E+03  0.59675702263E+03  0.00000000000E+00 0. -1.
         22   -1    0    0    0    0 -0.00000000000E+00 -0.00000000000E+00 -0.12438207480E+04  0.12438207480E+04  0.00000000000E+00 0.  1.
         24    2    1    2    0    0  0.16012468771E+02  0.51876858306E+01 -0.12011574073E+04  0.12040097042E+04  0.81098330683E+02 0.  0.
         25    2    1    2    0    0 -0.54232429810E+02  0.75289531567E+01  0.84547174182E+02  0.16060982640E+03  0.12509776216E+03 0.  0.
        -24    2    1    2    0    0  0.38219961040E+02 -0.12716638987E+02  0.46954650777E+03  0.47595824009E+03  0.66632162029E+02 0.  0.
        -13    1    3    3    0    0  0.41119861335E+02 -0.24389820936E+01 -0.34502122697E+03  0.34747149334E+03  0.00000000000E+00 0.  1.
         14    1    3    3    0    0 -0.25107392564E+02  0.76266679242E+01 -0.85613618038E+03  0.85653821081E+03  0.00000000000E+00 0. -1.
         13    1    5    5    0    0  0.32696583491E+02 -0.36282642147E+02  0.38262113234E+03  0.38572584513E+03  0.00000000000E+00 0. -1.
        -14    1    5    5    0    0  0.55233775486E+01  0.23566003160E+02  0.86925375435E+02  0.90232394953E+02  0.00000000000E+00 0.  1.
          5    1    4    4  501    0 -0.44978481556E+02  0.60020467648E+02  0.21893820302E+02  0.78245332814E+02  0.41800000000E+01 0. -1.
         -5    1    4    4    0  501 -0.92539482545E+01 -0.52491514491E+02  0.62653353880E+02  0.82364493590E+02  0.41800000000E+01 0. -1.
</event>
<event>
11    1  0.8864208E-009  0.1589237E+03  0.7561462E-02  0.1088094E+00
         22   -1    0    0    0    0  0.00000000000E+00  0.00000000000E+00  0.50096146270E+02  0.50096146270E+02  0.00000000000E+00 0. -1.
         22   -1    0    0    0    0 -0.00000000000E+00 -0.00000000000E+00 -0.14279669016E+04  0.14279669016E+04  0.00000000000E+00 0.  1.
         24    2    1    2    0    0  0.15855963429E+02  0.95456971420E+01 -0.86414560821E+03  0.86816739333E+03  0.81390778027E+02 0.  0.
         25    2    1    2    0    0  0.39090879197E+02 -0.90869892327E+02 -0.42714212131E+03  0.45594379403E+03  0.12509563283E+03 0.  0.
        -24    2    1    2    0    0 -0.54946842626E+02  0.81324195186E+02 -0.86583025787E+02  0.15395186048E+03  0.81066483538E+02 0.  0.
        -11    1    3    3    0    0 -0.15787846618E+01  0.15594738238E+02 -0.82210858425E+03  0.82225799644E+03  0.00000000000E+00 0.  1.
         12    1    3    3    0    0  0.17434748090E+02 -0.60490410958E+01 -0.42037023964E+02  0.45909396891E+02  0.00000000000E+00 0. -1.
         13    1    5    5    0    0  0.16014399378E+02  0.36961052138E+02 -0.12476567913E+02  0.42169243644E+02  0.00000000000E+00 0. -1.
        -14    1    5    5    0    0 -0.70961242004E+02  0.44363143047E+02 -0.74106457874E+02  0.11178261683E+03  0.00000000000E+00 0.  1.
          5    1    4    4  501    0  0.12534972498E+02 -0.10531530286E+03 -0.19688465107E+03  0.22367270012E+03  0.41800000000E+01 0. -1.
         -5    1    4    4    0  501  0.26555906699E+02  0.14445410536E+02 -0.23025747024E+03  0.23227109391E+03  0.41800000000E+01 0. -1.
</event>
<event>
11    1  0.8864208E-009  0.1369066E+03  0.7561462E-02  0.1111063E+00
         22   -1    0    0    0    0  0.00000000000E+00  0.00000000000E+00  0.49083631650E+03  0.49083631650E+03  0.00000000000E+00 0. -1.
         22   -1    0    0    0    0 -0.00000000000E+00 -0.00000000000E+00 -0.16093836148E+03  0.16093836148E+03  0.00000000000E+00 0. -1.
        -24    2    1    2    0    0 -0.27008794842E+01 -0.33016058638E+02 -0.96973656210E+02  0.13135629444E+03  0.82178045808E+02 0.  0.
         25    2    1    2    0    0  0.54923874921E+02  0.99579813536E+01  0.76774224420E+02  0.15699989629E+03  0.12505555753E+03 0.  0.
         24    2    1    2    0    0 -0.52222995437E+02  0.23058077284E+02  0.35009738681E+03  0.36341848724E+03  0.79031009353E+02 0.  0.
        -13    1    5    5    0    0  0.81362848749E+01 -0.54715762927E+01  0.34401151207E+01  0.10390941764E+02  0.00000000000E+00 0.  1.
         14    1    5    5    0    0 -0.60359280312E+02  0.28529653577E+02  0.34665727169E+03  0.35302754548E+03  0.00000000000E+00 0. -1.
         13    1    3    3    0    0 -0.18988817199E+02 -0.53919532244E+02 -0.44049152232E+02  0.72167991162E+02  0.00000000000E+00 0. -1.
        -14    1    3    3    0    0  0.16287937715E+02  0.20903473606E+02 -0.52924503978E+02  0.59188303280E+02  0.00000000000E+00 0.  1.
          5    1    4    4  501    0 -0.19950673539E+02  0.47788103368E+02  0.38683500518E+02  0.64773588834E+02  0.41800000000E+01 0. -1.
         -5    1    4    4    0  501  0.74874548460E+02 -0.37830122014E+02  0.38090723902E+02  0.92226307451E+02  0.41800000000E+01 0. -1.
</event>
<event>
11    1  0.8864208E-009  0.1733197E+03  0.7561462E-02  0.1075178E+00
         22   -1    0    0    0    0  0.00000000000E+00  0.00000000000E+00  0.10819395852E+04  0.10819395852E+04  0.00000000000E+00 0. -1.
         22   -1    0    0    0    0 -0.00000000000E+00 -0.00000000000E+00 -0.18347108026E+03  0.18347108026E+03  0.00000000000E+00 0. -1.
         24    2    1    2    0    0  0.66966441672E+01  0.12133080957E+03 -0.10902967625E+03  0.18202704289E+03  0.80500705869E+02 0.  0.
         25    2    1    2    0    0 -0.68347423795E+02 -0.10446685232E+03  0.19016083408E+03  0.25960743453E+03  0.12510069414E+03 0.  0.
        -24    2    1    2    0    0  0.61650779628E+02 -0.16863957252E+02  0.81733734713E+03  0.82377618808E+03  0.80508740756E+02 0.  0.
        -13    1    3    3    0    0 -0.87317931553E+01  0.37041267295E+02  0.60646569517E+01  0.38536732587E+02  0.00000000000E+00 0.  1.
         14    1    3    3    0    0  0.15428437322E+02  0.84289542272E+02 -0.11509433320E+03  0.14349031030E+03  0.00000000000E+00 0. -1.
         13    1    5    5    0    0  0.40680246775E+02 -0.46913223019E+02  0.61687140885E+03  0.61998876444E+03  0.00000000000E+00 0. -1.
        -14    1    5    5    0    0  0.20970532853E+02  0.30049265767E+02  0.20046593828E+03  0.20378742364E+03  0.00000000000E+00 0.  1.
          5    1    4    4  501    0 -0.72080905599E+01  0.13151500949E+02 -0.10714259687E+02  0.18899373201E+02  0.41800000000E+01 0. -1.
         -5    1    4    4    0  501 -0.61139333235E+02 -0.11761835326E+03  0.20087509377E+03  0.24070806133E+03  0.41800000000E+01 0. -1.
</event>
<event>
11    1  0.1942978E-008  0.1346113E+03  0.7561462E-02  0.1113729E+00
         22   -1    0    0    0    0  0.00000000000E+00  0.00000000000E+00  0.22722749720E+04  0.22722749720E+04  0.00000000000E+00 0.  1.
         22   -1    0    0    0    0 -0.00000000000E+00 -0.00000000000E+00 -0.23700640398E+04  0.23700640398E+04  0.00000000000E+00 0. -1.
        -24    2    1    2    0    0 -0.10875054250E+03  0.29149984126E+02 -0.22441533666E+04  0.22483969863E+04  0.79926672726E+02 0.  0.
         25    2    1    2    0    0  0.22986396042E+01 -0.49181433201E+02 -0.84660243299E+02  0.15886824083E+03  0.12509062329E+03 0.  0.
         24    2    1    2    0    0  0.10645190289E+03  0.20031449075E+02  0.22310245422E+04  0.22350737847E+04  0.79693467987E+02 0.  0.
        -13    1    5    5    0    0  0.10196007226E+03  0.27829411015E+02  0.22051062345E+04  0.22076376147E+04  0.00000000000E+00 0.  1.
         14    1    5    5    0    0  0.44918306294E+01 -0.77979619396E+01  0.25918307656E+02  0.27436170005E+02  0.00000000000E+00 0. -1.
         11    1    3    3    0    0 -0.23995245713E+02  0.27565228566E+02 -0.12807575689E+04  0.12812788783E+04  0.00000000000E+00 0. -1.
        -12    1    3    3    0    0 -0.84755296785E+02  0.15847555592E+01 -0.96339579775E+03  0.96711810804E+03  0.00000000000E+00 0.  1.
          5    1    4    4  501    0 -0.33567813760E+02  0.53282748911E+01 -0.86942695667E+02  0.93443530347E+02  0.41800000000E+01 0.  1.
         -5    1    4    4    0  501  0.35866453364E+02 -0.54509708092E+02  0.22824523684E+01  0.65424710485E+02  0.41800000000E+01 0.  1.
</event>
<event>
11    1  0.8864208E-009  0.1568163E+03  0.7561462E-02  0.1090110E+00
         22   -1    0    0    0    0  0.00000000000E+00  0.00000000000E+00  0.33827534019E+03  0.33827534019E+03  0.00000000000E+00 0. -1.
         22   -1    0    0    0    0 -0.00000000000E+00 -0.00000000000E+00 -0.54526661516E+03  0.54526661516E+03  0.00000000000E+00 0. -1.
         24    2    1    2    0    0  0.77020313404E+02  0.37037093023E+01 -0.45943969319E+03  0.47298455113E+03  0.81753946638E+02 0.  0.
         25    2    1    2    0    0 -0.93892371253E+02 -0.91056660172E+02  0.72315824804E+02  0.19489234983E+03  0.12508539789E+03 0.  0.
        -24    2    1    2    0    0  0.16872057848E+02  0.87352950869E+02  0.18013259342E+03  0.21566505439E+03  0.78412117129E+02 0.  0.
        -11    1    3    3    0    0  0.64780459485E+02  0.84643815863E+01 -0.15428080308E+03  0.16754318812E+03  0.00000000000E+00 0.  1.
         12    1    3    3    0    0  0.12239853920E+02 -0.47606722840E+01 -0.30515889011E+03  0.30544136301E+03  0.00000000000E+00 0. -1.
         11    1    5    5    0    0  0.10004524062E+02  0.58504119693E+02  0.17598136266E+03  0.18572092646E+03  0.00000000000E+00 0. -1.
        -12    1    5    5    0    0  0.68675337864E+01  0.28848831176E+02  0.41512307573E+01  0.29944127928E+02  0.00000000000E+00 0.  1.
          5    1    4    4  501    0 -0.78919510218E+02 -0.12511762954E+02 -0.93072247083E+01  0.80553895853E+02  0.41800000000E+01 0. -1.
         -5    1    4    4    0  501 -0.14972861034E+02 -0.78544897218E+02  0.81623049512E+02  0.11433845398E+03  0.41800000000E+01 0. -1.
</event>
<event>
11    1  0.8864208E-009  0.1504128E+03  0.7561462E-02  0.1096458E+00
         22   -1    0    0    0    0  0.00000000000E+00  0.00000000000E+00  0.46781469162E+03  0.46781469162E+03  0.00000000000E+00 0.  1.
         22   -1    0    0    0    0 -0.00000000000E+00 -0.00000000000E+00 -0.88935899272E+03  0.88935899272E+03  0.00000000000E+00 0.  1.
        -24    2    1    2    0    0 -0.23357333539E+02  0.60451432790E+02 -0.70967564967E+03  0.71717832588E+03  0.80655332207E+02 0.  0.
         25    2    1    2    0    0 -0.44086441966E+02 -0.10842353041E+03 -0.12450253153E+03  0.21177484474E+03  0.12509367769E+03 0.  0.
         24    2    1    2    0    0  0.67443775505E+02  0.47972097615E+02  0.41263388010E+03  0.42822051373E+03  0.79095539523E+02 0.  0.
        -13    1    5    5    0    0  0.80614048542E+02  0.48807287515E+02  0.39561737891E+03  0.40668647215E+03  0.00000000000E+00 0.  1.
         14    1    5    5    0    0 -0.13170273037E+02 -0.83518990039E+00  0.17016501188E+02  0.21534041579E+02  0.00000000000E+00 0. -1.
         11    1    3    3    0    0  0.11778056110E+02  0.25339276244E+01 -0.15147354064E+02  0.19354217372E+02  0.00000000000E+00 0. -1.
        -12    1    3    3    0    0 -0.35135389649E+02  0.57917505166E+02 -0.69452829561E+03  0.69782410850E+03  0.00000000000E+00 0.  1.
          5    1    4    4  501    0 -0.31024867615E+02 -0.40807804175E+02  0.17148097573E+02  0.54215762860E+02  0.41800000000E+01 0. -1.
         -5    1    4    4    0  501 -0.13061574351E+02 -0.67615726230E+02 -0.14165062910E+03  0.15755908188E+03  0.41800000000E+01 0. -1.
</event>
<event>
11    1  0.8864208E-009  0.1795935E+03  0.7561462E-02  0.1069972E+00
         22   -1    0    0    0    0  0.00000000000E+00  0.00000000000E+00  0.77760913908E+03  0.77760913908E+03  0.00000000000E+00 0. -1.
         22   -1    0    0    0    0 -0.00000000000E+00 -0.00000000000E+00 -0.51225149435E+03  0.51225149435E+03  0.00000000000E+00 0.  1.
        -24    2    1    2    0    0 -0.96609651234E+02  0.81250643140E+02 -0.41728308633E+03  0.44278156374E+03  0.77428982468E+02 0.  0.
         25    2    1    2    0    0  0.13123284161E+03 -0.84450582099E+02  0.47251841211E+02  0.20551059138E+03  0.12509159499E+03 0.  0.
         24    2    1    2    0    0 -0.34623190377E+02  0.31999389591E+01  0.63538888986E+03  0.64156847831E+03  0.81743905518E+02 0.  0.
        -11    1    5    5    0    0 -0.18324468805E+02 -0.20372272730E+02  0.66041963027E+02  0.71500744986E+02  0.00000000000E+00 0.  1.
         12    1    5    5    0    0 -0.16298721572E+02  0.23572211689E+02  0.56934692683E+03  0.57006773333E+03  0.00000000000E+00 0. -1.
         13    1    3    3    0    0 -0.33060211977E+02  0.48664166122E+02 -0.88080653129E+02  0.10592157540E+03  0.00000000000E+00 0. -1.
        -14    1    3    3    0    0 -0.63549439257E+02  0.32586477018E+02 -0.32920243321E+03  0.33685998834E+03  0.00000000000E+00 0.  1.
          5    1    4    4  501    0  0.10513496850E+03 -0.13766036034E+02 -0.15657472652E+02  0.10726366673E+03  0.41800000000E+01 0. -1.
         -5    1    4    4    0  501  0.26097873109E+02 -0.70684546065E+02  0.62909313863E+02  0.98246924654E+02  0.41800000000E+01 0. -1.
</event>
<event>
11    1  0.8864208E-009  0.1988796E+03  0.7561462E-02  0.1055319E+00
         22   -1    0    0    0    0  0.00000000000E+00  0.00000000000E+00  0.80769862327E+03  0.80769862327E+03  0.00000000000E+00 0. -1.
         22   -1    0    0    0    0 -0.00000000000E+00 -0.00000000000E+00 -0.11394377460E+04  0.11394377460E+04  0.00000000000E+00 0. -1.
         24    2    1    2    0    0 -0.87591886133E+02 -0.73015122576E+01 -0.10823073159E+04  0.10892229344E+04  0.85392179069E+02 0.  0.
         25    2    1    2    0    0  0.59093177532E+02  0.15985242377E+03  0.24732999715E+03  0.32536909798E+03  0.12509245145E+03 0.  0.
        -24    2    1    2    0    0  0.28498708601E+02 -0.15255091151E+03  0.50323819604E+03  0.53254433684E+03  0.79188583440E+02 0.  0.
        -11    1    3    3    0    0 -0.50681251925E+02 -0.69706134172E+01 -0.21023938623E+03  0.21637416266E+03  0.00000000000E+00 0.  1.
         12    1    3    3    0    0 -0.36910634208E+02 -0.33089884043E+00 -0.87206792966E+03  0.87284877176E+03  0.00000000000E+00 0. -1.
         11    1    5    5    0    0  0.54258833835E+02 -0.12149045418E+03  0.40668744195E+03  0.42790025350E+03  0.00000000000E+00 0. -1.
        -12    1    5    5    0    0 -0.25760125234E+02 -0.31060457334E+02  0.96550754095E+02  0.10464408334E+03  0.00000000000E+00 0.  1.
          5    1    4    4  501    0  0.90226995296E+02  0.67752469687E+02  0.14990627085E+03  0.18767170876E+03  0.41800000000E+01 0. -1.
         -5    1    4    4    0  501 -0.31133817764E+02  0.92099954082E+02  0.97423726306E+02  0.13769738922E+03  0.41800000000E+01 0. -1.
</event>
<event>
11    1  0.8864208E-009  0.1666943E+03  0.7561462E-02  0.1080945E+00
         22   -1    0    0    0    0  0.00000000000E+00  0.00000000000E+00  0.30711525490E+03  0.30711525490E+03  0.00000000000E+00 0.  1.
         22   -1    0    0    0    0 -0.00000000000E+00 -0.00000000000E+00 -0.71827946645E+03  0.71827946645E+03  0.00000000000E+00 0. -1.
        -24    2    1    2    0    0  0.34762716271E+02  0.11762714918E+02 -0.63678357103E+03  0.64336751710E+03  0.84152467685E+02 0.  0.
         25    2    1    2    0    0  0.85802905870E+02  0.23058146959E+02  0.83686592658E+02  0.17476821280E+03  0.12508663245E+03 0.  0.
         24    2    1    2    0    0 -0.12056562214E+03 -0.34820861878E+02  0.14193276683E+03  0.20725899145E+03  0.84040570998E+02 0.  0.
        -13    1    5    5    0    0 -0.74330875768E+02 -0.45123696336E+02  0.13323251042E+03  0.15909785949E+03  0.00000000000E+00 0.  1.
         14    1    5    5    0    0 -0.46234746372E+02  0.10302834458E+02  0.87002564155E+01  0.48161131960E+02  0.00000000000E+00 0. -1.
         13    1    3    3    0    0  0.32392445605E+02 -0.15629307487E+02 -0.57016560099E+03  0.57129883454E+03  0.00000000000E+00 0. -1.
        -14    1    3    3    0    0  0.23702706658E+01  0.27392022405E+02 -0.66617970038E+02  0.72068682563E+02  0.00000000000E+00 0.  1.
          5    1    4    4  501    0  0.91418360369E+02  0.57145941141E+01  0.27866567036E+01  0.91734459469E+02  0.41800000000E+01 0. -1.
         -5    1    4    4    0  501 -0.56154544987E+01  0.17343552845E+02  0.80899935955E+02  0.83033753330E+02  0.41800000000E+01 0. -1.
</event>
<event>
11    1  0.8864208E-009  0.2538872E+03  0.7561462E-02  0.1021849E+00
         22   -1    0    0    0    0  0.00000000000E+00  0.00000000000E+00  0.18104661729E+04  0.18104661729E+04  0.00000000000E+00 0. -1.
         22   -1    0    0    0    0 -0.00000000000E+00 -0.00000000000E+00 -0.14016323427E+03  0.14016323427E+03  0.00000000000E+00 0. -1.
         24    2    1    2    0    0  0.34050517791E+02  0.43499266942E+02 -0.76748293497E+02  0.12337070172E+03  0.79236390016E+02 0.  0.
         25    2    1    2    0    0 -0.20276419249E+03 -0.16132547964E+03  0.69419630284E+03  0.75145863827E+03  0.12506938081E+03 0.  0.
        -24    2    1    2    0    0  0.16871367470E+03  0.11782621270E+03  0.10528549293E+04  0.10758000672E+04  0.80591327025E+02 0.  0.
        -13    1    3    3    0    0  0.12982089615E+02  0.64616733816E+02 -0.60173462008E+02  0.89245181774E+02  0.00000000000E+00 0.  1.
         14    1    3    3    0    0  0.21068428176E+02 -0.21117466873E+02 -0.16574831489E+02  0.34125519950E+02  0.00000000000E+00 0. -1.
         11    1    5    5    0    0  0.54242675822E+02  0.22004191475E+02  0.49002828388E+03  0.49351207819E+03  0.00000000000E+00 0. -1.
        -12    1    5    5    0    0  0.11447099888E+03  0.95822021224E+02  0.56282664541E+03  0.58228798899E+03  0.00000000000E+00 0.  1.
          5    1    4    4  501    0 -0.17757787333E+03 -0.16929036010E+03  0.67587814536E+03  0.71904232622E+03  0.41800000000E+01 0.  1.
         -5    1    4    4    0  501 -0.25186319164E+02  0.79648804562E+01  0.18318157482E+02  0.32416312055E+02  0.41800000000E+01 0.  1.
</event>
<event>
11    1  0.8864208E-009  0.2083218E+03  0.7561462E-02  0.1048790E+00
         22   -1    0    0    0    0  0.00000000000E+00  0.00000000000E+00  0.25169743913E+03  0.25169743913E+03  0.00000000000E+00 0.  1.
         22   -1    0    0    0    0 -0.00000000000E+00 -0.00000000000E+00 -0.84900255217E+03  0.84900255217E+03  0.00000000000E+00 0. -1.
         24    2    1    2    0    0 -0.28939258038E+02 -0.16186864711E+02 -0.58115850903E+03  0.58750714993E+03  0.79498071380E+02 0.  0.
         25    2    1    2    0    0  0.10925402019E+03 -0.12970081258E+03 -0.17135080909E+03  0.27160084050E+03  0.12508866884E+03 0.  0.
        -24    2    1    2    0    0 -0.80314762150E+02  0.14588767729E+03  0.15520420508E+03  0.24159200088E+03  0.80899160740E+02 0.  0.
        -13    1    3    3    0    0 -0.12975299342E+02 -0.47367277021E+02 -0.39898799113E+03  0.40199929651E+03  0.00000000000E+00 0.  1.
         14    1    3    3    0    0 -0.15963958696E+02  0.31180412311E+02 -0.18217051790E+03  0.18550785342E+03  0.00000000000E+00 0. -1.
         13    1    5    5    0    0 -0.31123295644E+02  0.50133086019E+01  0.92286510101E+01  0.32847538635E+02  0.00000000000E+00 0. -1.
        -14    1    5    5    0    0 -0.49191466505E+02  0.14087436869E+03  0.14597555407E+03  0.20874446224E+03  0.00000000000E+00 0.  1.
          5    1    4    4  501    0 -0.30057066783E+01  0.20694705877E+02 -0.29072850116E+02  0.36055625606E+02  0.41800000000E+01 0. -1.
         -5    1    4    4    0  501  0.11225972687E+03 -0.15039551846E+03 -0.14227795898E+03  0.23554521489E+03  0.41800000000E+01 0. -1.
</event>
<event>
11    1  0.8864208E-009  0.3219828E+03  0.7561462E-02  0.9912942E-01
         22   -1    0    0    0    0  0.00000000000E+00  0.00000000000E+00  0.14463344768E+04  0.14463344768E+04  0.00000000000E+00 0.  1.
         22   -1    0    0    0    0 -0.00000000000E+00 -0.00000000000E+00 -0.55040940643E+03  0.55040940643E+03  0.00000000000E+00 0. -1.
         24    2    1    2    0    0  0.18054188565E+03  0.46634414708E+02 -0.38419733777E+03  0.43458131893E+03  0.80518242057E+02 0.  0.
         25    2    1    2    0    0 -0.78398948610E+02  0.24688757834E+03  0.50850425776E+02  0.29211806000E+03  0.12508926292E+03 0.  0.
        -24    2    1    2    0    0 -0.10214293704E+03 -0.29352199305E+03  0.12292719824E+04  0.12700445043E+04  0.72904706861E+02 0.  0.
        -13    1    3    3    0    0  0.10774807823E+03  0.65509034351E+02 -0.21179898288E+03  0.24649521515E+03  0.00000000000E+00 0.  1.
         14    1    3    3    0    0  0.72793807413E+02 -0.18874619643E+02 -0.17239835489E+03  0.18808610378E+03  0.00000000000E+00 0. -1.
         11    1    5    5    0    0 -0.10552417967E+02 -0.31289696833E+02  0.62750294209E+02  0.70908378039E+02  0.00000000000E+00 0. -1.
        -12    1    5    5    0    0 -0.91590519070E+02 -0.26223229621E+03  0.11665216882E+04  0.11991361263E+04  0.00000000000E+00 0.  1.
          5    1    4    4  501    0  0.19009279500E+01  0.16673480063E+03  0.62199933974E+02  0.17801800879E+03  0.41800000000E+01 0.  1.
         -5    1    4    4    0  501 -0.80299876560E+02  0.80152777712E+02 -0.11349508197E+02  0.11410005121E+03  0.41800000000E+01 0.  1.
</event>
<event>
11    1  0.8864208E-009  0.2592973E+03  0.7561462E-02  0.1019060E+00
         22   -1    0    0    0    0  0.00000000000E+00  0.00000000000E+00  0.11382975244E+04  0.11382975244E+04  0.00000000000E+00 0.  1.
         22   -1    0    0    0    0 -0.00000000000E+00 -0.00000000000E+00 -0.82330378304E+03  0.82330378304E+03  0.00000000000E+00 0.  1.
         24    2    1    2    0    0 -0.11305114379E+02 -0.66988078398E+01 -0.69564894517E+03  0.70034411245E+03  0.79885801556E+02 0.  0.
         25    2    1    2    0    0 -0.37771730682E+02  0.22793036662E+03  0.46869285790E+02  0.26688927462E+03  0.12511674265E+03 0.  0.
        -24    2    1    2    0    0  0.49076845061E+02 -0.22123155878E+03  0.96377340075E+03  0.99436792037E+03  0.92501101311E+02 0.  0.
        -13    1    3    3    0    0  0.20041026654E+02 -0.31945029841E+02 -0.24293702866E+03  0.24584655290E+03  0.00000000000E+00 0.  1.
         14    1    3    3    0    0 -0.31346141034E+02  0.25246222001E+02 -0.45271191651E+03  0.45449755955E+03  0.00000000000E+00 0. -1.
         13    1    5    5    0    0  0.33873708096E+02 -0.87003964107E+02  0.22937489635E+03  0.24764886623E+03  0.00000000000E+00 0. -1.
        -14    1    5    5    0    0  0.15203136965E+02 -0.13422759467E+03  0.73439850440E+03  0.74671905414E+03  0.00000000000E+00 0.  1.
          5    1    4    4  501    0 -0.47042885501E+02  0.16195418874E+03 -0.22994603017E+02  0.17025984992E+03  0.41800000000E+01 0.  1.
         -5    1    4    4    0  501  0.92711548193E+01  0.65976177877E+02  0.69863888806E+02  0.96629424701E+02  0.41800000000E+01 0.  1.
</event>
<event>
11    1  0.8864208E-009  0.1304177E+03  0.7561462E-02  0.1118757E+00
         22   -1    0    0    0    0  0.00000000000E+00  0.00000000000E+00  0.71848529253E+02  0.71848529253E+02  0.00000000000E+00 0. -1.
         22   -1    0    0    0    0 -0.00000000000E+00 -0.00000000000E+00 -0.14258290711E+04  0.14258290711E+04  0.00000000000E+00 0. -1.
         24    2    1    2    0    0 -0.26713343070E+02  0.27520353651E+02 -0.12436038259E+04  0.12469064822E+04  0.82184712409E+02 0.  0.
         25    2    1    2    0    0  0.18342488963E+02  0.33936668776E+01 -0.10420461448E+03  0.16387262105E+03  0.12509064863E+03 0.  0.
        -24    2    1    2    0    0  0.83708541066E+01 -0.30914020529E+02 -0.61721014503E+01  0.86898497101E+02  0.80545056324E+02 0.  0.
        -11    1    3    3    0    0  0.23694326394E+02  0.39128777834E+01 -0.15209117390E+03  0.15397550745E+03  0.00000000000E+00 0.  1.
         12    1    3    3    0    0 -0.50407669463E+02  0.23607475868E+02 -0.10915126520E+04  0.10929309747E+04  0.00000000000E+00 0. -1.
         11    1    5    5    0    0 -0.14741334463E+02 -0.52708788865E+02 -0.66004376664E+01  0.55127934323E+02  0.00000000000E+00 0. -1.
        -12    1    5    5    0    0  0.23112188569E+02  0.21794768336E+02  0.42833621616E+00  0.31770562778E+02  0.00000000000E+00 0.  1.
          5    1    4    4  501    0  0.39357065968E+02 -0.25700028473E+02 -0.11650879377E+03  0.12570298935E+03  0.41800000000E+01 0.  1.
         -5    1    4    4    0  501 -0.21014577005E+02  0.29093695351E+02  0.12304179297E+02  0.38169631699E+02  0.41800000000E+01 0.  1.
</event>
<event>
11    1  0.8864208E-009  0.1657108E+03  0.7561462E-02  0.1081826E+00
         22   -1    0    0    0    0  0.00000000000E+00  0.00000000000E+00  0.68939589032E+03  0.68939589032E+03  0.00000000000E+00 0. -1.
         22   -1    0    0    0    0 -0.00000000000E+00 -0.00000000000E+00 -0.35499033988E+03  0.35499033988E+03  0.00000000000E+00 0.  1.
         24    2    1    2    0    0  0.73353048365E+02  0.81708244837E+02 -0.30723018187E+03  0.33611262812E+03  0.80773802368E+02 0.  0.
         25    2    1    2    0    0 -0.84406998000E+02 -0.47539380021E+02  0.18602265625E+03  0.24420540307E+03  0.12508923330E+03 0.  0.
        -24    2    1    2    0    0  0.11053949635E+02 -0.34168864816E+02  0.45561307606E+03  0.46406819901E+03  0.80537675264E+02 0.  0.
        -11    1    3    3    0    0  0.37968703423E+02 -0.87393979902E+01 -0.96988840018E+02  0.10452193361E+03  0.00000000000E+00 0.  1.
         12    1    3    3    0    0  0.35384344942E+02  0.90447642827E+02 -0.21024134185E+03  0.23159069451E+03  0.00000000000E+00 0. -1.
         13    1    5    5    0    0  0.31822410552E+02  0.10499384121E+02  0.11086689511E+03  0.11582042700E+03  0.00000000000E+00 0. -1.
        -14    1    5    5    0    0 -0.20768460917E+02 -0.44668248937E+02  0.34474618095E+03  0.34824777201E+03  0.00000000000E+00 0.  1.
          5    1    4    4  501    0 -0.63457605176E+02 -0.45152489320E+01  0.13564295477E+02  0.65182188053E+02  0.41800000000E+01 0. -1.
         -5    1    4    4    0  501 -0.20949392824E+02 -0.43024131089E+02  0.17245836077E+03  0.17902321502E+03  0.41800000000E+01 0. -1.
</event>
<event>
11    1  0.8864208E-009  0.1692870E+03  0.7561462E-02  0.1078654E+00
         22   -1    0    0    0    0  0.00000000000E+00  0.00000000000E+00  0.44735732343E+04  0.44735732343E+04  0.00000000000E+00 0.  1.
         22   -1    0    0    0    0 -0.00000000000E+00 -0.00000000000E+00 -0.15190491079E+03  0.15190491079E+03  0.00000000000E+00 0. -1.
         24    2    1    2    0    0  0.11942760315E+03  0.15081651063E+01 -0.55548011259E+02  0.15781003395E+03  0.86909138202E+02 0.  0.
         25    2    1    2    0    0 -0.87628406487E+02 -0.85636337021E+02  0.12842088130E+03  0.21714460804E+03  0.12509012034E+03 0.  0.
        -24    2    1    2    0    0 -0.31799196666E+02  0.84128171914E+02  0.42487954535E+04  0.42505235031E+04  0.81231193568E+02 0.  0.
        -11    1    3    3    0    0  0.45334518220E+02  0.34946701864E+01  0.22022155271E+02  0.50521347812E+02  0.00000000000E+00 0.  1.
         12    1    3    3    0    0  0.74093084933E+02 -0.19865050801E+01 -0.77570166530E+02  0.10728868614E+03  0.00000000000E+00 0. -1.
         11    1    5    5    0    0 -0.27978406136E+02 -0.65146053443E+01  0.74484447691E+03  0.74539823321E+03  0.00000000000E+00 0. -1.
        -12    1    5    5    0    0 -0.38207905300E+01  0.90642777259E+02  0.35039509766E+04  0.35051252699E+04  0.00000000000E+00 0.  1.
          5    1    4    4  501    0 -0.10528382774E+03 -0.42158962610E+02  0.46503413960E+02  0.12264624911E+03  0.41800000000E+01 0.  1.
         -5    1    4    4    0  501  0.17655421254E+02 -0.43477374411E+02  0.81917467337E+02  0.94498358929E+02  0.41800000000E+01 0.  1.
</event>
<event>
11    1  0.8864208E-009  0.3054546E+03  0.7561462E-02  0.9979088E-01
         22   -1    0    0    0    0  0.00000000000E+00  0.00000000000E+00  0.78721159986E+03  0.78721159986E+03  0.00000000000E+00 0. -1.
         22   -1    0    0    0    0 -0.00000000000E+00 -0.00000000000E+00 -0.15692210678E+04  0.15692210678E+04  0.00000000000E+00 0. -1.
         24    2    1    2    0    0 -0.26638407778E+03  0.30239718904E+02 -0.12085724920E+04  0.12405027651E+04  0.79528134590E+02 0.  0.
         25    2    1    2    0    0  0.34712033857E+03  0.25249622583E+01 -0.23933168755E+03  0.43980145405E+03  0.12508699947E+03 0.  0.
        -24    2    1    2    0    0 -0.80736260793E+02 -0.32764681162E+02  0.66589471163E+03  0.67612844855E+03  0.78371192561E+02 0.  0.
        -13    1    3    3    0    0 -0.13093645525E+03  0.33131481679E+02 -0.44647267582E+03  0.46645460727E+03  0.00000000000E+00 0.  1.
         14    1    3    3    0    0 -0.13544762252E+03 -0.28917627748E+01 -0.76209981621E+03  0.77404815780E+03  0.00000000000E+00 0. -1.
         11    1    5    5    0    0 -0.53936936234E+02 -0.32552856337E+01  0.56600780176E+03  0.56858123573E+03  0.00000000000E+00 0. -1.
        -12    1    5    5    0    0 -0.26799324559E+02 -0.29509395529E+02  0.99886909871E+02  0.10754721282E+03  0.00000000000E+00 0.  1.
          5    1    4    4  501    0  0.25370312515E+03 -0.49738517573E+02 -0.19505298497E+03  0.32388629978E+03  0.41800000000E+01 0.  1.
         -5    1    4    4    0  501  0.93417213425E+02  0.52263479831E+02 -0.44278702584E+02  0.11591515428E+03  0.41800000000E+01 0. -1.
</event>
<event>
11    1  0.8864208E-009  0.1379533E+03  0.7561462E-02  0.1109866E+00
         22   -1    0    0    0    0  0.00000000000E+00  0.00000000000E+00  0.12965042880E+04  0.12965042880E+04  0.00000000000E+00 0.  1.
         22   -1    0    0    0    0 -0.00000000000E+00 -0.00000000000E+00 -0.95633644280E+02  0.95633644280E+02  0.00000000000E+00 0. -1.
        -24    2    1    2    0    0  0.26859249510E+02 -0.12931409586E+02 -0.44895312078E+02  0.96715702925E+02  0.80310008763E+02 0.  0.
         25    2    1    2    0    0 -0.72649995323E+02  0.43961980112E+02  0.23236599871E+03  0.27722268588E+03  0.12509109758E+03 0.  0.
         24    2    1    2    0    0  0.45790745813E+02 -0.31030570526E+02  0.10133999571E+04  0.10181995435E+04  0.81799441322E+02 0.  0.
        -11    1    5    5    0    0  0.29173514246E+02  0.25267818032E+02  0.49021353436E+03  0.49173048089E+03  0.00000000000E+00 0.  1.
         12    1    5    5    0    0  0.16617231567E+02 -0.56298388558E+02  0.52318642273E+03  0.52646906259E+03  0.00000000000E+00 0. -1.
         11    1    3    3    0    0  0.46680970061E+02 -0.64184045760E+01 -0.55913613033E+02  0.73120728973E+02  0.00000000000E+00 0. -1.
        -12    1    3    3    0    0 -0.19821720551E+02 -0.65130050102E+01  0.11018300955E+02  0.23594973952E+02  0.00000000000E+00 0.  1.
          5    1    4    4  501    0 -0.19383335927E+02  0.74263521547E+02  0.71303595887E+02  0.10484493088E+03  0.41800000000E+01 0. -1.
         -5    1    4    4    0  501 -0.53266659396E+02 -0.30301541435E+02  0.16106240283E+03  0.17237775501E+03  0.41800000000E+01 0. -1.
</event>
<event>
11    1  0.8864208E-009  0.1458778E+03  0.7561462E-02  0.1101167E+00
         22   -1    0    0    0    0  0.00000000000E+00  0.00000000000E+00  0.43795915248E+03  0.43795915248E+03  0.00000000000E+00 0.  1.
         22   -1    0    0    0    0 -0.00000000000E+00 -0.00000000000E+00 -0.36198705234E+03  0.36198705234E+03  0.00000000000E+00 0.  1.
         24    2    1    2    0    0  0.62867902965E+02  0.29445756693E+02 -0.24690349918E+03  0.26892402708E+03  0.80866362755E+02 0.  0.
         25    2    1    2    0    0 -0.93561642983E+02 -0.64066159255E+02 -0.25528532879E+02  0.17075468668E+03  0.12508878141E+03 0.  0.
        -24    2    1    2    0    0  0.30693740018E+02  0.34620402562E+02  0.34840413219E+03  0.36026749106E+03  0.79161530038E+02 0.  0.
        -13    1    3    3    0    0  0.55971755535E+02 -0.13049938458E+02 -0.18346666899E+03  0.19225804779E+03  0.00000000000E+00 0.  1.
         14    1    3    3    0    0  0.68961474297E+01  0.42495695152E+02 -0.63436830187E+02  0.76665979287E+02  0.00000000000E+00 0. -1.
         11    1    5    5    0    0  0.55448957164E+02  0.95944878815E+01  0.22619311850E+03  0.23308789738E+03  0.00000000000E+00 0. -1.
        -12    1    5    5    0    0 -0.24755217146E+02  0.25025914680E+02  0.12221101369E+03  0.12717959368E+03  0.00000000000E+00 0.  1.
          5    1    4    4  501    0 -0.61774826112E+02 -0.60223980403E+02 -0.73170741430E+02  0.11320108992E+03  0.41800000000E+01 0.  1.
         -5    1    4    4    0  501 -0.31786816871E+02 -0.38421788518E+01  0.47642208551E+02  0.57553596767E+02  0.41800000000E+01 0.  1.
</event>
<event>
11    1  0.8864208E-009  0.1723885E+03  0.7561462E-02  0.1075972E+00
         22   -1    0    0    0    0  0.00000000000E+00  0.00000000000E+00  0.48903615347E+02  0.48903615347E+02  0.00000000000E+00 0.  1.
         22   -1    0    0    0    0 -0.00000000000E+00 -0.00000000000E+00 -0.91085839219E+03  0.91085839219E+03  0.00000000000E+00 0.  1.
         24    2    1    2    0    0 -0.10958125552E+03  0.45106016382E+02 -0.41741946674E+03  0.43805710756E+03  0.60103360967E+02 0.  0.
         25    2    1    2    0    0  0.11191573212E+03 -0.40146668992E+02 -0.38640098991E+03  0.42319125585E+03  0.12509287709E+03 0.  0.
        -24    2    1    2    0    0 -0.23344766011E+01 -0.49593473896E+01 -0.58134320194E+02  0.98513644123E+02  0.79342888695E+02 0.  0.
        -13    1    3    3    0    0 -0.10105536801E+03  0.15732253396E+02 -0.32392613531E+03  0.33968784544E+03  0.00000000000E+00 0.  1.
         14    1    3    3    0    0 -0.85258875097E+01  0.29373762986E+02 -0.93493331428E+02  0.98369262127E+02  0.00000000000E+00 0. -1.
         11    1    5    5    0    0  0.38456816376E+02 -0.44041254579E+01 -0.26980874581E+02  0.47183584433E+02  0.00000000000E+00 0. -1.
        -12    1    5    5    0    0 -0.40791292977E+02 -0.55522193173E+00 -0.31153445613E+02  0.51330059690E+02  0.00000000000E+00 0.  1.
          5    1    4    4  501    0  0.45586854179E+01  0.29491748625E+01 -0.22210176437E+03  0.22220743773E+03  0.41800000000E+01 0. -1.
         -5    1    4    4    0  501  0.10735704670E+03 -0.43095843855E+02 -0.16429922554E+03  0.20098381813E+03  0.41800000000E+01 0. -1.
</event>
<event>
11    1  0.8864208E-009  0.1154449E+04  0.7561462E-02  0.8544562E-01
         22   -1    0    0    0    0  0.00000000000E+00  0.00000000000E+00  0.15409765790E+04  0.15409765790E+04  0.00000000000E+00 0.  1.
         22   -1    0    0    0    0 -0.00000000000E+00 -0.00000000000E+00 -0.13216743853E+04  0.13216743853E+04  0.00000000000E+00 0.  1.
        -24    2    1    2    0    0  0.16475692392E+03 -0.11384723097E+04 -0.68301943072E+03  0.13422093403E+04  0.10838047119E+03 0.  0.
         25    2    1    2    0    0 -0.20242312746E+03  0.11209425903E+04  0.82817154003E+03  0.14138615325E+04  0.12509564342E+03 0.  0.
         24    2    1    2    0    0  0.37666203546E+02  0.17529719372E+02  0.74150084455E+02  0.10658009159E+03  0.64304330701E+02 0.  0.
        -11    1    5    5    0    0  0.23981160974E+02 -0.18847104277E+02  0.55817859681E+02  0.63607726580E+02  0.00000000000E+00 0.  1.
         12    1    5    5    0    0  0.13685042572E+02  0.36376823650E+02  0.18332224774E+02  0.42972365006E+02  0.00000000000E+00 0. -1.
         13    1    3    3    0    0  0.41537289575E+02 -0.51423453440E+03 -0.25612526897E+03  0.57598841672E+03  0.00000000000E+00 0. -1.
        -14    1    3    3    0    0  0.12321963434E+03 -0.62423777527E+03 -0.42689416176E+03  0.76622092356E+03  0.00000000000E+00 0.  1.
          5    1    4    4  501    0 -0.17659072121E+03  0.73919774639E+03  0.60045963671E+03  0.96859012942E+03  0.41800000000E+01 0.  1.
         -5    1    4    4    0  501 -0.25832406249E+02  0.38174484390E+03  0.22771190333E+03  0.44527140305E+03  0.41800000000E+01 0.  1.
</event>
<event>
11    1  0.8864208E-009  0.1748748E+03  0.7561462E-02  0.1073866E+00
         22   -1    0    0    0    0  0.00000000000E+00  0.00000000000E+00  0.65145814141E+03  0.65145814141E+03  0.00000000000E+00 0. -1.
         22   -1    0    0    0    0 -0.00000000000E+00 -0.00000000000E+00 -0.29575368278E+03  0.29575368278E+03  0.00000000000E+00 0. -1.
        -24    2    1    2    0    0 -0.11011246901E+03 -0.37127330743E+02 -0.19223030605E+03  0.23889874545E+03  0.81344486569E+02 0.  0.
         25    2    1    2    0    0  0.14081302077E+03  0.70958817228E+02  0.57030950383E+02  0.20919960956E+03  0.12509391184E+03 0.  0.
         24    2    1    2    0    0 -0.30700551755E+02 -0.33831486485E+02  0.49090381430E+03  0.49911346917E+03  0.77721341035E+02 0.  0.
        -13    1    5    5    0    0 -0.17342168713E+02 -0.22397470629E+02  0.47102916291E+02  0.54964372364E+02  0.00000000000E+00 0.  1.
         14    1    5    5    0    0 -0.13358383043E+02 -0.11434015856E+02  0.44380089801E+03  0.44414909681E+03  0.00000000000E+00 0. -1.
         11    1    3    3    0    0 -0.10285607658E+03 -0.34109058543E+01 -0.16701365929E+03  0.19617484334E+03  0.00000000000E+00 0. -1.
        -12    1    3    3    0    0 -0.72563924331E+01 -0.33716424888E+02 -0.25216646758E+02  0.42723902117E+02  0.00000000000E+00 0.  1.
          5    1    4    4  501    0  0.45221367344E+02 -0.31509863834E+02  0.39441533846E+02  0.67903980557E+02  0.41800000000E+01 0.  1.
         -5    1    4    4    0  501  0.95591653422E+02  0.10246868106E+03  0.17589416537E+02  0.14129562901E+03  0.41800000000E+01 0.  1.
</event>
<event>
11    1  0.8864208E-009  0.1510255E+03  0.7561462E-02  0.1095835E+00
         22   -1    0    0    0    0  0.00000000000E+00  0.00000000000E+00  0.71736600773E+03  0.71736600773E+03  0.00000000000E+00 0. -1.
         22   -1    0    0    0    0 -0.00000000000E+00 -0.00000000000E+00 -0.30833789667E+03  0.30833789667E+03  0.00000000000E+00 0. -1.
        -24    2    1    2    0    0  0.57191314848E+02 -0.69711799687E+02 -0.26288811236E+03  0.28985863085E+03  0.82324265852E+02 0.  0.
         25    2    1    2    0    0  0.40516493119E+01  0.30304785130E+02  0.12793169671E+03  0.18151428452E+03  0.12508445386E+03 0.  0.
         24    2    1    2    0    0 -0.61242964160E+02  0.39407014558E+02  0.54398452671E+03  0.55433098903E+03  0.77846429899E+02 0.  0.
        -11    1    5    5    0    0 -0.50811913791E+02  0.61366770614E+02  0.35762292368E+03  0.36639034739E+03  0.00000000000E+00 0.  1.
         12    1    5    5    0    0 -0.10431050369E+02 -0.21959756056E+02  0.18636160302E+03  0.18794064164E+03  0.00000000000E+00 0. -1.
         11    1    3    3    0    0 -0.38354803857E+00 -0.48902381538E+02 -0.18175775471E+03  0.18822186756E+03  0.00000000000E+00 0. -1.
        -12    1    3    3    0    0  0.57574862886E+02 -0.20809418149E+02 -0.81130357645E+02  0.10163676329E+03  0.00000000000E+00 0.  1.
          5    1    4    4  501    0  0.12968462321E+02  0.70474878224E+02  0.35134670094E+02  0.79917500701E+02  0.41800000000E+01 0.  1.
         -5    1    4    4    0  501 -0.89168130092E+01 -0.40170093095E+02  0.92797026614E+02  0.10159678382E+03  0.41800000000E+01 0.  1.
</event>
<event>
11    1  0.8864208E-009  0.1340656E+03  0.7561462E-02  0.1114372E+00
         22   -1    0    0    0    0  0.00000000000E+00  0.00000000000E+00  0.31906122036E+03  0.31906122036E+03  0.00000000000E+00 0. -1.
         22   -1    0    0    0    0 -0.00000000000E+00 -0.00000000000E+00 -0.24199367163E+03  0.24199367163E+03  0.00000000000E+00 0.  1.
        -24    2    1    2    0    0  0.37976687393E+02  0.34916335909E+02 -0.14107418978E+03  0.17042052584E+03  0.80497511181E+02 0.  0.
         25    2    1    2    0    0 -0.48566631587E+02  0.59042134963E+01 -0.19700013664E+02  0.13577334487E+03  0.12511088361E+03 0.  0.
         24    2    1    2    0    0  0.10589944194E+02 -0.40820549406E+02  0.23784175217E+03  0.25486102128E+03  0.81283312667E+02 0.  0.
        -13    1    5    5    0    0 -0.32770490651E+02 -0.32656859463E+02  0.10123273850E+03  0.11130338212E+03  0.00000000000E+00 0.  1.
         14    1    5    5    0    0  0.43360434845E+02 -0.81636899433E+01  0.13660901367E+03  0.14355763916E+03  0.00000000000E+00 0. -1.
         11    1    3    3    0    0  0.41794424724E+02 -0.12814582837E+01 -0.24874491959E+02  0.48653431776E+02  0.00000000000E+00 0. -1.
        -12    1    3    3    0    0 -0.38177373316E+01  0.36197794193E+02 -0.11619969782E+03  0.12176709406E+03  0.00000000000E+00 0.  1.
          5    1    4    4  501    0  0.30545279508E+02  0.10734269729E+02  0.28141247081E+02  0.43100357703E+02  0.41800000000E+01 0. -1.
         -5    1    4    4    0  501 -0.79111911095E+02 -0.48300562327E+01 -0.47841260746E+02  0.92672987165E+02  0.41800000000E+01 0. -1.
</event>
<event>
11    1  0.8864208E-009  0.1292950E+03  0.7561462E-02  0.1120138E+00
         22   -1    0    0    0    0  0.00000000000E+00  0.00000000000E+00  0.18946220819E+03  0.18946220819E+03  0.00000000000E+00 0. -1.
         22   -1    0    0    0    0 -0.00000000000E+00 -0.00000000000E+00 -0.91716486735E+03  0.91716486735E+03  0.00000000000E+00 0.  1.
        -24    2    1    2    0    0  0.14255039995E+02  0.28874843139E+02 -0.78043735362E+03  0.78570572962E+03  0.84935669186E+02 0.  0.
         25    2    1    2    0    0 -0.44145336685E+02 -0.21614391902E+02 -0.85194269706E+02  0.15912673537E+03  0.12508901482E+03 0.  0.
         24    2    1    2    0    0  0.29890296691E+02 -0.72604512376E+01  0.13792896417E+03  0.16179461055E+03  0.78784217064E+02 0.  0.
        -13    1    5    5    0    0  0.18068799569E+02 -0.24763652502E+02  0.10164499199E+02  0.32296084083E+02  0.00000000000E+00 0.  1.
         14    1    5    5    0    0  0.11821497122E+02  0.17503201264E+02  0.12776446497E+03  0.12949852647E+03  0.00000000000E+00 0. -1.
         13    1    3    3    0    0 -0.22119172003E+02  0.29943857996E+02 -0.16300929745E+03  0.16720623032E+03  0.00000000000E+00 0. -1.
        -14    1    3    3    0    0  0.36374211998E+02 -0.10690148569E+01 -0.61742805617E+03  0.61849949930E+03  0.00000000000E+00 0.  1.
          5    1    4    4  501    0 -0.44122655214E+02 -0.46711168019E+01  0.22572467530E+02  0.49956148027E+02  0.41800000000E+01 0. -1.
         -5    1    4    4    0  501 -0.22681471723E-01 -0.16943275100E+02 -0.10776673724E+03  0.10917058734E+03  0.41800000000E+01 0. -1.
</event>
<event>
11    1  0.8864208E-009  0.1903322E+03  0.7561462E-02  0.1061579E+00
         22   -1    0    0    0    0  0.00000000000E+00  0.00000000000E+00  0.65457435744E+03  0.65457435744E+03  0.00000000000E+00 0. -1.
         22   -1    0    0    0    0 -0.00000000000E+00 -0.00000000000E+00 -0.16768793478E+03  0.16768793478E+03  0.00000000000E+00 0. -1.
         24    2    1    2    0    0 -0.48496964980E+02 -0.28426084718E+02 -0.94765522938E+02  0.13660554360E+03  0.80750060673E+02 0.  0.
         25    2    1    2    0    0  0.13315294046E+03 -0.82028409247E+02  0.28152154983E+03  0.34548556638E+03  0.12509007988E+03 0.  0.
        -24    2    1    2    0    0 -0.84655975476E+02  0.11045449396E+03  0.30013039577E+03  0.34017118224E+03  0.79191851499E+02 0.  0.
        -11    1    3    3    0    0  0.20455437642E+02 -0.18169078004E+02 -0.17198270620E+02  0.32315953289E+02  0.00000000000E+00 0.  1.
         12    1    3    3    0    0 -0.68952402622E+02 -0.10257006714E+02 -0.77567252318E+02  0.10428959031E+03  0.00000000000E+00 0. -1.
         13    1    5    5    0    0 -0.90681950092E+02  0.78121944496E+02  0.18425271115E+03  0.21971644419E+03  0.00000000000E+00 0. -1.
        -14    1    5    5    0    0  0.60259746165E+01  0.32332549469E+02  0.11587768462E+03  0.12045473805E+03  0.00000000000E+00 0.  1.
          5    1    4    4  501    0  0.13776370769E+03 -0.77984940868E+02  0.16489339112E+03  0.22862150597E+03  0.41800000000E+01 0.  1.
         -5    1    4    4    0  501 -0.46107672361E+01 -0.40434683786E+01  0.11662815871E+03  0.11686406041E+03  0.41800000000E+01 0.  1.
</event>
<event>
11    1  0.8864208E-009  0.1395146E+03  0.7561462E-02  0.1108102E+00
         22   -1    0    0    0    0  0.00000000000E+00  0.00000000000E+00  0.76161214649E+03  0.76161214649E+03  0.00000000000E+00 0.  1.
         22   -1    0    0    0    0 -0.00000000000E+00 -0.00000000000E+00 -0.47602236108E+03  0.47602236108E+03  0.00000000000E+00 0. -1.
        -24    2    1    2    0    0  0.54820746578E+02 -0.27588542703E+02 -0.44960306266E+03  0.45996171103E+03  0.75202524619E+02 0.  0.
         25    2    1    2    0    0 -0.85746708086E+02  0.55530383475E+02  0.44064771996E+03  0.46930658065E+03  0.12506850963E+03 0.  0.
         24    2    1    2    0    0  0.30925961508E+02 -0.27941840772E+02  0.29454512811E+03  0.30836621590E+03  0.81214093933E+02 0.  0.
        -11    1    5    5    0    0  0.35543028178E+02  0.42530495373E+01  0.25341317394E+03  0.25592895891E+03  0.00000000000E+00 0.  1.
         12    1    5    5    0    0 -0.46170666703E+01 -0.32194890309E+02  0.41131954171E+02  0.52437256990E+02  0.00000000000E+00 0. -1.
         11    1    3    3    0    0  0.41248605930E+02 -0.46281001756E+02 -0.40514244084E+03  0.40985823889E+03  0.00000000000E+00 0. -1.
        -12    1    3    3    0    0  0.13572140648E+02  0.18692459053E+02 -0.44460621822E+02  0.50103472135E+02  0.00000000000E+00 0.  1.
          5    1    4    4  501    0 -0.80966766127E+02 -0.18738672486E+02  0.18177406948E+03  0.19991508147E+03  0.41800000000E+01 0. -1.
         -5    1    4    4    0  501 -0.47799419592E+01  0.74269055961E+02  0.25887365048E+03  0.26939149918E+03  0.41800000000E+01 0. -1.
</event>
<event>
11    1  0.8864208E-009  0.2056564E+03  0.7561462E-02  0.1050594E+00
         22   -1    0    0    0    0  0.00000000000E+00  0.00000000000E+00  0.22359256743E+03  0.22359256743E+03  0.00000000000E+00 0.  1.
         22   -1    0    0    0    0 -0.00000000000E+00 -0.00000000000E+00 -0.13133470367E+04  0.13133470367E+04  0.00000000000E+00 0.  1.
        -24    2    1    2    0    0  0.69335886362E+02 -0.12337803759E+02 -0.94822638329E+03  0.95422648964E+03  0.80344464801E+02 0.  0.
         25    2    1    2    0    0 -0.79728602026E+02  0.17298252685E+03 -0.27722015297E+03  0.35885786899E+03  0.12509337453E+03 0.  0.
         24    2    1    2    0    0  0.10392715664E+02 -0.16064472309E+03  0.13569206703E+03  0.22385524545E+03  0.76053259417E+02 0.  0.
        -13    1    5    5    0    0 -0.19772788175E+02 -0.12968561871E+03  0.81124495375E+02  0.15424171486E+03  0.00000000000E+00 0.  1.
         14    1    5    5    0    0  0.30165503840E+02 -0.30959104374E+02  0.54567571651E+02  0.69613530591E+02  0.00000000000E+00 0. -1.
         13    1    3    3    0    0  0.50403370854E+02 -0.36607461555E+02 -0.37210041832E+03  0.37727884561E+03  0.00000000000E+00 0. -1.
        -14    1    3    3    0    0  0.18932515508E+02  0.24269657796E+02 -0.57612596497E+03  0.57694764402E+03  0.00000000000E+00 0.  1.
          5    1    4    4  501    0 -0.55385642426E+02  0.44057620175E+02 -0.26191074615E+02  0.75578357166E+02  0.41800000000E+01 0.  1.
         -5    1    4    4    0  501 -0.24342959600E+02  0.12892490667E+03 -0.25102907835E+03  0.28327951183E+03  0.41800000000E+01 0.  1.
</event>
<event>
11    1  0.8864208E-009  0.1325449E+03  0.7561462E-02  0.1116181E+00
         22   -1    0    0    0    0  0.00000000000E+00  0.00000000000E+00  0.51969195197E+03  0.51969195197E+03  0.00000000000E+00 0.  1.
         22   -1    0    0    0    0 -0.00000000000E+00 -0.00000000000E+00 -0.43829790718E+03  0.43829790718E+03  0.00000000000E+00 0.  1.
        -24    2    1    2    0    0  0.67814849113E+01  0.42053382910E+02 -0.38906857283E+03  0.39942176515E+03  0.79680088812E+02 0.  0.
         25    2    1    2    0    0 -0.23855727963E+02 -0.73733180128E+02  0.99260476557E+02  0.17749891920E+03  0.12509015350E+03 0.  0.
         24    2    1    2    0    0  0.17074243051E+02  0.31679797218E+02  0.37120214107E+03  0.38106917480E+03  0.78278650479E+02 0.  0.
        -11    1    5    5    0    0 -0.29474885613E+01  0.27732242900E+02  0.35182301272E+03  0.35292661739E+03  0.00000000000E+00 0.  1.
         12    1    5    5    0    0  0.20021731613E+02  0.39475543185E+01  0.19379128351E+02  0.28142557409E+02  0.00000000000E+00 0. -1.
         13    1    3    3    0    0  0.25861228132E+02  0.11949781328E+02 -0.43364023231E+02  0.51884862003E+02  0.00000000000E+00 0. -1.
        -14    1    3    3    0    0 -0.19079743221E+02  0.30103601582E+02 -0.34570454960E+03  0.34753690314E+03  0.00000000000E+00 0.  1.
          5    1    4    4  501    0  0.17872838760E+01 -0.60428681576E+02  0.12478631818E+03  0.13872244788E+03  0.41800000000E+01 0. -1.
         -5    1    4    4    0  501 -0.25643011839E+02 -0.13304498553E+02 -0.25525841621E+02  0.38776471324E+02  0.41800000000E+01 0. -1.
</event>
<event>
11    1  0.8864208E-009  0.1348165E+03  0.7561462E-02  0.1113489E+00
         22   -1    0    0    0    0  0.00000000000E+00  0.00000000000E+00  0.13360558207E+04  0.13360558207E+04  0.00000000000E+00 0.  1.
         22   -1    0    0    0    0 -0.00000000000E+00 -0.00000000000E+00 -0.89887838801E+02  0.89887838801E+02  0.00000000000E+00 0.  1.
         24    2    1    2    0    0 -0.96786185723E+01 -0.54683596655E+02 -0.39523435847E+02  0.10587189349E+03  0.81011014375E+02 0.  0.
         25    2    1    2    0    0  0.26818431999E+02  0.26459105922E+01  0.25081551302E+03  0.28157271789E+03  0.12509414354E+03 0.  0.
        -24    2    1    2    0    0 -0.17139813427E+02  0.52037686063E+02  0.10348759047E+04  0.10384990481E+04  0.67159815295E+02 0.  0.
        -13    1    3    3    0    0 -0.72043358894E+01 -0.51331883417E+02 -0.63253220609E+02  0.81779182120E+02  0.00000000000E+00 0.  1.
         14    1    3    3    0    0 -0.24742826829E+01 -0.33517132380E+01  0.23729784763E+02  0.24092711373E+02  0.00000000000E+00 0. -1.
         13    1    5    5    0    0 -0.38310805775E+00 -0.16296341899E+02  0.18768527698E+03  0.18839182766E+03  0.00000000000E+00 0. -1.
        -14    1    5    5    0    0 -0.16756705369E+02  0.68334027962E+02  0.84719062773E+03  0.85010722046E+03  0.00000000000E+00 0.  1.
          5    1    4    4  501    0  0.67981319202E+02  0.68476130252E+01  0.21830573267E+03  0.22878639575E+03  0.41800000000E+01 0. -1.
         -5    1    4    4    0  501 -0.41162887204E+02 -0.42017024330E+01  0.32509780354E+02  0.52786322139E+02  0.41800000000E+01 0. -1.
</event>
<event>
11    1  0.8864208E-009  0.1307978E+03  0.7561462E-02  0.1118293E+00
         22   -1    0    0    0    0  0.00000000000E+00  0.00000000000E+00  0.22177709219E+03  0.22177709219E+03  0.00000000000E+00 0.  1.
         22   -1    0    0    0    0 -0.00000000000E+00 -0.00000000000E+00 -0.26265843641E+03  0.26265843641E+03  0.00000000000E+00 0. -1.
         24    2    1    2    0    0 -0.26651876251E+02 -0.30580822485E+02 -0.11953957997E+03  0.15131892240E+03  0.83439774000E+02 0.  0.
         25    2    1    2    0    0  0.35830811315E+02  0.10348844401E+02 -0.80882170181E+02  0.15354923783E+03  0.12507796514E+03 0.  0.
        -24    2    1    2    0    0 -0.91789350645E+01  0.20231978084E+02  0.15954040593E+03  0.17956736837E+03  0.79358130467E+02 0.  0.
        -13    1    3    3    0    0 -0.31755781366E+02  0.13106021853E+02 -0.14214119728E+02  0.37178470364E+02  0.00000000000E+00 0.  1.
         14    1    3    3    0    0  0.51039051159E+01 -0.43686844337E+02 -0.10532546024E+03  0.11414045204E+03  0.00000000000E+00 0. -1.
         11    1    5    5    0    0 -0.55207200941E+01  0.13049090296E+02 -0.48526347336E+01  0.14976821151E+02  0.00000000000E+00 0. -1.
        -12    1    5    5    0    0 -0.36582149704E+01  0.71828877876E+01  0.16439304066E+03  0.16459054722E+03  0.00000000000E+00 0.  1.
          5    1    4    4  501    0  0.80592601008E+02  0.22731122524E+02 -0.53964732744E+02  0.99707251735E+02  0.41800000000E+01 0. -1.
         -5    1    4    4    0  501 -0.44761789693E+02 -0.12382278123E+02 -0.26917437437E+02  0.53841986091E+02  0.41800000000E+01 0. -1.
</event>
<event>
11    1  0.8864208E-009  0.1432001E+03  0.7561462E-02  0.1104037E+00
         22   -1    0    0    0    0  0.00000000000E+00  0.00000000000E+00  0.17758182433E+04  0.17758182433E+04  0.00000000000E+00 0. -1.
         22   -1    0    0    0    0 -0.00000000000E+00 -0.00000000000E+00 -0.10435434892E+04  0.10435434892E+04  0.00000000000E+00 0. -1.
        -24    2    1    2    0    0 -0.14120712327E+01 -0.69863115374E+02 -0.10294652017E+04  0.10349750467E+04  0.80572309421E+02 0.  0.
         25    2    1    2    0    0 -0.10153608761E+02  0.44172814993E+02  0.43493921107E+03  0.45483197872E+03  0.12508268541E+03 0.  0.
         24    2    1    2    0    0  0.11565679994E+02  0.25690300382E+02  0.13268007447E+04  0.13295547071E+04  0.80757331170E+02 0.  0.
        -13    1    5    5    0    0 -0.24105118076E+02  0.33716295234E+02  0.42580731304E+03  0.42781972035E+03  0.00000000000E+00 0.  1.
         14    1    5    5    0    0  0.35670798070E+02 -0.80259948519E+01  0.90099343163E+03  0.90173498672E+03  0.00000000000E+00 0. -1.
         11    1    3    3    0    0  0.13729400058E+02 -0.41633174421E+02 -0.91670963497E+03  0.91775725140E+03  0.00000000000E+00 0. -1.
        -12    1    3    3    0    0 -0.15141471291E+02 -0.28229940953E+02 -0.11275556670E+03  0.11721779533E+03  0.00000000000E+00 0.  1.
          5    1    4    4  501    0  0.40315261018E+02  0.66350935733E+02  0.25615358288E+03  0.26769366329E+03  0.41800000000E+01 0.  1.
         -5    1    4    4    0  501 -0.50468869780E+02 -0.22178120740E+02  0.17878562819E+03  0.18713831543E+03  0.41800000000E+01 0.  1.
</event>
<event>
11    1  0.8864208E-009  0.1289008E+03  0.7561462E-02  0.1120627E+00
         22   -1    0    0    0    0  0.00000000000E+00  0.00000000000E+00  0.27395449262E+03  0.27395449262E+03  0.00000000000E+00 0. -1.
         22   -1    0    0    0    0 -0.00000000000E+00 -0.00000000000E+00 -0.18848354267E+03  0.18848354267E+03  0.00000000000E+00 0. -1.
        -24    2    1    2    0    0  0.24166803798E+02 -0.28959828610E+02 -0.11239745005E+03  0.14232065376E+03  0.78735478848E+02 0.  0.
         25    2    1    2    0    0 -0.37266980776E+01 -0.71200681572E+01  0.26180896393E+02  0.12805238987E+03  0.12508953420E+03 0.  0.
         24    2    1    2    0    0 -0.20440105720E+02  0.36079896767E+02  0.17168750361E+03  0.19206499165E+03  0.75450680914E+02 0.  0.
        -11    1    5    5    0    0 -0.35442983526E+02  0.16324727757E+02  0.32789175959E+02  0.50968930512E+02  0.00000000000E+00 0.  1.
         12    1    5    5    0    0  0.15002877806E+02  0.19755169010E+02  0.13889832765E+03  0.14109606114E+03  0.00000000000E+00 0. -1.
         11    1    3    3    0    0  0.17507422711E+02 -0.54456979672E+02 -0.94503621300E+02  0.11046722104E+03  0.00000000000E+00 0. -1.
        -12    1    3    3    0    0  0.66593810870E+01  0.25497151063E+02 -0.17893828754E+02  0.31853432724E+02  0.00000000000E+00 0.  1.
          5    1    4    4  501    0 -0.33109751704E+02  0.50349599229E+02  0.16774384029E+02  0.62691228733E+02  0.41800000000E+01 0. -1.
         -5    1    4    4    0  501  0.29383053626E+02 -0.57469667386E+02  0.94065123636E+01  0.65361161134E+02  0.41800000000E+01 0. -1.
</event>
<event>
11    1  0.8864208E-009  0.1428147E+03  0.7561462E-02  0.1104455E+00
         22   -1    0    0    0    0  0.00000000000E+00  0.00000000000E+00  0.52081392391E+03  0.52081392391E+03  0.00000000000E+00 0.  1.
         22   -1    0    0    0    0 -0.00000000000E+00 -0.00000000000E+00 -0.29817104817E+03  0.29817104817E+03  0.00000000000E+00 0. -1.
         24    2    1    2    0    0  0.44922815677E+02  0.21407444044E+02 -0.25830372958E+03  0.27515172196E+03  0.80692721809E+02 0.  0.
         25    2    1    2    0    0  0.32374166599E+02  0.25265349991E+02  0.22505427079E+03  0.26073731142E+03  0.12509235066E+03 0.  0.
        -24    2    1    2    0    0 -0.77296982275E+02 -0.46672794035E+02  0.25589233453E+03  0.28309593870E+03  0.80679926040E+02 0.  0.
        -11    1    3    3    0    0  0.15874180698E+02  0.36042559372E+02 -0.46820988255E+02  0.61182192181E+02  0.00000000000E+00 0.  1.
         12    1    3    3    0    0  0.29048634979E+02 -0.14635115328E+02 -0.21148274133E+03  0.21396952978E+03  0.00000000000E+00 0. -1.
         11    1    5    5    0    0 -0.38343153967E+01  0.15644570922E+02  0.98838040247E+01  0.18898258012E+02  0.00000000000E+00 0. -1.
        -12    1    5    5    0    0 -0.73462666879E+02 -0.62317364957E+02  0.24600853051E+03  0.26419768069E+03  0.00000000000E+00 0.  1.
          5    1    4    4  501    0 -0.31397659260E+02  0.42047710232E+01  0.17228885965E+03  0.17522675784E+03  0.41800000000E+01 0. -1.
         -5    1    4    4    0  501  0.63771825859E+02  0.21060578968E+02  0.52765411147E+02  0.85510553579E+02  0.41800000000E+01 0. -1.
</event>
<event>
11    1  0.8864208E-009  0.1772511E+03  0.7561462E-02  0.1071888E+00
         22   -1    0    0    0    0  0.00000000000E+00  0.00000000000E+00  0.28598457362E+04  0.28598457362E+04  0.00000000000E+00 0. -1.
         22   -1    0    0    0    0 -0.00000000000E+00 -0.00000000000E+00 -0.47977070152E+03  0.47977070152E+03  0.00000000000E+00 0.  1.
         24    2    1    2    0    0 -0.12286441451E+03  0.23987764651E+02 -0.45776393084E+03  0.48148064338E+03  0.81269406104E+02 0.  0.
         25    2    1    2    0    0  0.16173490515E+03 -0.44063649116E+02  0.12386172769E+04  0.12561529497E+04  0.12509072578E+03 0.  0.
        -24    2    1    2    0    0 -0.38870490631E+02  0.20075884466E+02  0.15992216887E+04  0.16019828447E+04  0.83216999588E+02 0.  0.
        -11    1    3    3    0    0 -0.45959092263E+01  0.85093956784E+01 -0.16594102898E+03  0.16622261367E+03  0.00000000000E+00 0.  1.
         12    1    3    3    0    0 -0.11826850529E+03  0.15478368972E+02 -0.29182290186E+03  0.31525802971E+03  0.00000000000E+00 0. -1.
         13    1    5    5    0    0 -0.14528886553E+02 -0.31684953358E+02  0.45550973307E+03  0.45684148425E+03  0.00000000000E+00 0. -1.
        -14    1    5    5    0    0 -0.24341604078E+02  0.51760837823E+02  0.11437119556E+04  0.11451413604E+04  0.00000000000E+00 0.  1.
          5    1    4    4  501    0  0.11011918379E+03  0.15074334548E+02  0.96743826317E+03  0.97381093424E+03  0.41800000000E+01 0.  1.
         -5    1    4    4    0  501  0.51615721358E+02 -0.59137983665E+02  0.27117901372E+03  0.28234201545E+03  0.41800000000E+01 0.  1.
</event>
<event>
11    1  0.8864208E-009  0.1762119E+03  0.7561462E-02  0.1072749E+00
         22   -1    0    0    0    0  0.00000000000E+00  0.00000000000E+00  0.56461714318E+03  0.56461714318E+03  0.00000000000E+00 0.  1.
         22   -1    0    0    0    0 -0.00000000000E+00 -0.00000000000E+00 -0.86599716848E+03  0.86599716848E+03  0.00000000000E+00 0.  1.
        -24    2    1    2    0    0 -0.10197512114E+03  0.69204217510E+02 -0.80238100001E+03  0.81588977524E+03  0.81686639739E+02 0.  0.
         25    2    1    2    0    0  0.16021309927E+03 -0.34210908124E+02  0.17073540844E+03  0.26765139037E+03  0.12509222062E+03 0.  0.
         24    2    1    2    0    0 -0.58237978127E+02 -0.34993309386E+02  0.33026556627E+03  0.34707314605E+03  0.82269256999E+02 0.  0.
        -11    1    5    5    0    0 -0.29288739387E+02 -0.41320926038E+02  0.30167277701E+03  0.30589493878E+03  0.00000000000E+00 0.  1.
         12    1    5    5    0    0 -0.28949238740E+02  0.63276166516E+01  0.28592789260E+02  0.41178207268E+02  0.00000000000E+00 0. -1.
         11    1    3    3    0    0 -0.19529177190E+02  0.60172705460E+02 -0.28811564194E+03  0.29497926432E+03  0.00000000000E+00 0. -1.
        -12    1    3    3    0    0 -0.82445943952E+02  0.90315120499E+01 -0.51426535807E+03  0.52091051093E+03  0.00000000000E+00 0.  1.
          5    1    4    4  501    0  0.96639450003E+02  0.41920843449E+02  0.72184297809E+02  0.12776770195E+03  0.41800000000E+01 0.  1.
         -5    1    4    4    0  501  0.63573649267E+02 -0.76131751573E+02  0.98551110631E+02  0.13988368842E+03  0.41800000000E+01 0.  1.
</event>
<event>
11    1  0.8864208E-009  0.1570809E+03  0.7561462E-02  0.1089855E+00
         22   -1    0    0    0    0  0.00000000000E+00  0.00000000000E+00  0.12946877599E+03  0.12946877599E+03  0.00000000000E+00 0.  1.
         22   -1    0    0    0    0 -0.00000000000E+00 -0.00000000000E+00 -0.32081264139E+03  0.32081264139E+03  0.00000000000E+00 0.  1.
         24    2    1    2    0    0  0.16920286769E+02  0.11317404550E+02 -0.12791914079E+03  0.15238932896E+03  0.80279644056E+02 0.  0.
         25    2    1    2    0    0 -0.56289242829E+02  0.76109365725E+02 -0.71309728072E+02  0.17231916971E+03  0.12509078512E+03 0.  0.
        -24    2    1    2    0    0  0.39368956061E+02 -0.87426770274E+02  0.78850034656E+01  0.12557291872E+03  0.80703344254E+02 0.  0.
        -13    1    3    3    0    0  0.48056615103E+02  0.15986935292E+02 -0.69087318154E+02  0.85662581591E+02  0.00000000000E+00 0.  1.
         14    1    3    3    0    0 -0.31136328334E+02 -0.46695307425E+01 -0.58831822641E+02  0.66726747371E+02  0.00000000000E+00 0. -1.
         11    1    5    5    0    0  0.24368638221E+02  0.61377651357E+01  0.17055426305E+02  0.30370878421E+02  0.00000000000E+00 0. -1.
        -12    1    5    5    0    0  0.15000317840E+02 -0.93564535410E+02 -0.91704228391E+01  0.95202040298E+02  0.00000000000E+00 0.  1.
          5    1    4    4  501    0 -0.25224302393E+01  0.79057870189E+02  0.43868745766E+01  0.79329859206E+02  0.41800000000E+01 0. -1.
         -5    1    4    4    0  501 -0.53766812590E+02 -0.29485044646E+01 -0.75696602649E+02  0.92989310500E+02  0.41800000000E+01 0. -1.
</event>
<event>
11    1  0.8864208E-009  0.5390710E+03  0.7561462E-02  0.9310218E-01
         22   -1    0    0    0    0  0.00000000000E+00  0.00000000000E+00  0.31644589771E+03  0.31644589771E+03  0.00000000000E+00 0.  1.
         22   -1    0    0    0    0 -0.00000000000E+00 -0.00000000000E+00 -0.22265103235E+04  0.22265103235E+04  0.00000000000E+00 0. -1.
         24    2    1    2    0    0  0.25225614587E+03  0.44459291806E+03 -0.15625711985E+04  0.16462954812E+04  0.85813957432E+02 0.  0.
         25    2    1    2    0    0 -0.31083342612E+03 -0.47746824209E+03 -0.45948934064E+03  0.74254386095E+03  0.12509032850E+03 0.  0.
        -24    2    1    2    0    0  0.58577280249E+02  0.32875324030E+02  0.11199611333E+03  0.15411687903E+03  0.81833967934E+02 0.  0.
        -13    1    3    3    0    0  0.17485156945E+02  0.98984774668E+02 -0.30381113446E+03  0.32000769015E+03  0.00000000000E+00 0.  1.
         14    1    3    3    0    0  0.23477098892E+03  0.34560814339E+03 -0.12587600640E+04  0.13262877911E+04  0.00000000000E+00 0. -1.
         13    1    5    5    0    0  0.31227295667E+02 -0.22276528557E+02  0.19560988830E+02  0.43058332565E+02  0.00000000000E+00 0. -1.
        -14    1    5    5    0    0  0.27349984582E+02  0.55151852588E+02  0.92435124502E+02  0.11105854646E+03  0.00000000000E+00 0.  1.
          5    1    4    4  501    0 -0.26102347462E+03 -0.45957680451E+03 -0.40024092705E+03  0.66298896343E+03  0.41800000000E+01 0. -1.
         -5    1    4    4    0  501 -0.49809951495E+02 -0.17891437579E+02 -0.59248413597E+02  0.79554897526E+02  0.41800000000E+01 0. -1.
</event>
<event>
11    1  0.8864208E-009  0.1745972E+03  0.7561462E-02  0.1074099E+00
         22   -1    0    0    0    0  0.00000000000E+00  0.00000000000E+00  0.65891275808E+03  0.65891275808E+03  0.00000000000E+00 0.  1.
         22   -1    0    0    0    0 -0.00000000000E+00 -0.00000000000E+00 -0.44213914839E+03  0.44213914839E+03  0.00000000000E+00 0.  1.
        -24    2    1    2    0    0  0.16932892064E+02 -0.11991447973E+03 -0.39632172240E+03  0.42207061117E+03  0.80040539043E+02 0.  0.
         25    2    1    2    0    0  0.93692804280E+00  0.14042754469E+03  0.29572222773E+03  0.35046248622E+03  0.12510613546E+03 0.  0.
         24    2    1    2    0    0 -0.17869820107E+02 -0.20513064965E+02  0.31737310435E+03  0.32851880907E+03  0.80366686151E+02 0.  0.
        -13    1    5    5    0    0 -0.16396102137E+02 -0.39844197642E+02  0.29804403212E+03  0.30114222111E+03  0.00000000000E+00 0.  1.
         14    1    5    5    0    0 -0.14737179701E+01  0.19331132677E+02  0.19329072232E+02  0.27376587965E+02  0.00000000000E+00 0. -1.
         11    1    3    3    0    0 -0.24994800942E+02 -0.15705314009E+02 -0.12454808974E+03  0.12799852976E+03  0.00000000000E+00 0. -1.
        -12    1    3    3    0    0  0.41927693007E+02 -0.10420916572E+03 -0.27177363266E+03  0.29407208142E+03  0.00000000000E+00 0.  1.
          5    1    4    4  501    0  0.32189806601E+02 -0.64445280204E+01  0.88772061513E+02  0.94739996283E+02  0.41800000000E+01 0. -1.
         -5    1    4    4    0  501 -0.31252878558E+02  0.14687207271E+03  0.20695016622E+03  0.25572248993E+03  0.41800000000E+01 0. -1.
</event>
<event>
11    1  0.8864208E-009  0.1327727E+03  0.7561462E-02  0.1115908E+00
         22   -1    0    0    0    0  0.00000000000E+00  0.00000000000E+00  0.13201155906E+04  0.13201155906E+04  0.00000000000E+00 0. -1.
         22   -1    0    0    0    0 -0.00000000000E+00 -0.00000000000E+00 -0.95764720239E+03  0.95764720239E+03  0.00000000000E+00 0.  1.
         24    2    1    2    0    0 -0.24318107627E+02  0.37513944452E+02 -0.94114970151E+03  0.94559610990E+03  0.79941078427E+02 0.  0.
         25    2    1    2    0    0  0.28090864909E+02 -0.57893133506E+01  0.31978978596E+03  0.34457595728E+03  0.12507785689E+03 0.  0.
        -24    2    1    2    0    0 -0.37727572814E+01 -0.31724631101E+02  0.98382830375E+03  0.98759072581E+03  0.79978900474E+02 0.  0.
        -13    1    3    3    0    0 -0.41077286513E+02  0.38466634656E+02 -0.37514873000E+03  0.37934627331E+03  0.00000000000E+00 0.  1.
         14    1    3    3    0    0  0.16759178886E+02 -0.95269020413E+00 -0.56600097150E+03  0.56624983659E+03  0.00000000000E+00 0. -1.
         11    1    5    5    0    0 -0.15009172605E+02 -0.43911223197E+02  0.93246255846E+03  0.93361656675E+03  0.00000000000E+00 0. -1.
        -12    1    5    5    0    0  0.11236415324E+02  0.12186592097E+02  0.51365745290E+02  0.53974159053E+02  0.00000000000E+00 0.  1.
          5    1    4    4  501    0 -0.45532296356E+02 -0.15482771071E+02  0.79203445246E+02  0.92755400653E+02  0.41800000000E+01 0. -1.
         -5    1    4    4    0  501  0.73623161265E+02  0.96934577201E+01  0.24058634072E+03  0.25182055662E+03  0.41800000000E+01 0. -1.
</event>
<event>
11    1  0.8864208E-009  0.1414796E+03  0.7561462E-02  0.1105917E+00
         22   -1    0    0    0    0  0.00000000000E+00  0.00000000000E+00  0.16832989697E+04  0.16832989697E+04  0.00000000000E+00 0.  1.
         22   -1    0    0    0    0 -0.00000000000E+00 -0.00000000000E+00 -0.23640226441E+03  0.23640226441E+03  0.00000000000E+00 0.  1.
         24    2    1    2    0    0 -0.33690168814E+02  0.54381096826E+02 -0.19955368348E+03  0.23702827285E+03  0.11076280230E+03 0.  0.
         25    2    1    2    0    0  0.45888929597E+02 -0.11242511272E+03  0.45827486090E+03  0.49031516061E+03  0.12509160146E+03 0.  0.
        -24    2    1    2    0    0 -0.12198760782E+02  0.58044015898E+02  0.11881755278E+04  0.11923578006E+04  0.80237909996E+02 0.  0.
        -11    1    3    3    0    0 -0.54498938863E+02  0.38204416642E+02 -0.19987955646E+03  0.21066928794E+03  0.00000000000E+00 0.  1.
         12    1    3    3    0    0  0.20808770049E+02  0.16176680184E+02  0.32587297814E+00  0.26358984918E+02  0.00000000000E+00 0. -1.
         13    1    5    5    0    0 -0.30640626567E+02  0.24178126251E+01  0.19059202431E+03  0.19305443156E+03  0.00000000000E+00 0. -1.
        -14    1    5    5    0    0  0.18441865784E+02  0.55626203273E+02  0.99758350353E+03  0.99930336906E+03  0.00000000000E+00 0.  1.
          5    1    4    4  501    0  0.73608081342E+02 -0.22110827738E+02  0.16284159223E+03  0.18011633713E+03  0.41800000000E+01 0.  1.
         -5    1    4    4    0  501 -0.27719151745E+02 -0.90314284986E+02  0.29543326868E+03  0.31019882348E+03  0.41800000000E+01 0.  1.
</event>
<event>
11    1  0.8864208E-009  0.5673741E+03  0.7561462E-02  0.9254416E-01
         22   -1    0    0    0    0  0.00000000000E+00  0.00000000000E+00  0.71228523376E+03  0.71228523376E+03  0.00000000000E+00 0. -1.
         22   -1    0    0    0    0 -0.00000000000E+00 -0.00000000000E+00 -0.11298612249E+03  0.11298612249E+03  0.00000000000E+00 0. -1.
         24    2    1    2    0    0  0.14583690721E+03  0.27173268650E+02  0.30158398933E+03  0.34650587193E+03  0.84300810376E+02 0.  0.
         25    2    1    2    0    0 -0.18294855019E+03 -0.92722043649E+02  0.11823986841E+03  0.26776094522E+03  0.12509079866E+03 0.  0.
        -24    2    1    2    0    0  0.37111642978E+02  0.65548774999E+02  0.17947525354E+03  0.21100453911E+03  0.81471669577E+02 0.  0.
        -13    1    3    3    0    0  0.44757003583E+01  0.14615498772E+02  0.25396441792E+01  0.15494982756E+02  0.00000000000E+00 0.  1.
         14    1    3    3    0    0  0.14136120685E+03  0.12557769877E+02  0.29904434515E+03  0.33101088917E+03  0.00000000000E+00 0. -1.
         11    1    5    5    0    0  0.52562641453E+02  0.29980723682E+02  0.15164539843E+03  0.16327278381E+03  0.00000000000E+00 0. -1.
        -12    1    5    5    0    0 -0.15450998475E+02  0.35568051318E+02  0.27829855110E+02  0.47731755298E+02  0.00000000000E+00 0.  1.
          5    1    4    4  501    0 -0.12151535465E+03 -0.25455207407E+02  0.12511282015E+03  0.17630836386E+03  0.41800000000E+01 0. -1.
         -5    1    4    4    0  501 -0.61433195536E+02 -0.67266836243E+02 -0.68729517447E+01  0.91452581361E+02  0.41800000000E+01 0. -1.
</event>
<event>
11    1  0.8864208E-009  0.1337308E+03  0.7561462E-02  0.1114768E+00
         22   -1    0    0    0    0  0.00000000000E+00  0.00000000000E+00  0.14061116808E+04  0.14061116808E+04  0.00000000000E+00 0. -1.
         22   -1    0    0    0    0 -0.00000000000E+00 -0.00000000000E+00 -0.88881385387E+02  0.88881385387E+02  0.00000000000E+00 0.  1.
         24    2    1    2    0    0  0.24609078047E+02 -0.46076010087E+02 -0.35306035805E+02  0.10111766396E+03  0.79054793483E+02 0.  0.
         25    2    1    2    0    0  0.32261599603E+01  0.19263245009E+02  0.19244476149E+03  0.23035192204E+03  0.12508213719E+03 0.  0.
        -24    2    1    2    0    0 -0.27835238007E+02  0.26812765077E+02  0.11600915698E+04  0.11635234802E+04  0.80502881640E+02 0.  0.
        -13    1    3    3    0    0  0.14232480110E+02 -0.18597955899E+01 -0.51064946060E+02  0.53043859643E+02  0.00000000000E+00 0.  1.
         14    1    3    3    0    0  0.10376597937E+02 -0.44216214497E+02  0.15758910254E+02  0.48073804317E+02  0.00000000000E+00 0. -1.
         13    1    5    5    0    0 -0.25938617582E+02  0.21422489682E+02  0.11560144730E+04  0.11565038680E+04  0.00000000000E+00 0. -1.
        -14    1    5    5    0    0 -0.18966204253E+01  0.53902753954E+01  0.40770968154E+01  0.70196122627E+01  0.00000000000E+00 0.  1.
          5    1    4    4  501    0  0.17193307884E+02  0.25463504769E+02 -0.57404286015E+01  0.31534502242E+02  0.41800000000E+01 0.  1.
         -5    1    4    4    0  501 -0.13967147924E+02 -0.62002597592E+01  0.19818519009E+03  0.19881741979E+03  0.41800000000E+01 0.  1.
</event>
<event>
11    1  0.8864208E-009  0.1413129E+03  0.7561462E-02  0.1106101E+00
         22   -1    0    0    0    0  0.00000000000E+00  0.00000000000E+00  0.86358623129E+03  0.86358623129E+03  0.00000000000E+00 0. -1.
         22   -1    0    0    0    0 -0.00000000000E+00 -0.00000000000E+00 -0.31269274430E+03  0.31269274430E+03  0.00000000000E+00 0. -1.
         24    2    1    2    0    0  0.19727379626E+02  0.26880775449E+01 -0.28098118147E+03  0.29284095150E+03  0.80056250673E+02 0.  0.
         25    2    1    2    0    0 -0.11302641225E+02 -0.67765671770E+02  0.21814257869E+03  0.26068022234E+03  0.12509219686E+03 0.  0.
        -24    2    1    2    0    0 -0.84247384011E+01  0.65077594225E+02  0.61373208976E+03  0.62275780174E+03  0.82789686199E+02 0.  0.
        -11    1    3    3    0    0  0.31649535141E+02  0.47448094949E+01 -0.38527768390E+02  0.50085878538E+02  0.00000000000E+00 0.  1.
         12    1    3    3    0    0 -0.11922155515E+02 -0.20567319500E+01 -0.24245341308E+03  0.24275507297E+03  0.00000000000E+00 0. -1.
         13    1    5    5    0    0 -0.71687756571E+00  0.16599888564E+02  0.48023226708E+03  0.48051961517E+03  0.00000000000E+00 0. -1.
        -14    1    5    5    0    0 -0.77078608354E+01  0.48477705661E+02  0.13349982268E+03  0.14223818658E+03  0.00000000000E+00 0.  1.
          5    1    4    4  501    0  0.51932952240E+02 -0.32303658055E+02  0.56053062171E+02  0.83066094352E+02  0.41800000000E+01 0. -1.
         -5    1    4    4    0  501 -0.63235593465E+02 -0.35462013715E+02  0.16208951652E+03  0.17761412799E+03  0.41800000000E+01 0. -1.
</event>
<event>
11    1  0.8864208E-009  0.1576355E+03  0.7561462E-02  0.1089323E+00
         22   -1    0    0    0    0  0.00000000000E+00  0.00000000000E+00  0.68876111709E+03  0.68876111709E+03  0.00000000000E+00 0.  1.
         22   -1    0    0    0    0 -0.00000000000E+00 -0.00000000000E+00 -0.94945079030E+03  0.94945079030E+03  0.00000000000E+00 0. -1.
        -24    2    1    2    0    0  0.11673882456E+02  0.51225269929E+02 -0.69365418632E+03  0.70056459146E+03  0.82911451510E+02 0.  0.
         25    2    1    2    0    0  0.71608077227E+02 -0.98087473581E+02 -0.21547536671E+03  0.27717470706E+03  0.12508922966E+03 0.  0.
         24    2    1    2    0    0 -0.83281959683E+02  0.46862203652E+02  0.64843987983E+03  0.66047260887E+03  0.81350097519E+02 0.  0.
        -11    1    5    5    0    0 -0.95101150615E+02  0.55110571443E+02  0.59783337711E+03  0.60785372477E+03  0.00000000000E+00 0.  1.
         12    1    5    5    0    0  0.11819190933E+02 -0.82483677909E+01  0.50606502725E+02  0.52618884097E+02  0.00000000000E+00 0. -1.
         11    1    3    3    0    0  0.27277522650E+02  0.66639246210E+02 -0.60351295789E+03  0.60779333882E+03  0.00000000000E+00 0. -1.
        -12    1    3    3    0    0 -0.15603640194E+02 -0.15413976281E+02 -0.90141228433E+02  0.92771252635E+02  0.00000000000E+00 0.  1.
          5    1    4    4  501    0  0.58119770802E+02  0.14190270706E+02 -0.59575386715E+02  0.84533843182E+02  0.41800000000E+01 0.  1.
         -5    1    4    4    0  501  0.13488306425E+02 -0.11227774429E+03 -0.15589998000E+03  0.19264086388E+03  0.41800000000E+01 0.  1.
</event>
<event>
11    1  0.8864208E-009  0.1396295E+03  0.7561462E-02  0.1107973E+00
         22   -1    0    0    0    0  0.00000000000E+00  0.00000000000E+00  0.95456898701E+03  0.95456898701E+03  0.00000000000E+00 0. -1.
         22   -1    0    0    0    0 -0.00000000000E+00 -0.00000000000E+00 -0.27667410139E+03  0.27667410139E+03  0.00000000000E+00 0.  1.
        -24    2    1    2    0    0  0.50310427995E+02  0.11683451647E+02 -0.10682028517E+03  0.14420563138E+03  0.81957602389E+02 0.  0.
         25    2    1    2    0    0 -0.52633742926E+02 -0.73418553950E+02 -0.10821330048E+03  0.18846287858E+03  0.12509014047E+03 0.  0.
         24    2    1    2    0    0  0.23233149310E+01  0.61735102303E+02  0.89292847127E+03  0.89857457845E+03  0.79362444411E+02 0.  0.
        -11    1    5    5    0    0 -0.37462338902E+02  0.34110745202E+02  0.37963308959E+03  0.38299902413E+03  0.00000000000E+00 0.  1.
         12    1    5    5    0    0  0.39785653833E+02  0.27624357101E+02  0.51329538167E+03  0.51557555431E+03  0.00000000000E+00 0. -1.
         11    1    3    3    0    0  0.48432078200E+02  0.13059001066E+02 -0.15000940758E+02  0.52356775409E+02  0.00000000000E+00 0. -1.
        -12    1    3    3    0    0  0.18783497953E+01 -0.13755494195E+01 -0.91819344411E+02  0.91848855966E+02  0.00000000000E+00 0.  1.
          5    1    4    4  501    0  0.23908538534E+02 -0.39014284326E+02 -0.92076779398E+02  0.10290451059E+03  0.41800000000E+01 0.  1.
         -5    1    4    4    0  501 -0.76542281461E+02 -0.34404269624E+02 -0.16136521086E+02  0.85558367985E+02  0.41800000000E+01 0.  1.
</event>
<event>
11    1  0.8864208E-009  0.1581999E+03  0.7561462E-02  0.1088783E+00
         22   -1    0    0    0    0  0.00000000000E+00  0.00000000000E+00  0.50050789728E+02  0.50050789728E+02  0.00000000000E+00 0.  1.
         22   -1    0    0    0    0 -0.00000000000E+00 -0.00000000000E+00 -0.22531605374E+04  0.22531605374E+04  0.00000000000E+00 0. -1.
        -24    2    1    2    0    0  0.11939070146E+02 -0.94718006625E+02 -0.94478929962E+03  0.95303148416E+03  0.80796948898E+02 0.  0.
         25    2    1    2    0    0 -0.81314180911E+02  0.78040451242E+02 -0.12356107632E+04  0.12470303711E+04  0.12509388618E+03 0.  0.
         24    2    1    2    0    0  0.69375110765E+02  0.16677555383E+02 -0.22709684903E+02  0.10314947188E+03  0.70943899760E+02 0.  0.
        -11    1    5    5    0    0  0.50783830305E+02 -0.23791111721E+02 -0.13071059236E+02  0.57583565424E+02  0.00000000000E+00 0.  1.
         12    1    5    5    0    0  0.18591280460E+02  0.40468667104E+02 -0.96386256669E+01  0.45565906455E+02  0.00000000000E+00 0. -1.
         13    1    3    3    0    0  0.26072863489E+02 -0.10224148749E+02 -0.45078793587E+03  0.45165704971E+03  0.00000000000E+00 0. -1.
        -14    1    3    3    0    0 -0.14133793343E+02 -0.84493857876E+02 -0.49400136375E+03  0.50137443445E+03  0.00000000000E+00 0.  1.
          5    1    4    4  501    0 -0.36086280590E+02  0.10740266814E+03 -0.89484903025E+03  0.90200322178E+03  0.41800000000E+01 0.  1.
         -5    1    4    4    0  501 -0.45227900320E+02 -0.29362216898E+02 -0.34076173292E+03  0.34502714933E+03  0.41800000000E+01 0.  1.
</event>
<event>
11    1  0.8864208E-009  0.1478115E+03  0.7561462E-02  0.1099136E+00
         22   -1    0    0    0    0  0.00000000000E+00  0.00000000000E+00  0.53502950257E+03  0.53502950257E+03  0.00000000000E+00 0. -1.
         22   -1    0    0    0    0 -0.00000000000E+00 -0.00000000000E+00 -0.26573652006E+03  0.26573652006E+03  0.00000000000E+00 0.  1.
         24    2    1    2    0    0 -0.34774902967E+02 -0.46722722796E+02 -0.17370732925E+03  0.19959381056E+03  0.79190569362E+02 0.  0.
         25    2    1    2    0    0  0.99506487088E+02  0.81803968292E+02  0.41242639348E+02  0.18423918941E+03  0.12509873465E+03 0.  0.
        -24    2    1    2    0    0 -0.64731584121E+02 -0.35081245496E+02  0.40175767242E+03  0.41693302267E+03  0.83684205675E+02 0.  0.
        -11    1    3    3    0    0  0.14347960578E+02 -0.38733856225E+02 -0.11734903611E+03  0.12440647840E+03  0.00000000000E+00 0.  1.
         12    1    3    3    0    0 -0.49122863545E+02 -0.79888665708E+01 -0.56358293140E+02  0.75187332162E+02  0.00000000000E+00 0. -1.
         11    1    5    5    0    0 -0.44038452981E+02 -0.84267391043E+01  0.36208466589E+03  0.36485024400E+03  0.00000000000E+00 0. -1.
        -12    1    5    5    0    0 -0.20693131140E+02 -0.26654506392E+02  0.39673006525E+02  0.52082778671E+02  0.00000000000E+00 0.  1.
          5    1    4    4  501    0  0.10951923624E+03  0.78573488461E+02  0.70998515055E+02  0.15240248599E+03  0.41800000000E+01 0.  1.
         -5    1    4    4    0  501 -0.10012749151E+02  0.32304798311E+01 -0.29755875707E+02  0.31836703419E+02  0.41800000000E+01 0.  1.
</event>
<event>
11    1  0.1290621E-008  0.1736802E+03  0.7561462E-02  0.1074873E+00
         22   -1    0    0    0    0  0.00000000000E+00  0.00000000000E+00  0.73145613369E+03  0.73145613369E+03  0.00000000000E+00 0. -1.
         22   -1    0    0    0    0 -0.00000000000E+00 -0.00000000000E+00 -0.16436935020E+04  0.16436935020E+04  0.00000000000E+00 0. -1.
         24    2    1    2    0    0  0.27720714072E+02  0.32542869464E+02 -0.94721871987E+03  0.95119695045E+03  0.75662797576E+02 0.  0.
         25    2    1    2    0    0  0.89075684128E+02 -0.14499755349E+01 -0.67852030067E+03  0.69568181325E+03  0.12508719730E+03 0.  0.
        -24    2    1    2    0    0 -0.11679639820E+03 -0.31092893929E+02  0.71350165223E+03  0.72827087199E+03  0.81766060028E+02 0.  0.
        -13    1    3    3    0    0  0.25088489024E+02  0.28861916827E+02 -0.18244388949E+03  0.18640873192E+03  0.00000000000E+00 0.  1.
         14    1    3    3    0    0  0.26322250473E+01  0.36809526368E+01 -0.76477483038E+03  0.76478821853E+03  0.00000000000E+00 0. -1.
         13    1    5    5    0    0 -0.10130034224E+03 -0.39596736680E+02  0.40769015995E+03  0.42194896305E+03  0.00000000000E+00 0. -1.
        -14    1    5    5    0    0 -0.15496055962E+02  0.85038427509E+01  0.30581149227E+03  0.30632190894E+03  0.00000000000E+00 0.  1.
          5    1    4    4  501    0  0.97789893507E+02 -0.25026375522E+02 -0.30507060499E+03  0.32136385791E+03  0.41800000000E+01 0.  1.
         -5    1    4    4    0  501 -0.87142093787E+01  0.23576399988E+02 -0.37344969568E+03  0.37431795534E+03  0.41800000000E+01 0.  1.
</event>
<event>
11    1  0.8864208E-009  0.1909903E+03  0.7561462E-02  0.1061084E+00
         22   -1    0    0    0    0  0.00000000000E+00  0.00000000000E+00  0.56500948968E+03  0.56500948968E+03  0.00000000000E+00 0.  1.
         22   -1    0    0    0    0 -0.00000000000E+00 -0.00000000000E+00 -0.42719638111E+03  0.42719638111E+03  0.00000000000E+00 0. -1.
         24    2    1    2    0    0 -0.79601080568E+01 -0.84356578846E+02 -0.29884274160E+03  0.31856085542E+03  0.70672757702E+02 0.  0.
         25    2    1    2    0    0 -0.11357846784E+03  0.15320695178E+03  0.21632932069E+02  0.22910366561E+03  0.12509223564E+03 0.  0.
        -24    2    1    2    0    0  0.12153857590E+03 -0.68850372932E+02  0.41502291810E+03  0.44454134977E+03  0.76557101691E+02 0.  0.
        -11    1    3    3    0    0  0.52427854626E+01 -0.66638472021E+02 -0.11210905830E+03  0.13052437973E+03  0.00000000000E+00 0.  1.
         12    1    3    3    0    0 -0.13202893519E+02 -0.17718106824E+02 -0.18673368330E+03  0.18803647568E+03  0.00000000000E+00 0. -1.
         13    1    5    5    0    0  0.23425583177E+02 -0.21423525333E+02  0.27539177823E+02  0.42025369720E+02  0.00000000000E+00 0. -1.
        -14    1    5    5    0    0  0.98112992722E+02 -0.47426847598E+02  0.38748374028E+03  0.40251598005E+03  0.00000000000E+00 0.  1.
          5    1    4    4  501    0 -0.99317182725E+02  0.29810835547E+02  0.11077538421E+02  0.10436844810E+03  0.41800000000E+01 0. -1.
         -5    1    4    4    0  501 -0.14261285118E+02  0.12339611623E+03  0.10555393648E+02  0.12473521752E+03  0.41800000000E+01 0. -1.
</event>
<event>
11    1  0.8864208E-009  0.4517581E+03  0.7561462E-02  0.9508291E-01
         22   -1    0    0    0    0  0.00000000000E+00  0.00000000000E+00  0.32438985110E+03  0.32438985110E+03  0.00000000000E+00 0.  1.
         22   -1    0    0    0    0 -0.00000000000E+00 -0.00000000000E+00 -0.21704305197E+04  0.21704305197E+04  0.00000000000E+00 0.  1.
        -24    2    1    2    0    0  0.16837106468E+03  0.96995862605E+02 -0.11323142703E+04  0.11516934007E+04  0.80654013010E+02 0.  0.
         25    2    1    2    0    0 -0.37765560792E+03  0.28223796769E+03 -0.75719487158E+03  0.90070675756E+03  0.12508621418E+03 0.  0.
         24    2    1    2    0    0  0.20928454324E+03 -0.37923383029E+03  0.43468473249E+02  0.44242021251E+03  0.78916526737E+02 0.  0.
        -11    1    5    5    0    0  0.21018082090E+03 -0.38011743716E+03  0.48664648481E+02  0.43707378269E+03  0.00000000000E+00 0.  1.
         12    1    5    5    0    0 -0.89627765752E+00  0.88360686642E+00 -0.51961752324E+01  0.53464298162E+01  0.00000000000E+00 0. -1.
         11    1    3    3    0    0  0.12564645934E+03  0.28668843816E+02 -0.74802881197E+03  0.75904943112E+03  0.00000000000E+00 0. -1.
        -12    1    3    3    0    0  0.42724605335E+02  0.68327018788E+02 -0.38428545830E+03  0.39264396959E+03  0.00000000000E+00 0.  1.
          5    1    4    4  501    0 -0.33939753770E+03  0.19407766079E+03 -0.58943960916E+03  0.70732831999E+03  0.41800000000E+01 0.  1.
         -5    1    4    4    0  501 -0.38258070220E+02  0.88160306893E+02 -0.16775526242E+03  0.19337843757E+03  0.41800000000E+01 0.  1.
</event>
<event>
11    1  0.8864208E-009  0.1332754E+03  0.7561462E-02  0.1115309E+00
         22   -1    0    0    0    0  0.00000000000E+00  0.00000000000E+00  0.10748442450E+04  0.10748442450E+04  0.00000000000E+00 0. -1.
         22   -1    0    0    0    0 -0.00000000000E+00 -0.00000000000E+00 -0.52001725341E+03  0.52001725341E+03  0.00000000000E+00 0. -1.
        -24    2    1    2    0    0  0.24060149823E+02 -0.38854557289E+02 -0.43267691728E+03  0.44247101505E+03  0.80515321418E+02 0.  0.
         25    2    1    2    0    0 -0.50588493790E+02  0.25924914048E+02 -0.21930913918E+02  0.13913984662E+03  0.12509050747E+03 0.  0.
         24    2    1    2    0    0  0.26528343966E+02  0.12929643242E+02  0.10094348228E+04  0.10132506367E+04  0.82748188611E+02 0.  0.
        -13    1    5    5    0    0  0.23168746285E+02  0.25417378595E+02  0.15722238328E+03  0.16094008744E+03  0.00000000000E+00 0.  1.
         14    1    5    5    0    0  0.33595976813E+01 -0.12487735354E+02  0.85221243948E+03  0.85231054929E+03  0.00000000000E+00 0. -1.
         13    1    3    3    0    0  0.53054704000E+02 -0.25460305511E+02 -0.23651740248E+03  0.24372835380E+03  0.00000000000E+00 0. -1.
        -14    1    3    3    0    0 -0.28994554177E+02 -0.13394251778E+02 -0.19615951480E+03  0.19874266125E+03  0.00000000000E+00 0.  1.
          5    1    4    4  501    0  0.27586386184E+02  0.35877942691E+02 -0.37232413156E+02  0.58753386829E+02  0.41800000000E+01 0. -1.
         -5    1    4    4    0  501 -0.78174879974E+02 -0.99530286433E+01  0.15301499238E+02  0.80386459787E+02  0.41800000000E+01 0. -1.
</event>
<event>
11    1  0.8864208E-009  0.1503322E+03  0.7561462E-02  0.1096540E+00
         22   -1    0    0    0    0  0.00000000000E+00  0.00000000000E+00  0.11341352993E+03  0.11341352993E+03  0.00000000000E+00 0. -1.
         22   -1    0    0    0    0 -0.00000000000E+00 -0.00000000000E+00 -0.39007401518E+04  0.39007401518E+04  0.00000000000E+00 0.  1.
         24    2    1    2    0    0 -0.63130383750E+02  0.56246205984E+02 -0.31758606255E+04  0.31779963521E+04  0.80131270690E+02 0.  0.
         25    2    1    2    0    0  0.54360489311E+02 -0.51939177882E+02 -0.70218136039E+03  0.71718821820E+03  0.12509011330E+03 0.  0.
        -24    2    1    2    0    0  0.87698944393E+01 -0.43070281021E+01  0.90715364052E+02  0.11896911137E+03  0.76347302806E+02 0.  0.
        -11    1    3    3    0    0 -0.29131782174E+02 -0.18344861663E+02 -0.88323820673E+03  0.88390888925E+03  0.00000000000E+00 0.  1.
         12    1    3    3    0    0 -0.33998601576E+02  0.74591067647E+02 -0.22926224188E+04  0.22940874629E+04  0.00000000000E+00 0. -1.
         13    1    5    5    0    0  0.27039932826E+02 -0.40049187016E+01  0.96106192168E+02  0.99917953913E+02  0.00000000000E+00 0. -1.
        -14    1    5    5    0    0 -0.18270038387E+02 -0.30210940048E+00 -0.53908281158E+01  0.19051157459E+02  0.00000000000E+00 0.  1.
          5    1    4    4  501    0  0.66712361933E+02 -0.86260374662E+01 -0.16683469981E+03  0.17993398016E+03  0.41800000000E+01 0.  1.
         -5    1    4    4    0  501 -0.12351872622E+02 -0.43313140416E+02 -0.53534666058E+03  0.53725423804E+03  0.41800000000E+01 0.  1.
</event>
<event>
11    1  0.8864208E-009  0.1371654E+03  0.7561462E-02  0.1110766E+00
         22   -1    0    0    0    0  0.00000000000E+00  0.00000000000E+00  0.21577788737E+03  0.21577788737E+03  0.00000000000E+00 0.  1.
         22   -1    0    0    0    0 -0.00000000000E+00 -0.00000000000E+00 -0.95411656165E+03  0.95411656165E+03  0.00000000000E+00 0. -1.
         24    2    1    2    0    0 -0.59250991703E+01 -0.53592032687E+02 -0.81885994081E+03  0.82455051417E+03  0.80279106816E+02 0.  0.
         25    2    1    2    0    0 -0.91890122275E+01  0.10425468532E+03 -0.61375749246E+02  0.17426751914E+03  0.12509479716E+03 0.  0.
        -24    2    1    2    0    0  0.15114111398E+02 -0.50662652633E+02  0.14189701577E+03  0.17107641570E+03  0.79606759690E+02 0.  0.
        -13    1    3    3    0    0 -0.94247632190E+01 -0.50814961472E+02 -0.23255248833E+03  0.23822604035E+03  0.00000000000E+00 0.  1.
         14    1    3    3    0    0  0.34996640487E+01 -0.27770712158E+01 -0.58630745247E+03  0.58632447382E+03  0.00000000000E+00 0. -1.
         11    1    5    5    0    0  0.43299998353E+01 -0.92764914355E+01 -0.93710063515E+01  0.13878686968E+02  0.00000000000E+00 0. -1.
        -12    1    5    5    0    0  0.10784111562E+02 -0.41386161197E+02  0.15126802213E+03  0.15719772873E+03  0.00000000000E+00 0.  1.
          5    1    4    4  501    0 -0.36311340714E+02  0.88621470811E+02 -0.90112484181E+02  0.13156751407E+03  0.41800000000E+01 0.  1.
         -5    1    4    4    0  501  0.27122328487E+02  0.15633214509E+02  0.28736734935E+02  0.42700005072E+02  0.41800000000E+01 0.  1.
</event>
<event>
11    1  0.8864208E-009  0.1308188E+03  0.7561462E-02  0.1118267E+00
         22   -1    0    0    0    0  0.00000000000E+00  0.00000000000E+00  0.29743291837E+03  0.29743291837E+03  0.00000000000E+00 0.  1.
         22   -1    0    0    0    0 -0.00000000000E+00 -0.00000000000E+00 -0.20233298415E+04  0.20233298415E+04  0.00000000000E+00 0. -1.
        -24    2    1    2    0    0  0.36742242418E+02 -0.10138482002E+02 -0.19764300035E+04  0.19784844477E+04  0.81684573993E+02 0.  0.
         25    2    1    2    0    0 -0.62689328463E+02 -0.33531571270E+01  0.10977374941E+03  0.17787810223E+03  0.12509655322E+03 0.  0.
         24    2    1    2    0    0  0.25947086045E+02  0.13491639129E+02  0.14075933096E+03  0.16440021000E+03  0.79743113777E+02 0.  0.
        -11    1    5    5    0    0  0.47191758371E+02  0.85754321592E+01  0.13278405554E+03  0.14118146302E+03  0.00000000000E+00 0.  1.
         12    1    5    5    0    0 -0.21244672327E+02  0.49162069694E+01  0.79752754207E+01  0.23218746979E+02  0.00000000000E+00 0. -1.
         11    1    3    3    0    0  0.55644450973E+02 -0.29574114583E+02 -0.13970132440E+04  0.13984337442E+04  0.00000000000E+00 0. -1.
        -12    1    3    3    0    0 -0.18902208555E+02  0.19435632582E+02 -0.57941675956E+03  0.58005070344E+03  0.00000000000E+00 0.  1.
          5    1    4    4  501    0 -0.45786913359E+02 -0.23874629831E+02 -0.11989813662E+02  0.53175816084E+02  0.41800000000E+01 0.  1.
         -5    1    4    4    0  501 -0.16902415103E+02  0.20521472704E+02  0.12176356307E+03  0.12470228615E+03  0.41800000000E+01 0.  1.
</event>
<event>
11    1  0.8864208E-009  0.1410132E+03  0.7561462E-02  0.1106432E+00
         22   -1    0    0    0    0  0.00000000000E+00  0.00000000000E+00  0.28476296288E+03  0.28476296288E+03  0.00000000000E+00 0.  1.
         22   -1    0    0    0    0 -0.00000000000E+00 -0.00000000000E+00 -0.56452962338E+03  0.56452962338E+03  0.00000000000E+00 0.  1.
        -24    2    1    2    0    0 -0.69648473272E+00  0.66386366367E+01 -0.41380375307E+03  0.41959621010E+03  0.69158346490E+02 0.  0.
         25    2    1    2    0    0  0.37321195977E+02  0.47634425634E+02 -0.10181162539E+03  0.17226128662E+03  0.12508570513E+03 0.  0.
         24    2    1    2    0    0 -0.36624711245E+02 -0.54273062271E+02  0.23584871795E+03  0.25743508954E+03  0.79757587770E+02 0.  0.
        -11    1    5    5    0    0 -0.17023764101E+02 -0.73428325733E+02  0.16240650961E+03  0.17904580958E+03  0.00000000000E+00 0.  1.
         12    1    5    5    0    0 -0.19600947144E+02  0.19155263462E+02  0.73442208339E+02  0.78389279962E+02  0.00000000000E+00 0. -1.
         13    1    3    3    0    0  0.27186629037E+02  0.23855258909E+02 -0.19085102419E+03  0.19424803631E+03  0.00000000000E+00 0. -1.
        -14    1    3    3    0    0 -0.27883113770E+02 -0.17216622272E+02 -0.22295272888E+03  0.22534817379E+03  0.00000000000E+00 0.  1.
          5    1    4    4  501    0  0.59390295587E+02  0.45034766078E+02 -0.12128654875E+03  0.14241922859E+03  0.41800000000E+01 0. -1.
         -5    1    4    4    0  501 -0.22069099610E+02  0.25996595556E+01  0.19474923357E+02  0.29842058025E+02  0.41800000000E+01 0. -1.
</event>
<event>
11    1  0.8864208E-009  0.1383902E+03  0.7561462E-02  0.1109369E+00
         22   -1    0    0    0    0  0.00000000000E+00  0.00000000000E+00  0.10279644153E+04  0.10279644153E+04  0.00000000000E+00 0.  1.
         22   -1    0    0    0    0 -0.00000000000E+00 -0.00000000000E+00 -0.24231442825E+03  0.24231442825E+03  0.00000000000E+00 0.  1.
        -24    2    1    2    0    0  0.74962284206E+01 -0.87089591757E+01 -0.17504470417E+03  0.19319314688E+03  0.80937655842E+02 0.  0.
         25    2    1    2    0    0 -0.32809118090E+02  0.61654857118E+02  0.36813511579E+02  0.14792402287E+03  0.12509405371E+03 0.  0.
         24    2    1    2    0    0  0.25312889669E+02 -0.52945897942E+02  0.92388117963E+03  0.92916167376E+03  0.79630216830E+02 0.  0.
        -11    1    5    5    0    0  0.16853350869E+02 -0.66761222977E+02  0.87416966434E+03  0.87687724248E+03  0.00000000000E+00 0.  1.
         12    1    5    5    0    0  0.84595388009E+01  0.13815325035E+02  0.49711515289E+02  0.52284431286E+02  0.00000000000E+00 0. -1.
         11    1    3    3    0    0  0.32924852903E+02 -0.17461410654E+02 -0.36866157124E+02  0.52421945231E+02  0.00000000000E+00 0. -1.
        -12    1    3    3    0    0 -0.25428624483E+02  0.87524514781E+01 -0.13817854705E+03  0.14077120165E+03  0.00000000000E+00 0.  1.
          5    1    4    4  501    0 -0.28206342591E+02  0.19103620658E+02 -0.44345399345E+02  0.56076135099E+02  0.41800000000E+01 0. -1.
         -5    1    4    4    0  501 -0.46027754991E+01  0.42551236459E+02  0.81158910924E+02  0.91847887776E+02  0.41800000000E+01 0. -1.
</event>
<event>
11    1  0.8864208E-009  0.1395765E+03  0.7561462E-02  0.1108032E+00
         22   -1    0    0    0    0  0.00000000000E+00  0.00000000000E+00  0.13408525207E+04  0.13408525207E+04  0.00000000000E+00 0.  1.
         22   -1    0    0    0    0 -0.00000000000E+00 -0.00000000000E+00 -0.14835015027E+03  0.14835015027E+03  0.00000000000E+00 0.  1.
        -24    2    1    2    0    0 -0.79324099744E+01 -0.16503202880E+02 -0.10409575077E+03  0.13923596723E+03  0.90639121844E+02 0.  0.
         25    2    1    2    0    0  0.68918028648E+02  0.20244129506E+02  0.18979320489E+03  0.23838848901E+03  0.12509233238E+03 0.  0.
         24    2    1    2    0    0 -0.60985618674E+02 -0.37409266264E+01  0.11068049163E+04  0.11115782147E+04  0.82799544096E+02 0.  0.
        -13    1    5    5    0    0 -0.65754071833E+02  0.19158331580E+02  0.99491732595E+03  0.99727184112E+03  0.00000000000E+00 0.  1.
         14    1    5    5    0    0  0.47684531588E+01 -0.22899258206E+02  0.11188759033E+03  0.11430637358E+03  0.00000000000E+00 0. -1.
         13    1    3    3    0    0  0.22655818054E+02 -0.13307153176E+02  0.42441692653E+01  0.26615397613E+02  0.00000000000E+00 0. -1.
        -14    1    3    3    0    0 -0.30588228029E+02 -0.31960497041E+01 -0.10833992003E+03  0.11262056961E+03  0.00000000000E+00 0.  1.
          5    1    4    4  501    0  0.37301150493E+02 -0.92120180512E+01  0.19108607520E+03  0.19495537346E+03  0.41800000000E+01 0.  1.
         -5    1    4    4    0  501  0.31616878156E+02  0.29456147558E+02 -0.12928703099E+01  0.43433115556E+02  0.41800000000E+01 0.  1.
</event>
<event>
11    1  0.8864208E-009  0.1424367E+03  0.7561462E-02  0.1104868E+00
         22   -1    0    0    0    0  0.00000000000E+00  0.00000000000E+00  0.30267887675E+03  0.30267887675E+03  0.00000000000E+00 0. -1.
         22   -1    0    0    0    0 -0.00000000000E+00 -0.00000000000E+00 -0.13657998874E+04  0.13657998874E+04  0.00000000000E+00 0.  1.
         24    2    1    2    0    0  0.75777371290E+01  0.61846407069E+02 -0.12578499003E+04  0.12619708452E+04  0.80632763109E+02 0.  0.
         25    2    1    2    0    0  0.40174222306E+02 -0.10436709109E+03 -0.19315144513E+02  0.16889847666E+03  0.12508861967E+03 0.  0.
        -24    2    1    2    0    0 -0.47751959435E+02  0.42520684023E+02  0.21404403416E+03  0.23760944221E+03  0.80963820741E+02 0.  0.
        -13    1    3    3    0    0  0.85368968381E+01  0.38161866332E+02 -0.11786805821E+04  0.11793290980E+04  0.00000000000E+00 0.  1.
         14    1    3    3    0    0 -0.95915970912E+00  0.23684540737E+02 -0.79169318122E+02  0.82641747254E+02  0.00000000000E+00 0. -1.
         11    1    5    5    0    0  0.15763104779E+02  0.14930142136E+02  0.11329479020E+03  0.11535637868E+03  0.00000000000E+00 0. -1.
        -12    1    5    5    0    0 -0.63515064213E+02  0.27590541887E+02  0.10074924396E+03  0.12225306353E+03  0.00000000000E+00 0.  1.
          5    1    4    4  501    0  0.73800837203E+02 -0.96883959064E+02 -0.40289765547E+02  0.12835031244E+03  0.41800000000E+01 0. -1.
         -5    1    4    4    0  501 -0.33626614897E+02 -0.74831320274E+01  0.20974621033E+02  0.40548164224E+02  0.41800000000E+01 0. -1.
</event>
<event>
11    1  0.8864208E-009  0.1445609E+03  0.7561462E-02  0.1102570E+00
         22   -1    0    0    0    0  0.00000000000E+00  0.00000000000E+00  0.21145078165E+03  0.21145078165E+03  0.00000000000E+00 0. -1.
         22   -1    0    0    0    0 -0.00000000000E+00 -0.00000000000E+00 -0.31130784943E+04  0.31130784943E+04  0.00000000000E+00 0.  1.
        -24    2    1    2    0    0  0.17701959737E+02 -0.75504697477E+02 -0.29194232060E+04  0.29215266120E+04  0.79193244535E+02 0.  0.
         25    2    1    2    0    0 -0.10490074252E+01 -0.21679731965E+01 -0.15286342853E+03  0.19754562712E+03  0.12510494190E+03 0.  0.
         24    2    1    2    0    0 -0.16652952312E+02  0.77672670674E+02  0.17065892194E+03  0.20545703681E+03  0.82327162888E+02 0.  0.
        -11    1    5    5    0    0  0.70216543626E+01  0.15313360507E+02 -0.49896667320E+01  0.17569843884E+02  0.00000000000E+00 0.  1.
         12    1    5    5    0    0 -0.23674606675E+02  0.62359310167E+02  0.17564858867E+03  0.18788719293E+03  0.00000000000E+00 0. -1.
         13    1    3    3    0    0 -0.15781985324E+02 -0.25283923309E+02 -0.31569064812E+03  0.31709451769E+03  0.00000000000E+00 0. -1.
        -14    1    3    3    0    0  0.33483945062E+02 -0.50220774168E+02 -0.26037325579E+04  0.26044320943E+04  0.00000000000E+00 0.  1.
          5    1    4    4  501    0 -0.49731403290E+02  0.33169329628E+02 -0.10359011978E+03  0.11967373236E+03  0.41800000000E+01 0. -1.
         -5    1    4    4    0  501  0.48682395864E+02 -0.35337302824E+02 -0.49273308753E+02  0.77871894760E+02  0.41800000000E+01 0. -1.
</event>
<event>
11    1  0.8864208E-009  0.1482746E+03  0.7561462E-02  0.1098655E+00
         22   -1    0    0    0    0  0.00000000000E+00  0.00000000000E+00  0.86048123940E+03  0.86048123940E+03  0.00000000000E+00 0. -1.
         22   -1    0    0    0    0 -0.00000000000E+00 -0.00000000000E+00 -0.13762190136E+03  0.13762190136E+03  0.00000000000E+00 0.  1.
        -24    2    1    2    0    0 -0.76499666846E+02 -0.18010138048E+02 -0.80942436776E+02  0.13836147544E+03  0.80097788450E+02 0.  0.
         25    2    1    2    0    0  0.84081406076E+02  0.26472160498E+02  0.20789177443E+03  0.25813950978E+03  0.12508620429E+03 0.  0.
         24    2    1    2    0    0 -0.75817392300E+01 -0.84620224503E+01  0.59591000039E+03  0.60160215554E+03  0.81776135867E+02 0.  0.
        -13    1    5    5    0    0  0.25027484252E+02  0.20153360669E+02  0.14037096094E+03  0.14400187356E+03  0.00000000000E+00 0.  1.
         14    1    5    5    0    0 -0.32609223482E+02 -0.28615383119E+02  0.45553903945E+03  0.45760028198E+03  0.00000000000E+00 0. -1.
         13    1    3    3    0    0 -0.70371259186E+02  0.15196096935E+01 -0.18684911774E+02  0.72825471238E+02  0.00000000000E+00 0. -1.
        -14    1    3    3    0    0 -0.61284076595E+01 -0.19529747741E+02 -0.62257525002E+02  0.65536004201E+02  0.00000000000E+00 0.  1.
          5    1    4    4  501    0  0.79147795116E+02  0.60339085512E+02  0.86439329051E+02  0.13188786418E+03  0.41800000000E+01 0.  1.
         -5    1    4    4    0  501  0.49336109596E+01 -0.33866925014E+02  0.12145244538E+03  0.12625164560E+03  0.41800000000E+01 0.  1.
</event>
<event>
11    1  0.8864208E-009  0.1343671E+03  0.7561462E-02  0.1114017E+00
         22   -1    0    0    0    0  0.00000000000E+00  0.00000000000E+00  0.83291073734E+03  0.83291073734E+03  0.00000000000E+00 0.  1.
         22   -1    0    0    0    0 -0.00000000000E+00 -0.00000000000E+00 -0.10558724048E+03  0.10558724048E+03  0.00000000000E+00 0.  1.
        -24    2    1    2    0    0 -0.29670490808E+02 -0.11019397341E+02 -0.52512977677E+02  0.10223200552E+03  0.81804675812E+02 0.  0.
         25    2    1    2    0    0  0.12276130722E+02 -0.37519574782E+02  0.14981678297E+03  0.19912025163E+03  0.12508151050E+03 0.  0.
         24    2    1    2    0    0  0.17394360087E+02  0.48538972123E+02  0.63001969157E+03  0.63714572068E+03  0.79820185644E+02 0.  0.
        -11    1    5    5    0    0  0.48821249904E+02  0.20825598738E+02  0.34206870092E+03  0.34616212409E+03  0.00000000000E+00 0.  1.
         12    1    5    5    0    0 -0.31426889817E+02  0.27713373385E+02  0.28795099065E+03  0.29098359659E+03  0.00000000000E+00 0. -1.
         13    1    3    3    0    0 -0.47878601179E+01 -0.27506878500E+02  0.12578293702E+02  0.30622956124E+02  0.00000000000E+00 0. -1.
        -14    1    3    3    0    0 -0.24882630690E+02  0.16487481159E+02 -0.65091271379E+02  0.71609049392E+02  0.00000000000E+00 0.  1.
          5    1    4    4  501    0  0.66765636598E+02 -0.40701582114E+01  0.73350516732E+02  0.99357873986E+02  0.41800000000E+01 0.  1.
         -5    1    4    4    0  501 -0.54489505876E+02 -0.33449416570E+02  0.76466266240E+02  0.99762377639E+02  0.41800000000E+01 0.  1.
</event>
<event>
11    1  0.8864208E-009  0.3957457E+03  0.7561462E-02  0.9662394E-01
         22   -1    0    0    0    0  0.00000000000E+00  0.00000000000E+00  0.57968071658E+03  0.57968071658E+03  0.00000000000E+00 0.  1.
         22   -1    0    0    0    0 -0.00000000000E+00 -0.00000000000E+00 -0.36043478450E+03  0.36043478450E+03  0.00000000000E+00 0.  1.
        -24    2    1    2    0    0 -0.89762598677E+01 -0.83485848070E+02 -0.22498136592E+02  0.11911309772E+03  0.81432817891E+02 0.  0.
         25    2    1    2    0    0  0.32473819496E+03 -0.15281209325E+03  0.88678165814E+02  0.39027884955E+03  0.12508929691E+03 0.  0.
         24    2    1    2    0    0 -0.31576193510E+03  0.23629794132E+03  0.15306590285E+03  0.43072355381E+03  0.80940054752E+02 0.  0.
        -13    1    5    5    0    0 -0.14426053798E+03  0.15563490183E+03  0.66674473370E+02  0.22243833052E+03  0.00000000000E+00 0.  1.
         14    1    5    5    0    0 -0.17150139712E+03  0.80663039494E+02  0.86391429485E+02  0.20828522329E+03  0.00000000000E+00 0. -1.
         11    1    3    3    0    0 -0.17260240202E+02 -0.16566405778E+01  0.20053356435E+02  0.26510327311E+02  0.00000000000E+00 0. -1.
        -12    1    3    3    0    0  0.82839803338E+01 -0.81829207492E+02 -0.42551493027E+02  0.92602770411E+02  0.00000000000E+00 0.  1.
          5    1    4    4  501    0  0.68958523419E+02 -0.48051120943E+01  0.62999705716E+02  0.93620523255E+02  0.41800000000E+01 0. -1.
         -5    1    4    4    0  501  0.25577967154E+03 -0.14800698116E+03  0.25678460098E+02  0.29665832629E+03  0.41800000000E+01 0. -1.
</event>
<event>
11    1  0.8864208E-009  0.2024717E+03  0.7561462E-02  0.1052789E+00
         22   -1    0    0    0    0  0.00000000000E+00  0.00000000000E+00  0.11070481886E+04  0.11070481886E+04  0.00000000000E+00 0.  1.
         22   -1    0    0    0    0 -0.00000000000E+00 -0.00000000000E+00 -0.53922414897E+03  0.53922414897E+03  0.00000000000E+00 0.  1.
         24    2    1    2    0    0  0.14452445699E+03  0.64928517939E+02 -0.49498636700E+03  0.52593465892E+03  0.80577483419E+02 0.  0.
         25    2    1    2    0    0 -0.14615935087E+03 -0.13892937864E+03  0.61015651452E+03  0.65467757935E+03  0.12509129703E+03 0.  0.
        -24    2    1    2    0    0  0.16348938866E+01  0.74000860705E+02  0.45265389207E+03  0.46566009926E+03  0.80405110396E+02 0.  0.
        -13    1    3    3    0    0  0.14830013923E+03  0.70003863506E+02 -0.49258894464E+03  0.51916985715E+03  0.00000000000E+00 0.  1.
         14    1    3    3    0    0 -0.37756822395E+01 -0.50753455670E+01 -0.23974223628E+01  0.67648017698E+01  0.00000000000E+00 0. -1.
         13    1    5    5    0    0 -0.11376316370E+02  0.58005271708E+01  0.68675075438E+01  0.14499287895E+02  0.00000000000E+00 0. -1.
        -14    1    5    5    0    0  0.13011210256E+02  0.68200333534E+02  0.44578638452E+03  0.45116081137E+03  0.00000000000E+00 0.  1.
          5    1    4    4  501    0 -0.94246730985E+02 -0.15105411472E+03  0.40055203702E+03  0.43835966813E+03  0.41800000000E+01 0.  1.
         -5    1    4    4    0  501 -0.51912619888E+02  0.12124736080E+02  0.20960447750E+03  0.21631791122E+03  0.41800000000E+01 0.  1.
</event>
<event>
11    1  0.8864208E-009  0.1423189E+03  0.7561462E-02  0.1104996E+00
         22   -1    0    0    0    0  0.00000000000E+00  0.00000000000E+00  0.26898439308E+03  0.26898439308E+03  0.00000000000E+00 0.  1.
         22   -1    0    0    0    0 -0.00000000000E+00 -0.00000000000E+00 -0.90023200545E+03  0.90023200545E+03  0.00000000000E+00 0.  1.
         24    2    1    2    0    0  0.55625549596E+02  0.40787059098E+02 -0.73544781020E+03  0.74332462561E+03  0.83007418646E+02 0.  0.
         25    2    1    2    0    0 -0.36764847299E+02 -0.49334731957E+02 -0.12185706260E+03  0.18515233055E+03  0.12508665808E+03 0.  0.
        -24    2    1    2    0    0 -0.18860702298E+02  0.85476728586E+01  0.22605726044E+03  0.24073944237E+03  0.80154883283E+02 0.  0.
        -11    1    3    3    0    0 -0.36596296605E+01  0.41856331244E+02 -0.18599450955E+03  0.19068115517E+03  0.00000000000E+00 0.  1.
         12    1    3    3    0    0  0.59285179257E+02 -0.10692721463E+01 -0.54945330065E+03  0.55264347044E+03  0.00000000000E+00 0. -1.
         13    1    5    5    0    0  0.20972089433E+02  0.56918631914E+01  0.16170106306E+02  0.27086863601E+02  0.00000000000E+00 0. -1.
        -14    1    5    5    0    0 -0.39832791730E+02  0.28558096672E+01  0.20988715413E+03  0.21365257877E+03  0.00000000000E+00 0.  1.
          5    1    4    4  501    0 -0.50596982225E+02 -0.53183347865E+02 -0.14209414950E+03  0.15998982100E+03  0.41800000000E+01 0. -1.
         -5    1    4    4    0  501  0.13832134927E+02  0.38486159086E+01  0.20237086900E+02  0.25162509558E+02  0.41800000000E+01 0. -1.
</event>
<event>
11    1  0.8864208E-009  0.1375922E+03  0.7561462E-02  0.1110277E+00
         22   -1    0    0    0    0  0.00000000000E+00  0.00000000000E+00  0.17583745796E+04  0.17583745796E+04  0.00000000000E+00 0. -1.
         22   -1    0    0    0    0 -0.00000000000E+00 -0.00000000000E+00 -0.19895489569E+03  0.19895489569E+03  0.00000000000E+00 0. -1.
        -24    2    1    2    0    0 -0.68309389348E+01 -0.90785239595E-01 -0.17662626743E+03  0.19460047440E+03  0.81399240304E+02 0.  0.
         25    2    1    2    0    0  0.55182358768E+01 -0.57232321126E+02  0.39912241497E+03  0.42219855849E+03  0.12508769386E+03 0.  0.
         24    2    1    2    0    0  0.13127030580E+01  0.57323106366E+02  0.13369235364E+04  0.13405304424E+04  0.79810169477E+02 0.  0.
        -11    1    5    5    0    0  0.30408510880E+02 -0.12171310426E+01  0.29728374294E+03  0.29883738515E+03  0.00000000000E+00 0.  1.
         12    1    5    5    0    0 -0.29095807822E+02  0.58540237408E+02  0.10396397935E+04  0.10416930573E+04  0.00000000000E+00 0. -1.
         11    1    3    3    0    0  0.30383710198E+02  0.16167450566E+02 -0.12052523579E+03  0.12534308424E+03  0.00000000000E+00 0. -1.
        -12    1    3    3    0    0 -0.37214649133E+02 -0.16258235805E+02 -0.56101031640E+02  0.69257390166E+02  0.00000000000E+00 0.  1.
          5    1    4    4  501    0 -0.49218463773E+02 -0.81156431693E+01  0.26003582932E+03  0.26481016931E+03  0.41800000000E+01 0. -1.
         -5    1    4    4    0  501  0.54736699649E+02 -0.49116677957E+02  0.13908658565E+03  0.15738838919E+03  0.41800000000E+01 0. -1.
</event>
<event>
11    1  0.8864208E-009  0.1807916E+03  0.7561462E-02  0.1069004E+00
         22   -1    0    0    0    0  0.00000000000E+00  0.00000000000E+00  0.15114238116E+04  0.15114238116E+04  0.00000000000E+00 0.  1.
         22   -1    0    0    0    0 -0.00000000000E+00 -0.00000000000E+00 -0.59343820196E+02  0.59343820196E+02  0.00000000000E+00 0.  1.
         24    2    1    2    0    0 -0.28901011184E+02 -0.85868868628E+02  0.85528989747E+02  0.14693218378E+03  0.77878928458E+02 0.  0.
         25    2    1    2    0    0  0.14757589891E+03  0.10479420070E+03  0.51808674215E+03  0.56286796047E+03  0.12508396418E+03 0.  0.
        -24    2    1    2    0    0 -0.11867488773E+03 -0.18925332068E+02  0.84846425948E+03  0.86096748752E+03  0.83255737157E+02 0.  0.
        -13    1    3    3    0    0 -0.48284301551E+02 -0.25380863852E+02  0.28382939841E+02  0.61491083095E+02  0.00000000000E+00 0.  1.
         14    1    3    3    0    0  0.19383290368E+02 -0.60488004775E+02  0.57146049906E+02  0.85441100689E+02  0.00000000000E+00 0. -1.
         13    1    5    5    0    0 -0.33094496737E+02 -0.41504093033E+02  0.22067908862E+03  0.22697377736E+03  0.00000000000E+00 0. -1.
        -14    1    5    5    0    0 -0.85580390990E+02  0.22578760965E+02  0.62778517086E+03  0.63399371016E+03  0.00000000000E+00 0.  1.
          5    1    4    4  501    0  0.77499756593E+02 -0.16209455321E+02  0.21150262747E+03  0.22587561299E+03  0.41800000000E+01 0. -1.
         -5    1    4    4    0  501  0.70076142318E+02  0.12100365602E+03  0.30658411468E+03  0.33699234748E+03  0.41800000000E+01 0. -1.
</event>
<event>
11    1  0.8864208E-009  0.1405167E+03  0.7561462E-02  0.1106983E+00
         22   -1    0    0    0    0  0.00000000000E+00  0.00000000000E+00  0.12663747015E+04  0.12663747015E+04  0.00000000000E+00 0. -1.
         22   -1    0    0    0    0 -0.00000000000E+00 -0.00000000000E+00 -0.23806026170E+03  0.23806026170E+03  0.00000000000E+00 0. -1.
        -24    2    1    2    0    0 -0.44193406672E+02 -0.46570989902E+02 -0.21359260300E+03  0.23771481276E+03  0.82247296928E+02 0.  0.
         25    2    1    2    0    0  0.41957179990E+02  0.38195509836E+02  0.45382980758E+03  0.47416088724E+03  0.12509097018E+03 0.  0.
         24    2    1    2    0    0  0.22362266821E+01  0.83754800663E+01  0.78807723519E+03  0.79255926317E+03  0.83721607968E+02 0.  0.
        -11    1    5    5    0    0  0.88693219994E+01 -0.13408191423E+02  0.29139146979E+02  0.33279638770E+02  0.00000000000E+00 0.  1.
         12    1    5    5    0    0 -0.66330953174E+01  0.21783671490E+02  0.75893808821E+03  0.75927962440E+03  0.00000000000E+00 0. -1.
         11    1    3    3    0    0 -0.64599843733E+02 -0.47939066385E+02 -0.14140434326E+03  0.16268522425E+03  0.00000000000E+00 0. -1.
        -12    1    3    3    0    0  0.20406437060E+02  0.13680764822E+01 -0.72188259744E+02  0.75029588507E+02  0.00000000000E+00 0.  1.
          5    1    4    4  501    0 -0.18060523502E+02  0.58809498202E+02  0.32128193392E+03  0.32714567558E+03  0.41800000000E+01 0.  1.
         -5    1    4    4    0  501  0.60017703492E+02 -0.20613988366E+02  0.13254787366E+03  0.14701521166E+03  0.41800000000E+01 0.  1.
</event>
<event>
11    1  0.8864208E-009  0.1326367E+03  0.7561462E-02  0.1116071E+00
         22   -1    0    0    0    0  0.00000000000E+00  0.00000000000E+00  0.68892294647E+03  0.68892294647E+03  0.00000000000E+00 0.  1.
         22   -1    0    0    0    0 -0.00000000000E+00 -0.00000000000E+00 -0.34007513173E+04  0.34007513173E+04  0.00000000000E+00 0. -1.
        -24    2    1    2    0    0  0.22482056624E+00 -0.15924643615E+02 -0.32571077300E+04  0.32581373839E+04  0.80341785685E+02 0.  0.
         25    2    1    2    0    0 -0.43632744643E+02  0.23337909650E+02 -0.10763777009E+03  0.17228426016E+03  0.12508997689E+03 0.  0.
         24    2    1    2    0    0  0.43407924076E+02 -0.74132660348E+01  0.65291712929E+03  0.65925261971E+03  0.79837550645E+02 0.  0.
        -13    1    5    5    0    0 -0.35420207250E+01 -0.17649402433E+01  0.47913821901E+03  0.47915456154E+03  0.00000000000E+00 0.  1.
         14    1    5    5    0    0  0.46949944801E+02 -0.56483257915E+01  0.17377891027E+03  0.18009805817E+03  0.00000000000E+00 0. -1.
         13    1    3    3    0    0 -0.80120011280E+01 -0.28614247053E+02 -0.31287631369E+04  0.31289042385E+04  0.00000000000E+00 0. -1.
        -14    1    3    3    0    0  0.82368216942E+01  0.12689603437E+02 -0.12834459312E+03  0.12923314533E+03  0.00000000000E+00 0.  1.
          5    1    4    4  501    0 -0.25710613426E+02  0.64092545095E+02 -0.17039087060E+02  0.71250914853E+02  0.41800000000E+01 0. -1.
         -5    1    4    4    0  501 -0.17922131217E+02 -0.40754635445E+02 -0.90598683027E+02  0.10103334531E+03  0.41800000000E+01 0. -1.
</event>
<event>
11    1  0.8864208E-009  0.1335708E+03  0.7561462E-02  0.1114958E+00
         22   -1    0    0    0    0  0.00000000000E+00  0.00000000000E+00  0.16564077288E+03  0.16564077288E+03  0.00000000000E+00 0.  1.
         22   -1    0    0    0    0 -0.00000000000E+00 -0.00000000000E+00 -0.30072549150E+04  0.30072549150E+04  0.00000000000E+00 0.  1.
         24    2    1    2    0    0 -0.81756478687E+01  0.35464461723E+02 -0.27850387077E+04  0.27864107055E+04  0.79494951309E+02 0.  0.
         25    2    1    2    0    0  0.53909091540E+02 -0.40231719163E+02 -0.18229789165E+03  0.23109636887E+03  0.12509288160E+03 0.  0.
        -24    2    1    2    0    0 -0.45733443671E+02  0.47672574407E+01  0.12572245717E+03  0.15538861353E+03  0.78900002303E+02 0.  0.
        -13    1    3    3    0    0 -0.75888371041E+01  0.28992778988E+02 -0.27681911185E+04  0.27683533446E+04  0.00000000000E+00 0.  1.
         14    1    3    3    0    0 -0.58681076459E+00  0.64716827342E+01 -0.16847589171E+02  0.18057360969E+02  0.00000000000E+00 0. -1.
         13    1    5    5    0    0 -0.20157552455E+01  0.36089035221E+02  0.37631874433E+02  0.52178920128E+02  0.00000000000E+00 0. -1.
        -14    1    5    5    0    0 -0.43717688426E+02 -0.31321777780E+02  0.88090582738E+02  0.10320969340E+03  0.00000000000E+00 0.  1.
          5    1    4    4  501    0  0.36465058611E+02 -0.52585450483E+02 -0.19756667978E+02  0.67102372772E+02  0.41800000000E+01 0. -1.
         -5    1    4    4    0  501  0.17444032929E+02  0.12353731320E+02 -0.16254122368E+03  0.16399399610E+03  0.41800000000E+01 0. -1.
</event>
<event>
11    1  0.8864208E-009  0.1568858E+03  0.7561462E-02  0.1090043E+00
         22   -1    0    0    0    0  0.00000000000E+00  0.00000000000E+00  0.50286671475E+03  0.50286671475E+03  0.00000000000E+00 0.  1.
         22   -1    0    0    0    0 -0.00000000000E+00 -0.00000000000E+00 -0.19861624447E+03  0.19861624447E+03  0.00000000000E+00 0.  1.
         24    2    1    2    0    0  0.96601967965E+02  0.17148470569E+01 -0.12752731166E+03  0.17880180274E+03  0.79824736316E+02 0.  0.
         25    2    1    2    0    0 -0.81965373679E+02 -0.34840878796E+02  0.10993996305E+03  0.18885629033E+03  0.12509074148E+03 0.  0.
        -24    2    1    2    0    0 -0.14636594287E+02  0.33126031739E+02  0.32183781889E+03  0.33382486615E+03  0.80919068957E+02 0.  0.
        -13    1    3    3    0    0  0.10971218635E+03 -0.16676458773E+01 -0.12225058201E+03  0.16427035545E+03  0.00000000000E+00 0.  1.
         14    1    3    3    0    0 -0.13110218386E+02  0.33824929342E+01 -0.52767296494E+01  0.14531447291E+02  0.00000000000E+00 0. -1.
         11    1    5    5    0    0  0.81957745247E+01  0.32838089588E+02  0.46347787102E+02  0.57390140418E+02  0.00000000000E+00 0. -1.
        -12    1    5    5    0    0 -0.22832368811E+02  0.28794215065E+00  0.27549003178E+03  0.27643472573E+03  0.00000000000E+00 0.  1.
          5    1    4    4  501    0 -0.77990570945E+02 -0.69942439467E+02  0.43531716151E+02  0.11352073249E+03  0.41800000000E+01 0.  1.
         -5    1    4    4    0  501 -0.39748027338E+01  0.35101560671E+02  0.66408246904E+02  0.75335557841E+02  0.41800000000E+01 0.  1.
</event>
<event>
11    1  0.8864208E-009  0.1407321E+03  0.7561462E-02  0.1106744E+00
         22   -1    0    0    0    0  0.00000000000E+00  0.00000000000E+00  0.85595212209E+03  0.85595212209E+03  0.00000000000E+00 0.  1.
         22   -1    0    0    0    0 -0.00000000000E+00 -0.00000000000E+00 -0.17513361195E+04  0.17513361195E+04  0.00000000000E+00 0. -1.
         24    2    1    2    0    0 -0.31262925497E+01 -0.26991594235E+02 -0.12503684331E+04  0.12533618494E+04  0.82197245528E+02 0.  0.
         25    2    1    2    0    0  0.66910779673E+02  0.17487192336E+02 -0.48606192776E+03  0.50664234322E+03  0.12508961583E+03 0.  0.
        -24    2    1    2    0    0 -0.63784487124E+02  0.95044018990E+01  0.84104636340E+03  0.84728404901E+03  0.79827813867E+02 0.  0.
        -13    1    3    3    0    0 -0.22812194872E+01 -0.28876447896E+02 -0.13874393284E+03  0.14173542996E+03  0.00000000000E+00 0.  1.
         14    1    3    3    0    0 -0.84507306253E+00  0.18848536609E+01 -0.11116245002E+04  0.11116264194E+04  0.00000000000E+00 0. -1.
         11    1    5    5    0    0 -0.69926539850E+01  0.20226823497E+02  0.53528398099E+02  0.57648165639E+02  0.00000000000E+00 0. -1.
        -12    1    5    5    0    0 -0.56791833139E+02 -0.10722421598E+02  0.78751796531E+03  0.78963588338E+03  0.00000000000E+00 0.  1.
          5    1    4    4  501    0 -0.22871310074E+02 -0.71251947694E+01 -0.20381027842E+02  0.31728913011E+02  0.41800000000E+01 0.  1.
         -5    1    4    4    0  501  0.89782089747E+02  0.24612387106E+02 -0.46568089992E+03  0.47491343021E+03  0.41800000000E+01 0.  1.
</event>
<event>
11    1  0.8864208E-009  0.2473105E+03  0.7561462E-02  0.1025342E+00
         22   -1    0    0    0    0  0.00000000000E+00  0.00000000000E+00  0.81702043898E+03  0.81702043898E+03  0.00000000000E+00 0. -1.
         22   -1    0    0    0    0 -0.00000000000E+00 -0.00000000000E+00 -0.30898199787E+03  0.30898199787E+03  0.00000000000E+00 0. -1.
         24    2    1    2    0    0  0.34489153854E+02  0.11052124449E+03 -0.19364455727E+03  0.23961214765E+03  0.80692747657E+02 0.  0.
         25    2    1    2    0    0  0.34949492461E+02  0.12324650321E+03  0.49856008471E+02  0.18586344018E+03  0.12509368185E+03 0.  0.
        -24    2    1    2    0    0 -0.69438646316E+02 -0.23376774771E+03  0.65182698991E+03  0.70052684902E+03  0.79939701950E+02 0.  0.
        -11    1    3    3    0    0  0.33318926608E+02  0.10431066005E+02 -0.84972868142E+02  0.91865914945E+02  0.00000000000E+00 0.  1.
         12    1    3    3    0    0  0.11702272463E+01  0.10009017849E+03 -0.10867168913E+03  0.14774623271E+03  0.00000000000E+00 0. -1.
         13    1    5    5    0    0 -0.55923112845E+02 -0.19858624884E+03  0.61133833661E+03  0.64521194547E+03  0.00000000000E+00 0. -1.
        -14    1    5    5    0    0 -0.13515533470E+02 -0.35181498869E+02  0.40488653308E+02  0.55314903547E+02  0.00000000000E+00 0.  1.
          5    1    4    4  501    0  0.35962023154E+02  0.14053604814E+03  0.13966551412E+02  0.14579500984E+03  0.41800000000E+01 0.  1.
         -5    1    4    4    0  501 -0.10125306926E+01 -0.17289544926E+02  0.35889457059E+02  0.40068430343E+02  0.41800000000E+01 0.  1.
</event>
<event>
11    1  0.8864208E-009  0.1346118E+03  0.7561462E-02  0.1113729E+00
         22   -1    0    0    0    0  0.00000000000E+00  0.00000000000E+00  0.17500494457E+03  0.17500494457E+03  0.00000000000E+00 0.  1.
         22   -1    0    0    0    0 -0.00000000000E+00 -0.00000000000E+00 -0.62847661479E+03  0.62847661479E+03  0.00000000000E+00 0. -1.
        -24    2    1    2    0    0  0.71563058167E+01 -0.45232790079E+02 -0.37718558261E+03  0.38817324770E+03  0.79449911829E+02 0.  0.
         25    2    1    2    0    0  0.22977937100E+02  0.68011084626E+02 -0.20923973864E+03  0.25413051686E+03  0.12509020005E+03 0.  0.
         24    2    1    2    0    0 -0.30134242917E+02 -0.22778294548E+02  0.13295365103E+03  0.16117779480E+03  0.82913719706E+02 0.  0.
        -11    1    5    5    0    0 -0.56580010736E+02 -0.11151626506E+02  0.11030108104E+03  0.12446680227E+03  0.00000000000E+00 0.  1.
         12    1    5    5    0    0  0.26445767819E+02 -0.11626668041E+02  0.22652569986E+02  0.36710992526E+02  0.00000000000E+00 0. -1.
         13    1    3    3    0    0 -0.30597094372E+02 -0.10893238843E+02 -0.23235816193E+03  0.23461705022E+03  0.00000000000E+00 0. -1.
        -14    1    3    3    0    0  0.37753400189E+02 -0.34339551235E+02 -0.14482742068E+03  0.15355619748E+03  0.00000000000E+00 0.  1.
          5    1    4    4  501    0  0.42547062809E+02  0.87935941950E+02 -0.20283865742E+03  0.22517543335E+03  0.41800000000E+01 0.  1.
         -5    1    4    4    0  501 -0.19569125708E+02 -0.19924857323E+02 -0.64010812165E+01  0.28955083510E+02  0.41800000000E+01 0.  1.
</event>
<event>
11    1  0.8864208E-009  0.1383201E+03  0.7561462E-02  0.1109449E+00
         22   -1    0    0    0    0  0.00000000000E+00  0.00000000000E+00  0.36376897101E+03  0.36376897101E+03  0.00000000000E+00 0.  1.
         22   -1    0    0    0    0 -0.00000000000E+00 -0.00000000000E+00 -0.59741739909E+03  0.59741739909E+03  0.00000000000E+00 0. -1.
        -24    2    1    2    0    0 -0.68893740399E+01 -0.27018941008E+02 -0.45440503721E+03  0.46329187699E+03  0.85894928787E+02 0.  0.
         25    2    1    2    0    0  0.34755072002E+02 -0.26419236492E+02 -0.97508102037E+02  0.16446495089E+03  0.12503998969E+03 0.  0.
         24    2    1    2    0    0 -0.27865697962E+02  0.53438177500E+02  0.31826471117E+03  0.33342954222E+03  0.79061351558E+02 0.  0.
        -13    1    5    5    0    0  0.97547302788E+01 -0.90791985244E+01  0.14250369816E+03  0.14312543659E+03  0.00000000000E+00 0.  1.
         14    1    5    5    0    0 -0.37620428241E+02  0.62517376025E+02  0.17576101301E+03  0.19030410563E+03  0.00000000000E+00 0. -1.
         11    1    3    3    0    0  0.15133167600E+01 -0.40901403181E+02 -0.43904211912E+03  0.44094579856E+03  0.00000000000E+00 0. -1.
        -12    1    3    3    0    0 -0.84026907999E+01  0.13882462173E+02 -0.15362918094E+02  0.22346078426E+02  0.00000000000E+00 0.  1.
          5    1    4    4  501    0  0.29985277848E+02 -0.76154299629E+02 -0.54613080002E+02  0.98481750324E+02  0.41800000000E+01 0.  1.
         -5    1    4    4    0  501  0.47697941546E+01  0.49735063136E+02 -0.42895022035E+02  0.65983200565E+02  0.41800000000E+01 0.  1.
</event>
<event>
11    1  0.8864208E-009  0.1532799E+03  0.7561462E-02  0.1093574E+00
         22   -1    0    0    0    0  0.00000000000E+00  0.00000000000E+00  0.67319474611E+03  0.67319474611E+03  0.00000000000E+00 0. -1.
         22   -1    0    0    0    0 -0.00000000000E+00 -0.00000000000E+00 -0.16069764416E+03  0.16069764416E+03  0.00000000000E+00 0.  1.
         24    2    1    2    0    0  0.17719965543E+02 -0.88354369716E+02 -0.11492626502E+03  0.16583778615E+03  0.78572470352E+02 0.  0.
         25    2    1    2    0    0 -0.13264278624E+02  0.66673475248E+02  0.32735563714E+03  0.35697495299E+03  0.12509240786E+03 0.  0.
        -24    2    1    2    0    0 -0.44556869190E+01  0.21680894468E+02  0.30006772983E+03  0.31107965113E+03  0.78993623377E+02 0.  0.
        -11    1    3    3    0    0  0.46260569581E+02 -0.31860865814E+02 -0.57317936921E+02  0.80252731799E+02  0.00000000000E+00 0.  1.
         12    1    3    3    0    0 -0.28540604038E+02 -0.56493503902E+02 -0.57608328096E+02  0.85585054349E+02  0.00000000000E+00 0. -1.
         11    1    5    5    0    0 -0.37334264762E+02  0.47352448013E+01  0.21572068042E+03  0.21897872460E+03  0.00000000000E+00 0. -1.
        -12    1    5    5    0    0  0.32878577843E+02  0.16945649666E+02  0.84347049409E+02  0.92100926530E+02  0.00000000000E+00 0.  1.
          5    1    4    4  501    0 -0.33647312614E+02 -0.21883917953E+02  0.45572459646E+02  0.60871742125E+02  0.41800000000E+01 0. -1.
         -5    1    4    4    0  501  0.20383033990E+02  0.88557393201E+02  0.28178317749E+03  0.29610321086E+03  0.41800000000E+01 0. -1.
</event>
<event>
11    1  0.8864208E-009  0.1361295E+03  0.7561462E-02  0.1111959E+00
         22   -1    0    0    0    0  0.00000000000E+00  0.00000000000E+00  0.46309663878E+03  0.46309663878E+03  0.00000000000E+00 0. -1.
         22   -1    0    0    0    0 -0.00000000000E+00 -0.00000000000E+00 -0.14287152388E+03  0.14287152388E+03  0.00000000000E+00 0.  1.
        -24    2    1    2    0    0 -0.60833073710E+01  0.23352643629E+02 -0.67781698963E+02  0.10965718950E+03  0.82752570368E+02 0.  0.
         25    2    1    2    0    0 -0.34723157965E+02  0.15573245806E+02  0.44029001360E+02  0.13796532555E+03  0.12509058482E+03 0.  0.
         24    2    1    2    0    0  0.40806465336E+02 -0.38925889435E+02  0.34397781251E+03  0.35834564761E+03  0.83129267894E+02 0.  0.
        -13    1    5    5    0    0  0.14803847391E+02 -0.47142533567E+02  0.88034559464E+02  0.10095373212E+03  0.00000000000E+00 0.  1.
         14    1    5    5    0    0  0.26002617944E+02  0.82166441313E+01  0.25594325304E+03  0.25739191549E+03  0.00000000000E+00 0. -1.
         13    1    3    3    0    0 -0.19502785505E+02  0.55022661325E+01  0.14163663730E+02  0.24723327958E+02  0.00000000000E+00 0. -1.
        -14    1    3    3    0    0  0.13419478134E+02  0.17850377497E+02 -0.81945362693E+02  0.84933861546E+02  0.00000000000E+00 0.  1.
          5    1    4    4  501    0 -0.64631929199E+02 -0.31727558632E+02  0.38010635320E+02  0.81524260476E+02  0.41800000000E+01 0. -1.
         -5    1    4    4    0  501  0.29908771234E+02  0.47300804438E+02  0.60183660398E+01  0.56441065077E+02  0.41800000000E+01 0. -1.
</event>
<event>
11    1  0.8864208E-009  0.1411525E+03  0.7561462E-02  0.1106278E+00
         22   -1    0    0    0    0  0.00000000000E+00  0.00000000000E+00  0.86375369071E+03  0.86375369071E+03  0.00000000000E+00 0.  1.
         22   -1    0    0    0    0 -0.00000000000E+00 -0.00000000000E+00 -0.18316284930E+03  0.18316284930E+03  0.00000000000E+00 0.  1.
         24    2    1    2    0    0  0.19079502394E+01  0.63318970673E+02 -0.13989893212E+03  0.17233748742E+03  0.78202084627E+02 0.  0.
         25    2    1    2    0    0  0.28223589091E+02 -0.10308653469E+03  0.27088323512E+03  0.31693541455E+03  0.12508767051E+03 0.  0.
        -24    2    1    2    0    0 -0.30131539330E+02  0.39767564019E+02  0.54960653840E+03  0.55764363804E+03  0.80060671882E+02 0.  0.
        -13    1    3    3    0    0  0.25436876422E+02  0.71304765668E+02 -0.10217323331E+03  0.12716435779E+03  0.00000000000E+00 0.  1.
         14    1    3    3    0    0 -0.23528926182E+02 -0.79857949950E+01 -0.37725698813E+02  0.45173129623E+02  0.00000000000E+00 0. -1.
         13    1    5    5    0    0 -0.83793755291E+01 -0.22333963412E+02  0.80987594827E+02  0.84427545102E+02  0.00000000000E+00 0. -1.
        -14    1    5    5    0    0 -0.21752163801E+02  0.62101527431E+02  0.46861894357E+03  0.47321609294E+03  0.00000000000E+00 0.  1.
          5    1    4    4  501    0 -0.15154426452E+02 -0.50198008409E+02  0.23252555569E+03  0.23840113913E+03  0.41800000000E+01 0. -1.
         -5    1    4    4    0  501  0.43378015542E+02 -0.52888526283E+02  0.38357679429E+02  0.78534275422E+02  0.41800000000E+01 0. -1.
</event>
<event>
11    1  0.8864208E-009  0.2035221E+03  0.7561462E-02  0.1052061E+00
         22   -1    0    0    0    0  0.00000000000E+00  0.00000000000E+00  0.19639137479E+03  0.19639137479E+03  0.00000000000E+00 0.  1.
         22   -1    0    0    0    0 -0.00000000000E+00 -0.00000000000E+00 -0.13008141212E+04  0.13008141212E+04  0.00000000000E+00 0. -1.
         24    2    1    2    0    0 -0.45850781693E+02  0.15150127758E+03 -0.11262050226E+04  0.11400473523E+04  0.79468743449E+02 0.  0.
         25    2    1    2    0    0  0.66458689244E+02 -0.17694889046E+03 -0.62559351646E+02  0.23513581370E+03  0.12509001237E+03 0.  0.
        -24    2    1    2    0    0 -0.20607907551E+02  0.25447612881E+02  0.84341627861E+02  0.12202233001E+03  0.81875954802E+02 0.  0.
        -11    1    3    3    0    0 -0.43801892674E+01 -0.69469530512E+01 -0.14781540589E+03  0.14804337349E+03  0.00000000000E+00 0.  1.
         12    1    3    3    0    0 -0.41470592426E+02  0.15844823063E+03 -0.97838961671E+03  0.99200397877E+03  0.00000000000E+00 0. -1.
         11    1    5    5    0    0  0.26000147020E+02  0.27791070486E+02  0.21379716526E+02  0.43651386261E+02  0.00000000000E+00 0. -1.
        -12    1    5    5    0    0 -0.46608054570E+02 -0.23434576049E+01  0.62961911335E+02  0.78370943744E+02  0.00000000000E+00 0.  1.
          5    1    4    4  501    0  0.99691500215E+02 -0.96006262563E+02 -0.29985249572E+02  0.14167633980E+03  0.41800000000E+01 0. -1.
         -5    1    4    4    0  501 -0.33232810971E+02 -0.80942627894E+02 -0.32574102074E+02  0.93459473898E+02  0.41800000000E+01 0. -1.
</event>
